   * xtb version 6.3.3 (4ae9cef) compiled by 'conda@95abc7406d43' on 2020-10-14
          program call               : xtb acid_51.xyz --opt --chrg 0 --uhf 0 --gfn 2
          number of atoms            :                    60
          number of electrons        :                   182
          charge                     :                     0
          spin                       :                   0.0

   ID    Z sym.   atoms
    1    6 C      1-14, 16-19, 21, 22, 24, 25, 29-32, 34, 35
    2    7 N      15, 28
    3    8 O      20, 23, 26, 27, 33, 36
    4    1 H      37-60

          :  Hamiltonian                  GFN2-xTB          :
 * total energy  :  -102.4687468 Eh     change       -0.1462652E-08 Eh
 * total energy  :  -102.4793422 Eh     change       -0.1059544E-01 Eh
 * total energy  :  -102.4825904 Eh     change       -0.3248195E-02 Eh
 * total energy  :  -102.4837459 Eh     change       -0.1155466E-02 Eh
 * total energy  :  -102.4842721 Eh     change       -0.5261950E-03 Eh
 * total energy  :  -102.4844916 Eh     change       -0.2194664E-03 Eh
 * total energy  :  -102.4846747 Eh     change       -0.1831255E-03 Eh
 * total energy  :  -102.4848812 Eh     change       -0.2065495E-03 Eh
 * total energy  :  -102.4850870 Eh     change       -0.2057983E-03 Eh
 * total energy  :  -102.4852389 Eh     change       -0.1518400E-03 Eh
 * total energy  :  -102.4871743 Eh     change       -0.1305417E-04 Eh
 * total energy  :  -102.4871746 Eh     change       -0.3254651E-06 Eh
 * total energy  :  -102.4871815 Eh     change       -0.6822739E-05 Eh
 * total energy  :  -102.4871869 Eh     change       -0.5417852E-05 Eh
 * total energy  :  -102.4871947 Eh     change       -0.7820609E-05 Eh
 * total energy  :  -102.4872033 Eh     change       -0.8552891E-05 Eh
 * total energy  :  -102.4872118 Eh     change       -0.8532393E-05 Eh
 * total energy  :  -102.4872134 Eh     change       -0.1634237E-05 Eh
 * total energy  :  -102.4872174 Eh     change       -0.3973059E-05 Eh
   *** GEOMETRY OPTIMIZATION CONVERGED AFTER 87 ITERATIONS ***

 final structure:
================
60
 xtb: 6.3.3 (4ae9cef)
C        -1.92976541227714   -2.40636002986834   -0.83468108070703
C        -2.68227469204929   -3.52052113981450   -1.15622394181704
C        -2.86053792382831   -4.53034761012509   -0.22584009589158
C        -2.28496215722507   -4.41982357576692    1.02787996361456
C        -1.53994609522801   -3.30063349191393    1.35429847511723
C        -1.36236226993465   -2.28451074049970    0.42719330444667
C        -0.50975337104588   -1.09633212479568    0.76891267522911
C         0.87651354573193   -1.18141026680815    0.10057067814016
C         1.88930768327188   -1.87231800972546    0.97115868490447
C         2.14089850639767   -3.22392610936720    0.77751655558667
C         3.03717630112044   -3.89055979397196    1.59295559143183
C         3.69282778210879   -3.21047880082715    2.60521352202982
C         3.44279949171804   -1.86338274932039    2.80241510159425
C         2.54063965440183   -1.19584812751543    1.99308881145020
N         1.19843534586213    0.21222849078352   -0.19259167439502
C         2.22092218987162    0.47539096144834   -1.05925173023058
C         2.43950544636524    1.89787410444197   -1.37960699265833
C         2.79491715002289    2.39245031339681   -2.61167363381423
C         2.97578237909808    1.70567177495709   -3.91401878968860
O         2.95751227022483    3.72511657901336   -2.54053208031410
C         2.74233553976291    4.09642419665039   -1.26446001349852
C         2.41666749403983    3.02255747125619   -0.50258251827644
O         2.90554081640838   -0.41831590345808   -1.51634322164380
C         0.07115151146838    1.07151212725367    0.05029979032899
C         0.17130965618475    1.87184495495222    1.36298207716109
O        -0.48793025769903    3.02741797213439    1.25854780069570
O         0.69149151378556    1.49583227601348    2.37482096911353
N        -1.03713367122448    0.15246461180760    0.23068526175971
C        -2.33864728923633    0.51757058733048    0.45955243576723
C        -2.76763776484512    1.76900230421084   -0.18905846314458
C        -3.64620022285466    2.68093396363344    0.34308367082340
C        -4.32275852073611    2.71735865988630    1.66247470217663
O        -3.85325331910893    3.68173638347510   -0.53017692356327
C        -3.13872816181917    3.41126393357666   -1.63821387442980
C        -2.44793401053365    2.25357981680705   -1.49277907749057
O        -3.08980564132439   -0.17693252024480    1.11433848193096
H        -1.79255389307646   -1.61908057144034   -1.56232085101518
H        -3.13023578089006   -3.60159474689547   -2.13580850773245
H        -3.44885608361465   -5.40023861635863   -0.47794627292896
H        -2.42025007891404   -5.20512831021463    1.75673769304815
H        -1.09380067342429   -3.21231043525056    2.33400895227680
H        -0.39202043587438   -1.01873433177736    1.85910438374512
H         0.80137076208178   -1.72560260915004   -0.85173170066964
H         1.63114739813260   -3.75353948973203   -0.01439728052498
H         3.22714656146593   -4.94204519100345    1.43506630029721
H         4.39709820076383   -3.72958494343316    3.23872380119699
H         3.95011467051611   -1.32892328288550    3.59221636893246
H         2.33819049939029   -0.14905212235330    2.15779443915067
H         3.11126169814205    0.64283956410582   -3.73688027496122
H         2.10794302317208    1.85745465409569   -4.55663766159144
H         3.84825767838571    2.10594021789056   -4.42540269030463
H         2.85346882382596    5.13612289180164   -1.03056122918019
H         2.23535293612414    3.01187011650914    0.55159727116303
H        -0.09798396399834    1.77927691941832   -0.76866691051753
H        -0.50032819656574    3.49936127299259    2.10822927046777
H        -5.39517153060458    2.84636896603010    1.52661241866397
H        -4.13943926547809    1.78169637027882    2.18178752162102
H        -3.95767278304145    3.55168919024380    2.26138888286287
H        -3.20839808497832    4.10829892336991   -2.44913057080787
H        -1.83074197841468    1.77838407475201   -2.22789579493483

          :  Hamiltonian                  GFN2-xTB          :
         :: total energy            -102.487217394943 Eh    ::
         :: gradient norm              0.000437145888 Eh/a0 ::
         :: HOMO-LUMO gap              3.279653145737 eV    ::
         :: SCC energy              -103.932186778368 Eh    ::
         :: -> dispersion             -0.079929047778 Eh    ::
         :: repulsion energy           1.442758484858 Eh    ::

    * Orbital Energies and Occupations

         #    Occupation            Energy/Eh            Energy/eV
      -------------------------------------------------------------
         1        2.0000           -0.7777417             -21.1634
       ...           ...                  ...                  ...
        79        2.0000           -0.4267201             -11.6116
        80        2.0000           -0.4233651             -11.5204
        81        2.0000           -0.4167183             -11.3395
        82        2.0000           -0.4131881             -11.2434
        83        2.0000           -0.4080243             -11.1029
        84        2.0000           -0.4041835             -10.9984
        85        2.0000           -0.4037334             -10.9861
        86        2.0000           -0.4022448             -10.9456
        87        2.0000           -0.3991944             -10.8626
        88        2.0000           -0.3981633             -10.8346
        89        2.0000           -0.3970901             -10.8054
        90        2.0000           -0.3927381             -10.6869
        91        2.0000           -0.3904439             -10.6245 (HOMO)
        92                         -0.2699189              -7.3449 (LUMO)
        93                         -0.2473592              -6.7310
        94                         -0.2452714              -6.6742
        95                         -0.2275481              -6.1919
        96                         -0.2222308              -6.0472
        97                         -0.2183719              -5.9422
        98                         -0.2173964              -5.9157
        99                         -0.2167109              -5.8970
       100                         -0.2150436              -5.8516
       101                         -0.1538276              -4.1859
       102                         -0.1520131              -4.1365
       ...                                ...                  ...
       168                          0.6838571              18.6087
      -------------------------------------------------------------
                  HL-Gap            0.1205250 Eh            3.2797 eV

     #   Z          covCN         q      C6AA      Î±(0)
     1   6 C        2.924    -0.028    28.708     8.787
     2   6 C        2.920    -0.027    28.665     8.780
     3   6 C        2.920    -0.029    28.716     8.788
     4   6 C        2.920    -0.025    28.636     8.775
     5   6 C        2.924    -0.029    28.720     8.788
     6   6 C        2.974     0.016    27.652     8.626
     7   6 C        3.838     0.048    19.750     6.322
     8   6 C        3.835     0.045    19.792     6.329
     9   6 C        2.973     0.011    27.769     8.644
    10   6 C        2.925    -0.031    28.777     8.797
    11   6 C        2.920    -0.027    28.681     8.782
    12   6 C        2.920    -0.030    28.743     8.792
    13   6 C        2.920    -0.027    28.673     8.781
    14   6 C        2.923    -0.033    28.826     8.805
    15   7 N        2.763    -0.115    23.514     7.202
    16   6 C        2.762     0.272    22.411     7.753
    17   6 C        3.074    -0.068    29.609     8.922
    18   6 C        3.096     0.130    25.058     8.204
    19   6 C        3.753    -0.123    22.914     6.826
    20   8 O        1.731    -0.177    16.973     5.563
    21   6 C        3.054     0.064    26.509     8.444
    22   6 C        3.005    -0.068    29.667     8.935
    23   8 O        0.859    -0.426    22.209     6.318
    24   6 C        3.769     0.089    19.138     6.235
    25   6 C        2.692     0.351    21.044     7.508
    26   8 O        1.659    -0.374    20.354     6.090
    27   8 O        0.856    -0.381    21.299     6.188
    28   7 N        2.773    -0.126    23.722     7.234
    29   6 C        2.757     0.273    22.380     7.747
    30   6 C        3.075    -0.063    29.488     8.903
    31   6 C        3.098     0.130    25.039     8.201
    32   6 C        3.753    -0.122    22.893     6.823
    33   8 O        1.731    -0.176    16.959     5.560
    34   6 C        3.056     0.065    26.488     8.440
    35   6 C        3.005    -0.066    29.636     8.930
    36   8 O        0.859    -0.422    22.121     6.306
    37   1 H        0.926     0.030     2.593     2.518
    38   1 H        0.926     0.035     2.512     2.478
    39   1 H        0.926     0.036     2.505     2.475
    40   1 H        0.926     0.038     2.481     2.463
    41   1 H        0.926     0.035     2.511     2.478
    42   1 H        0.923     0.053     2.277     2.360
    43   1 H        0.923     0.059     2.217     2.328
    44   1 H        0.926     0.031     2.566     2.505
    45   1 H        0.926     0.035     2.519     2.482
    46   1 H        0.926     0.034     2.535     2.490
    47   1 H        0.926     0.036     2.506     2.476
    48   1 H        0.926     0.053     2.281     2.362
    49   1 H        0.925     0.084     1.941     2.179
    50   1 H        0.924     0.062     2.175     2.306
    51   1 H        0.925     0.070     2.081     2.256
    52   1 H        0.926     0.055     2.263     2.352
    53   1 H        0.927     0.035     2.518     2.481
    54   1 H        0.924     0.072     2.065     2.247
    55   1 H        0.804     0.342     0.608     1.225
    56   1 H        0.925     0.072     2.064     2.247
    57   1 H        0.925     0.080     1.984     2.202
    58   1 H        0.925     0.061     2.190     2.314
    59   1 H        0.926     0.055     2.257     2.349
    60   1 H        0.926     0.038     2.476     2.461

Wiberg/Mayer (AO) data.
largest (>0.10) Wiberg bond orders for each atom

     #   Z sym  total        # sym  WBO       # sym  WBO       # sym  WBO
 ---------------------------------------------------------------------------
     1   6 C    3.992 --     2 C    1.448     6 C    1.409    37 H    0.969
                             4 C    0.112
     2   6 C    3.992 --     1 C    1.448     3 C    1.436    38 H    0.971
                             5 C    0.111
     3   6 C    3.991 --     4 C    1.441     2 C    1.436    39 H    0.971
                             6 C    0.109
     4   6 C    3.992 --     5 C    1.442     3 C    1.441    40 H    0.971
                             1 C    0.112
     5   6 C    3.990 --     4 C    1.442     6 C    1.414    41 H    0.969
                             2 C    0.111
     6   6 C    3.985 --     5 C    1.414     1 C    1.409     7 C    0.994
                             3 C    0.109
     7   6 C    3.963 --     6 C    0.994    28 N    0.957    42 H    0.953
                             8 C    0.950
     8   6 C    3.961 --     9 C    0.992    15 N    0.955    43 H    0.952
                             7 C    0.950
     9   6 C    3.985 --    14 C    1.415    10 C    1.411     8 C    0.992
                            12 C    0.109
    10   6 C    3.991 --    11 C    1.446     9 C    1.411    44 H    0.969
                            13 C    0.112
    11   6 C    3.992 --    10 C    1.446    12 C    1.437    45 H    0.971
                            14 C    0.112
    12   6 C    3.991 --    13 C    1.440    11 C    1.437    46 H    0.971
                             9 C    0.109
    13   6 C    3.992 --    14 C    1.443    12 C    1.440    47 H    0.971
                            10 C    0.112
    14   6 C    3.989 --    13 C    1.443     9 C    1.415    48 H    0.963
                            11 C    0.112
    15   7 N    3.447 --    16 C    1.186    24 C    0.997     8 C    0.955
                            23 O    0.181
    16   6 C    3.949 --    23 O    1.679    15 N    1.186    17 C    1.006
    17   6 C    3.973 --    18 C    1.513    22 C    1.241    16 C    1.006
    18   6 C    3.916 --    17 C    1.513    20 O    1.139    19 C    1.035
                            21 C    0.130
    19   6 C    3.990 --    18 C    1.035    49 H    0.975    51 H    0.971
                            50 H    0.962
    20   8 O    2.450 --    18 C    1.139    21 C    1.122
    21   6 C    3.907 --    22 C    1.630    20 O    1.122    52 H    0.966
                            18 C    0.130
    22   6 C    3.983 --    21 C    1.630    17 C    1.241    53 H    0.970
    23   8 O    2.012 --    16 C    1.679    15 N    0.181
    24   6 C    3.972 --    15 N    0.997    28 N    0.968    54 H    0.944
                            25 C    0.909
    25   6 C    3.915 --    27 O    1.780    26 O    1.141    24 C    0.909
    26   8 O    2.206 --    25 C    1.141    55 H    0.857    27 O    0.179
    27   8 O    2.070 --    25 C    1.780    26 O    0.179
    28   7 N    3.430 --    29 C    1.168    24 C    0.968     7 C    0.957
                            36 O    0.172
    29   6 C    3.947 --    36 O    1.687    28 N    1.168    30 C    1.009
    30   6 C    3.973 --    31 C    1.514    35 C    1.238    29 C    1.009
    31   6 C    3.917 --    30 C    1.514    33 O    1.139    32 C    1.035
                            34 C    0.127
    32   6 C    3.990 --    31 C    1.035    57 H    0.977    56 H    0.966
                            58 H    0.965
    33   8 O    2.450 --    31 C    1.139    34 C    1.122
    34   6 C    3.906 --    35 C    1.631    33 O    1.122    59 H    0.966
                            31 C    0.127
    35   6 C    3.982 --    34 C    1.631    30 C    1.238    60 H    0.972
    36   8 O    2.020 --    29 C    1.687    28 N    0.172
    37   1 H    0.999 --     1 C    0.969
    38   1 H    0.998 --     2 C    0.971
    39   1 H    0.998 --     3 C    0.971
    40   1 H    0.998 --     4 C    0.971
    41   1 H    0.999 --     5 C    0.969
    42   1 H    0.997 --     7 C    0.953
    43   1 H    0.996 --     8 C    0.952
    44   1 H    0.999 --    10 C    0.969
    45   1 H    0.998 --    11 C    0.971
    46   1 H    0.998 --    12 C    0.971
    47   1 H    0.998 --    13 C    0.971
    48   1 H    0.997 --    14 C    0.963
    49   1 H    0.993 --    19 C    0.975
    50   1 H    0.996 --    19 C    0.962
    51   1 H    0.994 --    19 C    0.971
    52   1 H    0.996 --    21 C    0.966
    53   1 H    0.999 --    22 C    0.970
    54   1 H    0.994 --    24 C    0.944
    55   1 H    0.883 --    26 O    0.857
    56   1 H    0.995 --    32 C    0.966
    57   1 H    0.994 --    32 C    0.977
    58   1 H    0.996 --    32 C    0.965
    59   1 H    0.996 --    34 C    0.966
    60   1 H    0.999 --    35 C    0.972
 ---------------------------------------------------------------------------

molecular dipole:
                 x           y           z       tot (Debye)
 q only:       -0.419       1.015      -0.294
   full:       -0.512       1.645      -0.300       4.444

           -------------------------------------------------
          | TOTAL ENERGY             -102.487217394943 Eh   |
          | GRADIENT NORM               0.000437145888 Eh/Î± |
          | HOMO-LUMO GAP               3.279653145737 eV   |
           -------------------------------------------------

 * finished run on 2022/03/17 at 01:47:34.657
