   * xtb version 6.3.3 (4ae9cef) compiled by 'conda@95abc7406d43' on 2020-10-14
          program call               : xtb acid_77.xyz --opt --chrg 0 --uhf 0 --gfn 2
          number of atoms            :                    78
          number of electrons        :                   266
          charge                     :                     0
          spin                       :                   0.0

   ID    Z sym.   atoms
    1    6 C      1, 2, 6-15, 19-22, 24-33, 36, 37, 41-50
    2    9 F      3-5, 16-18
    3    7 N      23, 40
    4    8 O      34, 35, 38, 39, 51, 52
    5    1 H      53-78

          :  Hamiltonian                  GFN2-xTB          :
 * total energy  :  -153.3591482 Eh     change       -0.6293874E-08 Eh
 * total energy  :  -153.3758102 Eh     change       -0.1666200E-01 Eh
 * total energy  :  -153.3815300 Eh     change       -0.5719825E-02 Eh
 * total energy  :  -153.3834825 Eh     change       -0.1952484E-02 Eh
 * total energy  :  -153.3845330 Eh     change       -0.1050526E-02 Eh
 * total energy  :  -153.3850025 Eh     change       -0.4694581E-03 Eh
 * total energy  :  -153.3853576 Eh     change       -0.3551517E-03 Eh
 * total energy  :  -153.3856959 Eh     change       -0.3382739E-03 Eh
 * total energy  :  -153.3860294 Eh     change       -0.3334658E-03 Eh
 * total energy  :  -153.3863240 Eh     change       -0.2946301E-03 Eh
 * total energy  :  -153.3958752 Eh     change       -0.1222352E-04 Eh
 * total energy  :  -153.3958892 Eh     change       -0.1401046E-04 Eh
 * total energy  :  -153.3959017 Eh     change       -0.1243707E-04 Eh
 * total energy  :  -153.3959143 Eh     change       -0.1263984E-04 Eh
 * total energy  :  -153.3959258 Eh     change       -0.1150215E-04 Eh
 * total energy  :  -153.3959365 Eh     change       -0.1072776E-04 Eh
 * total energy  :  -153.3959469 Eh     change       -0.1031778E-04 Eh
 * total energy  :  -153.3959581 Eh     change       -0.1121584E-04 Eh
 * total energy  :  -153.3959587 Eh     change       -0.6131393E-06 Eh
   *** GEOMETRY OPTIMIZATION CONVERGED AFTER 94 ITERATIONS ***

 final structure:
================
78
 xtb: 6.3.3 (4ae9cef)
C        -1.32042586160074    4.36469155508492   -0.01089439310945
C        -0.12805307451869    4.92160644417597   -0.73680961158530
F        -0.23230904560168    6.23332483565335   -0.98779296058115
F         0.10695767184774    4.34109577149626   -1.92651633489270
F         1.01798673109575    4.77911804303169   -0.03104788935952
C        -2.35321024394307    5.23035080559046    0.32842695561446
C        -3.45854489698219    4.76310391826737    1.01210540936289
C        -3.53560186429665    3.42614148609325    1.36031654873872
C        -2.50846261595794    2.56636795056604    1.02626689186954
C        -1.38877113891351    3.01566063555135    0.33497720135524
C        -0.29111956414922    2.03029594199850    0.03215570899058
C         0.42720543954508    1.54926667308091    1.31187810140170
C         1.67760761260762    2.34128752448959    1.60018471183390
C         1.77674200008023    3.23676492808782    2.66628105938876
C         0.63109590200003    3.46181156542997    3.61209530964769
F         0.20753088151765    2.35225163793852    4.24229983990465
F         0.91403862308034    4.34155563297477    4.58189700669898
F        -0.46404150705502    3.95890876634709    2.98648759793397
C         2.94400268674932    3.96414111486086    2.86611977578294
C         4.01832967885795    3.80834889095611    2.01217648922124
C         3.92848598666906    2.92313086749651    0.95289979335208
C         2.76843541335834    2.20143507738545    0.74961900727572
N         0.71192588625863    0.14633566880216    1.02508163866443
C         1.57285922764109   -0.55107639373156    1.81837359378133
C         1.84981009149575   -1.94932023378721    1.46639287790964
C         2.72512799557596   -2.81257159069908    2.07486518626259
C         3.60903722746532   -2.56908479034052    3.24033045072883
C         2.62635533339814   -4.04398651367966    1.34845883769326
C         3.22906101723864   -5.29663469553203    1.45854982845263
C         2.86361680522388   -6.27359052814281    0.55901753466626
C         1.91776385836919   -6.02873028892129   -0.43995718771302
C         1.30647803499859   -4.79788127736083   -0.57107694712746
C         1.67679421838771   -3.81667287138091    0.33549771333577
O         1.20839582584474   -2.55098614881519    0.40691844205060
O         2.08814785627617   -0.02129075838736    2.78784509248513
C        -0.00276020614187   -0.32338232204129   -0.13063249365216
C         0.97981954347352   -0.65917773998100   -1.27710105346084
O         0.40977326129293   -1.39777023964493   -2.22143950287544
O         2.10888731088408   -0.26013372245169   -1.33531237989483
N        -0.83744978133791    0.79150810407704   -0.51265188984877
C        -1.75427669450215    0.83252501041937   -1.52625547738903
C        -2.27891711682407   -0.44752980773858   -2.02062022470720
C        -2.86286735497140   -0.69448303717326   -3.23645844970679
C        -3.13079721834211    0.25894899850136   -4.34045726644090
C        -3.16442708587622   -2.09486791171004   -3.24141561754897
C        -2.74158913029894   -2.58068493413027   -1.98951214659011
C        -2.86982711185408   -3.91386805293408   -1.63127257636699
C        -3.43582468501484   -4.76001910508369   -2.56337520907464
C        -3.86479142371126   -4.29448496194002   -3.80902334885945
C        -3.73758269138985   -2.96988938152389   -4.16349173902867
O        -2.21594972164782   -1.58122284877100   -1.25113631361319
O        -2.13402856650763    1.89736815213373   -1.98085965872110
H        -2.28660695478085    6.27176458858642    0.05504140308617
H        -4.25499288694117    5.44254797808862    1.27215532659648
H        -4.39500039488187    3.05283629702575    1.89612497739547
H        -2.57380000388947    1.52267608243241    1.29614686077402
H         0.44258642685475    2.44393960108483   -0.66844177799433
H        -0.26451064066266    1.58890967405853    2.15997781716591
H         3.00765266130732    4.65234441381104    3.69447687647447
H         4.92017893248464    4.37720460270028    2.17672406692111
H         4.76234426963047    2.79321674163049    0.28010828287080
H         2.71295820021312    1.50265004226446   -0.07093962380387
H         3.49548619121904   -1.54765940826491    3.58794942030609
H         4.64650749454421   -2.74728369359622    2.95993455075248
H         3.35621179621977   -3.25686680884245    4.04651458199326
H         3.95832172712135   -5.48835378105395    2.23016153475581
H         3.31325154241001   -7.25316826183315    0.62273601148073
H         1.65874678629483   -6.82249909768640   -1.12420108466480
H         0.57211188449415   -4.59969718433627   -1.33625778996327
H        -0.61031268404082   -1.20905836300074    0.08661643989720
H         1.03430370452667   -1.57543349156173   -2.94476230955105
H        -2.72777330525627    1.23732041377881   -4.09836478386512
H        -2.69122142504172   -0.10613892334554   -5.26787767418392
H        -4.20558120329561    0.35224771308366   -4.49247239591989
H        -2.53614778623103   -4.26613809994167   -0.66820304677610
H        -3.55019907241282   -5.80683373388619   -2.32587464072853
H        -4.30451586964099   -4.99389671847096   -4.50414723849607
H        -4.07064191001636   -2.61263342730413   -5.12553271677541

          :  Hamiltonian                  GFN2-xTB          :
         :: total energy            -153.395958680756 Eh    ::
         :: gradient norm              0.000496361673 Eh/a0 ::
         :: HOMO-LUMO gap              3.063670897255 eV    ::
         :: SCC energy              -155.276801288003 Eh    ::
         :: -> dispersion             -0.114139467472 Eh    ::
         :: repulsion energy           1.877880376385 Eh    ::

    * Orbital Energies and Occupations

         #    Occupation            Energy/Eh            Energy/eV
      -------------------------------------------------------------
         1        2.0000           -0.8702800             -23.6815
       ...           ...                  ...                  ...
       121        2.0000           -0.4369626             -11.8904
       122        2.0000           -0.4313475             -11.7376
       123        2.0000           -0.4279161             -11.6442
       124        2.0000           -0.4256772             -11.5833
       125        2.0000           -0.4219057             -11.4806
       126        2.0000           -0.4170469             -11.3484
       127        2.0000           -0.4147230             -11.2852
       128        2.0000           -0.4134056             -11.2493
       129        2.0000           -0.4060505             -11.0492
       130        2.0000           -0.4037033             -10.9853
       131        2.0000           -0.4002758             -10.8921
       132        2.0000           -0.3969322             -10.8011
       133        2.0000           -0.3948178             -10.7435 (HOMO)
       134                         -0.2822300              -7.6799 (LUMO)
       135                         -0.2799797              -7.6186
       136                         -0.2651442              -7.2149
       137                         -0.2563050              -6.9744
       138                         -0.2505819              -6.8187
       139                         -0.2461788              -6.6989
       140                         -0.2396597              -6.5215
       141                         -0.2334670              -6.3530
       142                         -0.2322577              -6.3201
       143                         -0.2200493              -5.9878
       144                         -0.2184595              -5.9446
       ...                                ...                  ...
       234                          0.7051192              19.1873
      -------------------------------------------------------------
                  HL-Gap            0.1125878 Eh            3.0637 eV

     #   Z          covCN         q      C6AA      Î±(0)
     1   6 C        2.976    -0.022    28.560     8.766
     2   6 C        3.336     0.486    17.294     6.587
     3   9 F        0.792    -0.201    11.248     3.962
     4   9 F        0.791    -0.205    11.282     3.968
     5   9 F        0.791    -0.223    11.470     4.001
     6   6 C        2.923    -0.019    28.472     8.750
     7   6 C        2.920    -0.020    28.514     8.757
     8   6 C        2.919    -0.015    28.392     8.738
     9   6 C        2.928    -0.022    28.545     8.762
    10   6 C        2.972     0.028    27.364     8.581
    11   6 C        3.832     0.049    19.734     6.320
    12   6 C        3.827     0.047    19.774     6.327
    13   6 C        2.971     0.027    27.390     8.585
    14   6 C        2.976    -0.025    28.622     8.776
    15   6 C        3.336     0.485    17.306     6.589
    16   9 F        0.791    -0.205    11.287     3.969
    17   9 F        0.792    -0.202    11.252     3.962
    18   9 F        0.791    -0.227    11.513     4.008
    19   6 C        2.924    -0.020    28.512     8.757
    20   6 C        2.920    -0.021    28.542     8.761
    21   6 C        2.919    -0.015    28.388     8.737
    22   6 C        2.926    -0.026    28.656     8.779
    23   7 N        2.764    -0.105    23.295     7.168
    24   6 C        2.758     0.265    22.532     7.773
    25   6 C        3.074     0.077    26.215     8.395
    26   6 C        3.024     0.006    27.861     8.658
    27   6 C        3.754    -0.117    22.794     6.808
    28   6 C        3.080    -0.019    28.395     8.736
    29   6 C        2.912    -0.031    28.767     8.795
    30   6 C        2.920    -0.037    28.909     8.817
    31   6 C        2.928    -0.031    28.774     8.797
    32   6 C        2.907    -0.053    29.314     8.878
    33   6 C        3.087     0.131    25.053     8.205
    34   8 O        1.718    -0.241    17.996     5.728
    35   8 O        0.860    -0.431    22.300     6.331
    36   6 C        3.758     0.086    19.209     6.249
    37   6 C        2.688     0.360    20.884     7.479
    38   8 O        1.659    -0.361    20.105     6.053
    39   8 O        0.856    -0.389    21.461     6.211
    40   7 N        2.766    -0.115    23.509     7.201
    41   6 C        2.757     0.264    22.556     7.777
    42   6 C        3.087     0.077    26.182     8.388
    43   6 C        3.025     0.002    27.958     8.673
    44   6 C        3.754    -0.114    22.743     6.800
    45   6 C        3.084    -0.020    28.421     8.739
    46   6 C        3.096     0.130    25.041     8.201
    47   6 C        2.907    -0.052    29.279     8.873
    48   6 C        2.927    -0.031    28.784     8.798
    49   6 C        2.921    -0.037    28.930     8.820
    50   6 C        2.912    -0.032    28.798     8.800
    51   8 O        1.719    -0.222    17.678     5.677
    52   8 O        0.860    -0.426    22.204     6.318
    53   1 H        0.926     0.068     2.106     2.270
    54   1 H        0.926     0.058     2.225     2.333
    55   1 H        0.926     0.056     2.243     2.342
    56   1 H        0.926     0.051     2.310     2.377
    57   1 H        0.924     0.063     2.162     2.300
    58   1 H        0.924     0.067     2.117     2.275
    59   1 H        0.926     0.065     2.139     2.287
    60   1 H        0.926     0.055     2.257     2.349
    61   1 H        0.926     0.056     2.241     2.341
    62   1 H        0.926     0.073     2.048     2.238
    63   1 H        0.925     0.084     1.934     2.175
    64   1 H        0.925     0.059     2.213     2.326
    65   1 H        0.925     0.060     2.199     2.319
    66   1 H        0.926     0.047     2.360     2.402
    67   1 H        0.926     0.042     2.416     2.431
    68   1 H        0.926     0.044     2.399     2.422
    69   1 H        0.926     0.046     2.370     2.407
    70   1 H        0.924     0.103     1.761     2.075
    71   1 H        0.804     0.343     0.605     1.222
    72   1 H        0.925     0.077     2.011     2.218
    73   1 H        0.925     0.055     2.262     2.352
    74   1 H        0.925     0.063     2.167     2.302
    75   1 H        0.926     0.048     2.349     2.397
    76   1 H        0.926     0.044     2.402     2.424
    77   1 H        0.926     0.041     2.433     2.439
    78   1 H        0.926     0.045     2.388     2.417

Wiberg/Mayer (AO) data.
largest (>0.10) Wiberg bond orders for each atom

     #   Z sym  total        # sym  WBO       # sym  WBO       # sym  WBO
 ---------------------------------------------------------------------------
     1   6 C    3.970 --     6 C    1.411    10 C    1.387     2 C    0.952
                             8 C    0.104
     2   6 C    3.821 --     3 F    0.955     1 C    0.952     4 F    0.946
                             5 F    0.929
     3   9 F    1.077 --     2 C    0.955
     4   9 F    1.076 --     2 C    0.946
     5   9 F    1.056 --     2 C    0.929
     6   6 C    3.987 --     7 C    1.445     1 C    1.411    53 H    0.966
                             9 C    0.109
     7   6 C    3.989 --     6 C    1.445     8 C    1.431    54 H    0.969
                            10 C    0.108
     8   6 C    3.990 --     9 C    1.451     7 C    1.431    55 H    0.969
                             1 C    0.104
     9   6 C    3.990 --     8 C    1.451    10 C    1.406    56 H    0.966
                             6 C    0.109
    10   6 C    3.986 --     9 C    1.406     1 C    1.387    11 C    0.996
                             7 C    0.108
    11   6 C    3.966 --    10 C    0.996    40 N    0.958    57 H    0.952
                            12 C    0.951
    12   6 C    3.965 --    13 C    0.994    23 N    0.957    58 H    0.951
                            11 C    0.951
    13   6 C    3.986 --    22 C    1.408    14 C    1.384    12 C    0.994
                            20 C    0.108
    14   6 C    3.968 --    19 C    1.412    13 C    1.384    15 C    0.953
                            21 C    0.105
    15   6 C    3.819 --    17 F    0.955    14 C    0.953    16 F    0.946
                            18 F    0.926
    16   9 F    1.076 --    15 C    0.946
    17   9 F    1.077 --    15 C    0.955
    18   9 F    1.052 --    15 C    0.926
    19   6 C    3.987 --    20 C    1.444    14 C    1.412    59 H    0.966
                            22 C    0.109
    20   6 C    3.989 --    19 C    1.444    21 C    1.433    60 H    0.969
                            13 C    0.108
    21   6 C    3.990 --    22 C    1.448    20 C    1.433    61 H    0.969
                            14 C    0.105
    22   6 C    3.986 --    21 C    1.448    13 C    1.408    62 H    0.958
                            19 C    0.109
    23   7 N    3.460 --    24 C    1.193    36 C    0.995    12 C    0.957
                            35 O    0.184
    24   6 C    3.955 --    35 O    1.636    23 N    1.193    25 C    1.036
    25   6 C    3.901 --    26 C    1.549    34 O    1.041    24 C    1.036
    26   6 C    3.982 --    25 C    1.549    28 C    1.186    27 C    1.042
    27   6 C    3.989 --    26 C    1.042    63 H    0.973    64 H    0.965
                            65 H    0.964
    28   6 C    3.985 --    29 C    1.330    33 C    1.274    26 C    1.186
    29   6 C    3.983 --    30 C    1.503    28 C    1.330    66 H    0.968
                            32 C    0.115
    30   6 C    3.990 --    29 C    1.503    31 C    1.380    67 H    0.971
    31   6 C    3.980 --    32 C    1.482    30 C    1.380    68 H    0.971
    32   6 C    3.987 --    31 C    1.482    33 C    1.353    69 H    0.967
                            29 C    0.115
    33   6 C    3.918 --    32 C    1.353    28 C    1.274    34 O    1.078
    34   8 O    2.369 --    33 C    1.078    25 C    1.041
    35   8 O    1.996 --    24 C    1.636    23 N    0.184
    36   6 C    3.963 --    23 N    0.995    40 N    0.977    70 H    0.930
                            37 C    0.904
    37   6 C    3.915 --    39 O    1.773    38 O    1.157    36 C    0.904
    38   8 O    2.220 --    37 C    1.157    71 H    0.856    39 O    0.178
    39   8 O    2.063 --    37 C    1.773    38 O    0.178
    40   7 N    3.442 --    41 C    1.181    36 C    0.977    11 C    0.958
                            52 O    0.179
    41   6 C    3.953 --    52 O    1.649    40 N    1.181    42 C    1.029
    42   6 C    3.907 --    43 C    1.546    51 O    1.054    41 C    1.029
    43   6 C    3.982 --    42 C    1.546    45 C    1.188    44 C    1.041
    44   6 C    3.991 --    43 C    1.041    72 H    0.976    73 H    0.969
                            74 H    0.962
    45   6 C    3.985 --    50 C    1.330    46 C    1.272    43 C    1.188
    46   6 C    3.921 --    47 C    1.352    45 C    1.272    51 O    1.086
    47   6 C    3.987 --    48 C    1.483    46 C    1.352    75 H    0.967
                            50 C    0.115
    48   6 C    3.980 --    47 C    1.483    49 C    1.379    76 H    0.971
    49   6 C    3.991 --    50 C    1.503    48 C    1.379    77 H    0.971
    50   6 C    3.984 --    49 C    1.503    45 C    1.330    78 H    0.968
                            47 C    0.115
    51   8 O    2.381 --    46 C    1.086    42 C    1.054
    52   8 O    2.003 --    41 C    1.649    40 N    0.179
    53   1 H    0.995 --     6 C    0.966
    54   1 H    0.996 --     7 C    0.969
    55   1 H    0.996 --     8 C    0.969
    56   1 H    0.997 --     9 C    0.966
    57   1 H    0.995 --    11 C    0.952
    58   1 H    0.993 --    12 C    0.951
    59   1 H    0.995 --    19 C    0.966
    60   1 H    0.996 --    20 C    0.969
    61   1 H    0.996 --    21 C    0.969
    62   1 H    0.994 --    22 C    0.958
    63   1 H    0.993 --    27 C    0.973
    64   1 H    0.996 --    27 C    0.965
    65   1 H    0.996 --    27 C    0.964
    66   1 H    0.998 --    29 C    0.968
    67   1 H    0.998 --    30 C    0.971
    68   1 H    0.998 --    31 C    0.971
    69   1 H    0.997 --    32 C    0.967
    70   1 H    0.988 --    36 C    0.930
    71   1 H    0.882 --    38 O    0.856
    72   1 H    0.994 --    44 C    0.976
    73   1 H    0.997 --    44 C    0.969
    74   1 H    0.996 --    44 C    0.962
    75   1 H    0.997 --    47 C    0.967
    76   1 H    0.998 --    48 C    0.971
    77   1 H    0.998 --    49 C    0.971
    78   1 H    0.998 --    50 C    0.968
 ---------------------------------------------------------------------------

molecular dipole:
                 x           y           z       tot (Debye)
 q only:       -0.366      -2.600      -1.088
   full:       -0.398      -3.021      -1.361       8.483

           -------------------------------------------------
          | TOTAL ENERGY             -153.395958680756 Eh   |
          | GRADIENT NORM               0.000496361673 Eh/Î± |
          | HOMO-LUMO GAP               3.063670897255 eV   |
           -------------------------------------------------

 * finished run on 2022/03/17 at 02:04:14.867
