   * xtb version 6.3.3 (4ae9cef) compiled by 'conda@95abc7406d43' on 2020-10-14
          program call               : xtb acid_288.xyz --opt --chrg 0 --uhf 0 --gfn 2
          number of atoms            :                    60
          number of electrons        :                   190
          charge                     :                     0
          spin                       :                   0.0

   ID    Z sym.   atoms
    1    8 O      1, 13, 14, 24
    2    6 C      2-7, 9, 11, 12, 16-19, 21-23, 25-38
    3   35 Br     8, 20
    4    7 N      10, 15
    5    1 H      39-60

          :  Hamiltonian                  GFN2-xTB          :
 * total energy  :  -105.7535373 Eh     change       -0.2164555E-08 Eh
 * total energy  :  -105.7653017 Eh     change       -0.1176439E-01 Eh
 * total energy  :  -105.7685385 Eh     change       -0.3236861E-02 Eh
 * total energy  :  -105.7692855 Eh     change       -0.7470300E-03 Eh
 * total energy  :  -105.7696151 Eh     change       -0.3295966E-03 Eh
 * total energy  :  -105.7697866 Eh     change       -0.1714127E-03 Eh
 * total energy  :  -105.7699605 Eh     change       -0.1739237E-03 Eh
 * total energy  :  -105.7701573 Eh     change       -0.1968031E-03 Eh
 * total energy  :  -105.7703752 Eh     change       -0.2178791E-03 Eh
 * total energy  :  -105.7705746 Eh     change       -0.1994139E-03 Eh
 * total energy  :  -105.7740049 Eh     change       -0.2515488E-04 Eh
 * total energy  :  -105.7740146 Eh     change       -0.9726713E-05 Eh
 * total energy  :  -105.7740418 Eh     change       -0.2714232E-04 Eh
 * total energy  :  -105.7740523 Eh     change       -0.1052963E-04 Eh
 * total energy  :  -105.7740668 Eh     change       -0.1453367E-04 Eh
 * total energy  :  -105.7740675 Eh     change       -0.6351633E-06 Eh
 * total energy  :  -105.7740738 Eh     change       -0.6358657E-05 Eh
 * total energy  :  -105.7740813 Eh     change       -0.7473089E-05 Eh
 * total energy  :  -105.7740847 Eh     change       -0.3385129E-05 Eh
   *** GEOMETRY OPTIMIZATION CONVERGED AFTER 55 ITERATIONS ***

 final structure:
================
60
 xtb: 6.3.3 (4ae9cef)
O        -2.69354109842914    1.09479288213074   -1.49636849056037
C        -2.09066900333143    0.19727691240456   -0.95274833536357
C        -2.24124760588821   -1.23482574852519   -1.34817128997907
C        -2.53054162007498   -2.24823627432234   -0.43853655859648
C        -2.65119908830764   -3.55514331958492   -0.88095917985599
C        -2.48013115549894   -3.86716576828262   -2.21866706156716
C        -2.21005415547782   -2.84762227881433   -3.11674754370336
Br       -1.97719081915873   -3.25877222532439   -4.95899922783891
C        -2.09972839977577   -1.53369983194122   -2.69929567588234
N        -1.20574011281094    0.44587117768512    0.06447045467319
C        -0.20452112556962   -0.46627027928439    0.54644114008939
C        -0.40853206817768   -0.73295546419343    2.05557429254871
O         0.46176231510888   -0.07743082592841    2.80959681065020
O        -1.25643450789972   -1.46468934388545    2.48469485277177
N         1.03359669101826    0.22204481544875    0.28284982114914
C         2.27937926208365   -0.31277191198403    0.33265092496543
C         2.28057484889324   -1.81179674445508    0.40969419174273
C         1.77068795699826   -2.55566160941330   -0.64835240566852
C         1.75003358270727   -3.93495386171400   -0.55366743790028
Br        0.99257372116899   -4.94380087637549   -1.97780106771805
C         2.24356814899437   -4.58874088884886    0.56325887025825
C         2.77722035423239   -3.83958048431792    1.59725068499231
C         2.79645403408378   -2.45644241352183    1.52527267241061
O         3.28553653728396    0.35791660482494    0.29893877144794
C         0.81533341209805    1.66164099532772    0.17534292518500
C         1.32597177874717    2.17835853011500   -1.14553407099947
C         1.01523968404549    1.50917922151523   -2.32292912093402
C         1.46238117657819    1.98905018240376   -3.53980063995337
C         2.22387218308598    3.14423570711944   -3.59138849034350
C         2.53839003719003    3.81400854049169   -2.42194834239050
C         2.09199276801251    3.33273602819393   -1.20391167861583
C        -0.72604675861522    1.80059849489742    0.30088043537352
C        -1.17899735478955    2.35739013042855    1.62988123030098
C        -2.19041737481201    1.74829281935051    2.36002825130908
C        -2.58973727067281    2.27285592749605    3.57772995425594
C        -1.99217478133945    3.41824770079796    4.07282514108098
C        -1.00479222838801    4.04877598579178    3.33420897879723
C        -0.60316865168436    3.52407856767784    2.11936180667771
H        -2.66355609732110   -2.01854367461150    0.60730019359989
H        -2.87388639204954   -4.34037110103833   -0.17543911377380
H        -2.55368598134069   -4.88693010680589   -2.56226702402014
H        -1.90416972913971   -0.74176661911673   -3.40665768300420
H        -0.27514817863878   -1.43395071326435    0.03743446403643
H         0.29907033117427   -0.23459018127524    3.75446883262952
H         1.40709694020315   -2.06528719282827   -1.54002428561660
H         2.21505306353845   -5.66600340467844    0.61806439287056
H         3.17679125883220   -4.34080888581395    2.46537248406756
H         3.21019724198153   -1.86880892651889    2.33008269546206
H         1.33342278280203    2.16380466312490    0.99867059952452
H         0.42111609630080    0.60638320840349   -2.28822459806886
H         1.21698278745010    1.46080379770686   -4.44908078445712
H         2.57413784662053    3.51839152467557   -4.54166738265736
H         3.13696811964381    4.71196077325826   -2.45680083870964
H         2.34862283968934    3.85101295664960   -0.29173294812379
H        -1.12690867919118    2.43359191338155   -0.50114122863493
H        -2.67915576932424    0.86642008833674    1.97407566939509
H        -3.37430216997935    1.78427291276359    4.13610674084734
H        -2.30327817062959    3.82593887535163    5.02300041649907
H        -0.54811901207291    4.95490260831027    3.70334266882329
H         0.15305155981155    4.03278341060562    1.53998913650635

          :  Hamiltonian                  GFN2-xTB          :
         :: total energy            -105.774084701302 Eh    ::
         :: gradient norm              0.000498861563 Eh/a0 ::
         :: HOMO-LUMO gap              3.319165961516 eV    ::
         :: SCC energy              -107.312691734670 Eh    ::
         :: -> dispersion             -0.092007686169 Eh    ::
         :: repulsion energy           1.535206947800 Eh    ::

    * Orbital Energies and Occupations

         #    Occupation            Energy/Eh            Energy/eV
      -------------------------------------------------------------
         1        2.0000           -0.8505696             -23.1452
       ...           ...                  ...                  ...
        83        2.0000           -0.4329438             -11.7810
        84        2.0000           -0.4304316             -11.7126
        85        2.0000           -0.4259807             -11.5915
        86        2.0000           -0.4226683             -11.5014
        87        2.0000           -0.4212906             -11.4639
        88        2.0000           -0.4167565             -11.3405
        89        2.0000           -0.4163001             -11.3281
        90        2.0000           -0.4150285             -11.2935
        91        2.0000           -0.4143236             -11.2743
        92        2.0000           -0.4116010             -11.2002
        93        2.0000           -0.4111042             -11.1867
        94        2.0000           -0.4058784             -11.0445
        95        2.0000           -0.4051593             -11.0249 (HOMO)
        96                         -0.2831822              -7.7058 (LUMO)
        97                         -0.2739070              -7.4534
        98                         -0.2737550              -7.4493
        99                         -0.2672133              -7.2712
       100                         -0.2583234              -7.0293
       101                         -0.2434494              -6.6246
       102                         -0.2402435              -6.5374
       103                         -0.2349387              -6.3930
       104                         -0.2323071              -6.3214
       105                         -0.2290593              -6.2330
       106                         -0.2242093              -6.1010
       ...                                ...                  ...
       184                          0.6561463              17.8546
      -------------------------------------------------------------
                  HL-Gap            0.1219771 Eh            3.3192 eV

     #   Z          covCN         q      C6AA      α(0)
     1   8 O        0.859    -0.403    21.734     6.251
     2   6 C        2.764     0.273    22.378     7.747
     3   6 C        2.977    -0.018    28.448     8.749
     4   6 C        2.918    -0.037    28.928     8.820
     5   6 C        2.922    -0.024    28.592     8.769
     6   6 C        2.991    -0.029    28.707     8.789
     7   6 C        2.916     0.088    26.035     8.367
     8  35 Br       1.071    -0.150   189.193    22.178
     9   6 C        3.001    -0.028    28.686     8.786
    10   7 N        2.766    -0.116    23.534     7.205
    11   6 C        3.776     0.088    19.152     6.235
    12   6 C        2.688     0.351    21.032     7.505
    13   8 O        1.659    -0.352    19.942     6.028
    14   8 O        0.856    -0.388    21.451     6.210
    15   7 N        2.769    -0.116    23.518     7.203
    16   6 C        2.761     0.273    22.381     7.747
    17   6 C        2.980    -0.017    28.416     8.744
    18   6 C        3.000    -0.038    28.941     8.825
    19   6 C        2.917     0.082    26.164     8.388
    20  35 Br       1.072    -0.153   189.279    22.183
    21   6 C        2.989    -0.033    28.805     8.804
    22   6 C        2.923    -0.024    28.604     8.771
    23   6 C        2.921    -0.026    28.640     8.776
    24   8 O        0.859    -0.406    21.802     6.260
    25   6 C        3.824     0.040    19.888     6.346
    26   6 C        2.974     0.007    27.856     8.657
    27   6 C        2.925    -0.027    28.686     8.783
    28   6 C        2.919    -0.025    28.631     8.775
    29   6 C        2.921    -0.027    28.669     8.780
    30   6 C        2.920    -0.025    28.617     8.772
    31   6 C        2.924    -0.029    28.716     8.788
    32   6 C        3.841     0.036    19.944     6.353
    33   6 C        2.970     0.002    27.968     8.675
    34   6 C        2.923    -0.034    28.850     8.808
    35   6 C        2.920    -0.028    28.701     8.785
    36   6 C        2.920    -0.030    28.760     8.794
    37   6 C        2.920    -0.027    28.673     8.781
    38   6 C        2.924    -0.036    28.907     8.817
    39   1 H        0.926     0.060     2.197     2.318
    40   1 H        0.926     0.054     2.266     2.354
    41   1 H        0.926     0.067     2.118     2.276
    42   1 H        0.926     0.067     2.118     2.276
    43   1 H        0.924     0.069     2.094     2.263
    44   1 H        0.804     0.346     0.598     1.215
    45   1 H        0.926     0.049     2.327     2.386
    46   1 H        0.926     0.062     2.172     2.305
    47   1 H        0.926     0.055     2.258     2.350
    48   1 H        0.926     0.055     2.257     2.349
    49   1 H        0.924     0.067     2.118     2.276
    50   1 H        0.925     0.019     2.747     2.592
    51   1 H        0.926     0.040     2.450     2.448
    52   1 H        0.926     0.040     2.453     2.449
    53   1 H        0.926     0.040     2.447     2.446
    54   1 H        0.926     0.036     2.502     2.473
    55   1 H        0.924     0.088     1.895     2.153
    56   1 H        0.926     0.035     2.518     2.482
    57   1 H        0.926     0.039     2.459     2.452
    58   1 H        0.926     0.038     2.474     2.459
    59   1 H        0.926     0.040     2.453     2.449
    60   1 H        0.926     0.036     2.504     2.475

Wiberg/Mayer (AO) data.
largest (>0.10) Wiberg bond orders for each atom

     #   Z sym  total        # sym  WBO       # sym  WBO       # sym  WBO
 ---------------------------------------------------------------------------
     1   8 O    2.040 --     2 C    1.712    10 N    0.183
     2   6 C    3.942 --     1 O    1.712    10 N    1.173     3 C    0.975
     3   6 C    3.987 --     9 C    1.398     4 C    1.393     2 C    0.975
                             6 C    0.105
     4   6 C    3.989 --     5 C    1.439     3 C    1.393    39 H    0.964
     5   6 C    3.990 --     4 C    1.439     6 C    1.438    40 H    0.967
                             9 C    0.107
     6   6 C    3.988 --     5 C    1.438     7 C    1.405    41 H    0.967
                             3 C    0.105
     7   6 C    3.943 --     9 C    1.416     6 C    1.405     8 Br   0.990
     8  35 Br   1.124 --     7 C    0.990
     9   6 C    3.988 --     7 C    1.416     3 C    1.398    42 H    0.965
                             5 C    0.107
    10   7 N    3.449 --     2 C    1.173    11 C    0.990    32 C    0.964
                             1 O    0.183
    11   6 C    3.974 --    10 N    0.990    15 N    0.986    43 H    0.930
                            12 C    0.907
    12   6 C    3.919 --    14 O    1.771    13 O    1.169    11 C    0.907
    13   8 O    2.234 --    12 C    1.169    44 H    0.854    14 O    0.184
    14   8 O    2.058 --    12 C    1.771    13 O    0.184
    15   7 N    3.466 --    16 C    1.209    11 C    0.986    25 C    0.953
                            24 O    0.195
    16   6 C    3.948 --    24 O    1.705    15 N    1.209    17 C    0.954
    17   6 C    3.987 --    23 C    1.411    18 C    1.398    16 C    0.954
                            21 C    0.108
    18   6 C    3.990 --    19 C    1.417    17 C    1.398    45 H    0.966
                            22 C    0.109
    19   6 C    3.943 --    18 C    1.417    21 C    1.405    20 Br   0.986
    20  35 Br   1.120 --    19 C    0.986
    21   6 C    3.989 --    22 C    1.442    19 C    1.405    46 H    0.967
                            17 C    0.108
    22   6 C    3.990 --    21 C    1.442    23 C    1.435    47 H    0.967
                            18 C    0.109
    23   6 C    3.990 --    22 C    1.435    17 C    1.411    48 H    0.968
    24   8 O    2.032 --    16 C    1.705    15 N    0.195
    25   6 C    3.959 --    26 C    0.989    15 N    0.953    49 H    0.952
                            32 C    0.951
    26   6 C    3.985 --    31 C    1.416    27 C    1.410    25 C    0.989
                            29 C    0.110
    27   6 C    3.992 --    28 C    1.448    26 C    1.410    50 H    0.969
                            30 C    0.112
    28   6 C    3.992 --    27 C    1.448    29 C    1.436    51 H    0.971
                            31 C    0.111
    29   6 C    3.990 --    30 C    1.442    28 C    1.436    52 H    0.971
                            26 C    0.110
    30   6 C    3.992 --    29 C    1.442    31 C    1.441    53 H    0.970
                            27 C    0.112
    31   6 C    3.990 --    30 C    1.441    26 C    1.416    54 H    0.968
                            28 C    0.111
    32   6 C    3.958 --    33 C    0.989    10 N    0.964    25 C    0.951
                            55 H    0.939
    33   6 C    3.985 --    34 C    1.417    38 C    1.406    32 C    0.989
                            36 C    0.109
    34   6 C    3.991 --    35 C    1.438    33 C    1.417    56 H    0.967
                            37 C    0.110
    35   6 C    3.992 --    36 C    1.444    34 C    1.438    57 H    0.971
                            38 C    0.112
    36   6 C    3.992 --    35 C    1.444    37 C    1.434    58 H    0.971
                            33 C    0.109
    37   6 C    3.991 --    38 C    1.450    36 C    1.434    59 H    0.970
                            34 C    0.110
    38   6 C    3.991 --    37 C    1.450    33 C    1.406    60 H    0.967
                            35 C    0.112
    39   1 H    0.996 --     4 C    0.964
    40   1 H    0.996 --     5 C    0.967
    41   1 H    0.995 --     6 C    0.967
    42   1 H    0.995 --     9 C    0.965
    43   1 H    0.995 --    11 C    0.930
    44   1 H    0.880 --    13 O    0.854
    45   1 H    0.998 --    18 C    0.966
    46   1 H    0.996 --    21 C    0.967
    47   1 H    0.997 --    22 C    0.967
    48   1 H    0.996 --    23 C    0.968
    49   1 H    0.995 --    25 C    0.952
    50   1 H    1.000 --    27 C    0.969
    51   1 H    0.998 --    28 C    0.971
    52   1 H    0.998 --    29 C    0.971
    53   1 H    0.998 --    30 C    0.970
    54   1 H    0.999 --    31 C    0.968
    55   1 H    0.992 --    32 C    0.939
    56   1 H    0.999 --    34 C    0.967
    57   1 H    0.998 --    35 C    0.971
    58   1 H    0.998 --    36 C    0.971
    59   1 H    0.998 --    37 C    0.970
    60   1 H    0.999 --    38 C    0.967
 ---------------------------------------------------------------------------

molecular dipole:
                 x           y           z       tot (Debye)
 q only:        0.323       0.274       2.102
   full:        0.507       0.265       3.048       7.883

           -------------------------------------------------
          | TOTAL ENERGY             -105.774084701302 Eh   |
          | GRADIENT NORM               0.000498861563 Eh/α |
          | HOMO-LUMO GAP               3.319165961516 eV   |
           -------------------------------------------------

 * finished run on 2022/03/16 at 23:24:51.860
