   * xtb version 6.3.3 (4ae9cef) compiled by 'conda@95abc7406d43' on 2020-10-14
          program call               : xtb acid_412.xyz --opt --chrg 0 --uhf 0 --gfn 2
          number of atoms            :                    74
          number of electrons        :                   214
          charge                     :                     0
          spin                       :                   0.0

   ID    Z sym.   atoms
    1    6 C      1, 3-16, 18, 20-27, 29, 30, 34-41
    2    8 O      2, 17, 28, 31, 32, 42
    3    7 N      19, 33
    4    1 H      43-74

          :  Hamiltonian                  GFN2-xTB          :
 * total energy  :  -119.3872953 Eh     change       -0.9670913E-09 Eh
 * total energy  :  -119.4019174 Eh     change       -0.1462210E-01 Eh
 * total energy  :  -119.4064086 Eh     change       -0.4491203E-02 Eh
 * total energy  :  -119.4077320 Eh     change       -0.1323435E-02 Eh
 * total energy  :  -119.4086453 Eh     change       -0.9132731E-03 Eh
 * total energy  :  -119.4093207 Eh     change       -0.6754463E-03 Eh
 * total energy  :  -119.4100525 Eh     change       -0.7317385E-03 Eh
 * total energy  :  -119.4108938 Eh     change       -0.8413884E-03 Eh
 * total energy  :  -119.4118172 Eh     change       -0.9233371E-03 Eh
 * total energy  :  -119.4126874 Eh     change       -0.8702326E-03 Eh
 * total energy  :  -119.4219484 Eh     change       -0.1480670E-04 Eh
 * total energy  :  -119.4219615 Eh     change       -0.1304059E-04 Eh
 * total energy  :  -119.4219721 Eh     change       -0.1068122E-04 Eh
 * total energy  :  -119.4219836 Eh     change       -0.1150286E-04 Eh
 * total energy  :  -119.4219973 Eh     change       -0.1362951E-04 Eh
 * total energy  :  -119.4220125 Eh     change       -0.1517988E-04 Eh
 * total energy  :  -119.4220265 Eh     change       -0.1404527E-04 Eh
 * total energy  :  -119.4220389 Eh     change       -0.1244833E-04 Eh
 * total energy  :  -119.4220425 Eh     change       -0.3603786E-05 Eh
   *** GEOMETRY OPTIMIZATION CONVERGED AFTER 94 ITERATIONS ***

 final structure:
================
74
 xtb: 6.3.3 (4ae9cef)
C        -1.18478404360774   -2.99752849606964   -2.01779832553620
O        -2.38052196586349   -2.67441564794686   -1.47232845536688
C        -3.55768678723837   -2.90373852727107   -2.20483150694101
C        -1.01885078712503   -3.62720532349253   -3.24485872994115
C         0.25242481734650   -3.91712982467536   -3.71097246729408
C         1.36332493661920   -3.58457668200941   -2.96158105774109
C         1.20454356104706   -2.95147230761808   -1.73755647790537
C        -0.05467787065752   -2.65031832838219   -1.25174839604213
C        -0.32015665665714   -1.91914268927880    0.04177973790269
C         0.91424826635383   -1.45743732825378    0.83589830778522
C         0.53962749666678   -1.27426969186755    2.28708845249118
C         0.13879506847156   -0.05791131371849    2.80517719150459
C        -0.23814126160178    0.06136098441493    4.13277671108741
C        -0.21379088161265   -1.05097731825450    4.94935226662846
C         0.18198381823335   -2.28095274080696    4.44948589801927
C         0.55399893303831   -2.40484036144775    3.11797668232280
O         0.93874736915772   -3.57012981778541    2.52347112780274
C         1.02722024486670   -4.73104905751736    3.31328179438956
N         1.23883939250845   -0.19255467516824    0.18829297832683
C         2.42854352208350    0.43190060595032    0.37552385977931
C         2.53317260178185    1.79342203533899   -0.23727262925424
C         1.71498322305148    2.83262769556372    0.19098618018618
C         1.85526857018879    4.09097815415472   -0.36625697125582
C         2.80701787310949    4.31721390344673   -1.34419695338025
C         3.64907161729286    3.29455395226089   -1.76492139598832
C         4.68001839269045    3.54354047425991   -2.82322219891746
C         3.50584643580696    2.03642654325151   -1.19651866555825
O         3.33038307126529   -0.07958095885177    1.00598292125743
C         0.14096975083405    0.22744230157042   -0.65975788097680
C         0.43262728127443    0.03060914431551   -2.16050151034475
O         1.72665473170155   -0.10033287300202   -2.42480091685081
O        -0.41978652977926    0.04612767580300   -3.00515368816762
N        -0.94078268813172   -0.63069184377450   -0.26335301395394
C        -2.07796726753402   -0.23241319042886    0.38499877262560
C        -2.44350195579262    1.20023139472850    0.19486689074196
C        -2.77037000094236    1.94423232321466    1.32277675188983
C        -3.11608831370058    3.28361593301345    1.21630990984056
C        -3.47014729285288    4.08241575947815    2.43320223920449
C        -3.14962890301214    3.86370182647596   -0.04716782941931
C        -2.84996391894161    3.12164947322877   -1.17629601774790
C        -2.49183245778320    1.78940373384900   -1.06446733742669
O        -2.74302089315127   -0.99617610265926    1.04985852770684
H        -4.36299494966297   -2.52846071640719   -1.57539365408363
H        -3.71390647136886   -3.97054573414819   -2.39696510915073
H        -3.55054801289564   -2.35692595326522   -3.15304241479099
H        -1.87452375834864   -3.89241458696404   -3.84497645149071
H         0.36726063348887   -4.40469545793868   -4.66777406783709
H         2.35455126355948   -3.81052144558654   -3.32430173902832
H         2.08385664698992   -2.68419693852152   -1.17317455571943
H        -1.02171343673277   -2.49008154910520    0.65599573194144
H         1.75668414728640   -2.14877583457349    0.77984983098854
H         0.12500219924788    0.81434597952449    2.16866092729056
H        -0.54736058551938    1.01916654969950    4.52287057258391
H        -0.50513742702145   -0.97113937765472    5.98605598051098
H         0.19054110150063   -3.13614657302684    5.10644096517309
H         0.05312331170797   -5.01179848143638    3.72612558449513
H         1.37155050918480   -5.51566254266091    2.64123839795220
H         1.74834552814972   -4.60958164755823    4.12770231244657
H         0.98892292614444    2.67116808280626    0.97563447274588
H         1.22047085044948    4.89867657206118   -0.03262016533672
H         2.90762451512571    5.30199590785339   -1.77753457268790
H         4.22658468910877    3.46346274990728   -3.81188930933602
H         5.09784573035039    4.54319066394041   -2.72781601461619
H         5.48482905247850    2.81593702770853   -2.75855512692477
H         4.15326136743843    1.22657055368554   -1.49784172348210
H        -0.11555100362171    1.28676162891194   -0.52921310698557
H         1.87329114771395   -0.22815613743518   -3.37632866628663
H        -2.74429193897856    1.45999590299362    2.28845038931021
H        -3.12988818117579    5.11117969690831    2.33518168123730
H        -3.03030670919020    3.64545394079463    3.32614385951305
H        -4.55248947200333    4.09819948589063    2.56313052074139
H        -3.41978904105059    4.90560787901120   -0.14557004935187
H        -2.89180552313663    3.58444079813616   -2.15124268371297
H        -2.26005160865925    1.20634474244035   -1.94276559159496

          :  Hamiltonian                  GFN2-xTB          :
         :: total energy            -119.422042548634 Eh    ::
         :: gradient norm              0.000241849452 Eh/a0 ::
         :: HOMO-LUMO gap              3.176896175501 eV    ::
         :: SCC energy              -121.174897319419 Eh    ::
         :: -> dispersion             -0.102881701827 Eh    ::
         :: repulsion energy           1.748706819631 Eh    ::

    * Orbital Energies and Occupations

         #    Occupation            Energy/Eh            Energy/eV
      -------------------------------------------------------------
         1        2.0000           -0.7676487             -20.8888
       ...           ...                  ...                  ...
        95        2.0000           -0.4233768             -11.5207
        96        2.0000           -0.4110224             -11.1845
        97        2.0000           -0.4095332             -11.1440
        98        2.0000           -0.4065946             -11.0640
        99        2.0000           -0.4054696             -11.0334
       100        2.0000           -0.4021282             -10.9425
       101        2.0000           -0.4003929             -10.8952
       102        2.0000           -0.3955578             -10.7637
       103        2.0000           -0.3914544             -10.6520
       104        2.0000           -0.3861401             -10.5074
       105        2.0000           -0.3844587             -10.4617
       106        2.0000           -0.3770893             -10.2611
       107        2.0000           -0.3750102             -10.2045 (HOMO)
       108                         -0.2582614              -7.0277 (LUMO)
       109                         -0.2462507              -6.7008
       110                         -0.2401402              -6.5345
       111                         -0.2279212              -6.2021
       112                         -0.2261760              -6.1546
       113                         -0.2253308              -6.1316
       114                         -0.2207932              -6.0081
       115                         -0.2154492              -5.8627
       116                         -0.2114570              -5.7540
       117                         -0.1961681              -5.3380
       118                         -0.1911963              -5.2027
       ...                                ...                  ...
       200                          0.6728943              18.3104
      -------------------------------------------------------------
                  HL-Gap            0.1167488 Eh            3.1769 eV

     #   Z          covCN         q      C6AA      Î±(0)
     1   6 C        2.871     0.145    24.836     8.169
     2   8 O        1.706    -0.255    18.225     5.764
     3   6 C        3.644     0.037    20.288     6.475
     4   6 C        2.916    -0.066    29.637     8.927
     5   6 C        2.920    -0.033    28.811     8.802
     6   6 C        2.918    -0.047    29.170     8.857
     7   6 C        2.921    -0.039    28.980     8.828
     8   6 C        2.971    -0.024    28.603     8.773
     9   6 C        3.868     0.041    19.852     6.336
    10   6 C        3.838     0.042    19.841     6.337
    11   6 C        2.975    -0.014    28.346     8.733
    12   6 C        2.923    -0.027    28.686     8.783
    13   6 C        2.918    -0.039    28.962     8.825
    14   6 C        2.921    -0.030    28.761     8.795
    15   6 C        2.917    -0.064    29.582     8.919
    16   6 C        2.870     0.140    24.941     8.187
    17   8 O        1.705    -0.273    18.521     5.811
    18   6 C        3.644     0.037    20.291     6.475
    19   7 N        2.770    -0.116    23.529     7.204
    20   6 C        2.760     0.273    22.380     7.747
    21   6 C        2.974    -0.017    28.441     8.748
    22   6 C        2.923    -0.037    28.931     8.821
    23   6 C        2.918    -0.031    28.766     8.795
    24   6 C        2.925    -0.039    28.971     8.827
    25   6 C        2.966     0.021    27.536     8.607
    26   6 C        3.758    -0.112    22.690     6.791
    27   6 C        2.929    -0.032    28.795     8.800
    28   8 O        0.859    -0.424    22.162     6.312
    29   6 C        3.793     0.088    19.134     6.229
    30   6 C        2.688     0.353    21.014     7.502
    31   8 O        1.659    -0.357    20.041     6.043
    32   8 O        0.856    -0.394    21.567     6.226
    33   7 N        2.780    -0.112    23.441     7.191
    34   6 C        2.763     0.276    22.338     7.740
    35   6 C        2.975    -0.020    28.511     8.759
    36   6 C        2.930    -0.033    28.818     8.804
    37   6 C        2.965     0.021    27.544     8.608
    38   6 C        3.758    -0.111    22.668     6.788
    39   6 C        2.925    -0.038    28.947     8.823
    40   6 C        2.918    -0.030    28.748     8.792
    41   6 C        2.920    -0.041    29.020     8.834
    42   8 O        0.859    -0.412    21.924     6.278
    43   1 H        0.925     0.070     2.085     2.258
    44   1 H        0.924     0.041     2.440     2.443
    45   1 H        0.924     0.044     2.400     2.423
    46   1 H        0.926     0.040     2.444     2.445
    47   1 H        0.926     0.036     2.497     2.471
    48   1 H        0.926     0.035     2.521     2.483
    49   1 H        0.926     0.047     2.363     2.404
    50   1 H        0.924     0.096     1.820     2.110
    51   1 H        0.924     0.085     1.926     2.171
    52   1 H        0.926     0.024     2.668     2.554
    53   1 H        0.926     0.034     2.537     2.491
    54   1 H        0.926     0.038     2.480     2.463
    55   1 H        0.926     0.040     2.453     2.449
    56   1 H        0.924     0.043     2.412     2.429
    57   1 H        0.925     0.062     2.172     2.305
    58   1 H        0.924     0.044     2.403     2.424
    59   1 H        0.926     0.024     2.675     2.557
    60   1 H        0.926     0.035     2.518     2.481
    61   1 H        0.926     0.036     2.501     2.473
    62   1 H        0.924     0.049     2.339     2.392
    63   1 H        0.925     0.048     2.340     2.392
    64   1 H        0.925     0.048     2.342     2.393
    65   1 H        0.926     0.047     2.362     2.403
    66   1 H        0.924     0.073     2.050     2.239
    67   1 H        0.804     0.343     0.605     1.221
    68   1 H        0.926     0.047     2.352     2.398
    69   1 H        0.925     0.046     2.377     2.411
    70   1 H        0.925     0.046     2.369     2.407
    71   1 H        0.924     0.053     2.287     2.365
    72   1 H        0.926     0.035     2.515     2.480
    73   1 H        0.926     0.036     2.504     2.475
    74   1 H        0.926     0.051     2.311     2.378

Wiberg/Mayer (AO) data.
largest (>0.10) Wiberg bond orders for each atom

     #   Z sym  total        # sym  WBO       # sym  WBO       # sym  WBO
 ---------------------------------------------------------------------------
     1   6 C    3.937 --     4 C    1.380     8 C    1.304     2 O    1.083
     2   8 O    2.260 --     1 C    1.083     3 C    0.982
     3   6 C    3.942 --     2 O    0.982    43 H    0.979    45 H    0.976
                            44 H    0.976
     4   6 C    3.987 --     5 C    1.432     1 C    1.380    46 H    0.965
     5   6 C    3.991 --     6 C    1.448     4 C    1.432    47 H    0.971
                             8 C    0.104
     6   6 C    3.990 --     5 C    1.448     7 C    1.415    48 H    0.971
     7   6 C    3.989 --     8 C    1.446     6 C    1.415    49 H    0.962
     8   6 C    3.982 --     7 C    1.446     1 C    1.304     9 C    0.989
                             5 C    0.104
     9   6 C    3.960 --     8 C    0.989    10 C    0.959    33 N    0.951
                            50 H    0.943
    10   6 C    3.963 --    11 C    0.988    19 N    0.961     9 C    0.959
                            51 H    0.942
    11   6 C    3.984 --    12 C    1.446    16 C    1.317    10 C    0.988
                            14 C    0.106
    12   6 C    3.991 --    11 C    1.446    13 C    1.417    52 H    0.965
                            15 C    0.101
    13   6 C    3.991 --    14 C    1.450    12 C    1.417    53 H    0.971
    14   6 C    3.991 --    13 C    1.450    15 C    1.429    54 H    0.971
                            11 C    0.106
    15   6 C    3.987 --    14 C    1.429    16 C    1.388    55 H    0.965
                            12 C    0.101
    16   6 C    3.935 --    15 C    1.388    11 C    1.317    17 O    1.060
    17   8 O    2.231 --    16 C    1.060    18 C    0.984
    18   6 C    3.945 --    17 O    0.984    57 H    0.980    58 H    0.977
                            56 H    0.976
    19   7 N    3.467 --    20 C    1.212    29 C    0.979    10 C    0.961
                            28 O    0.191
    20   6 C    3.946 --    28 O    1.689    19 N    1.212    21 C    0.962
    21   6 C    3.988 --    27 C    1.412    22 C    1.400    20 C    0.962
                            24 C    0.108
    22   6 C    3.991 --    23 C    1.440    21 C    1.400    59 H    0.966
                            25 C    0.107
    23   6 C    3.992 --    24 C    1.444    22 C    1.440    60 H    0.970
                            27 C    0.107
    24   6 C    3.991 --    23 C    1.444    25 C    1.408    61 H    0.970
                            21 C    0.108
    25   6 C    3.988 --    27 C    1.414    24 C    1.408    26 C    1.026
                            22 C    0.107
    26   6 C    3.995 --    25 C    1.026    64 H    0.983    63 H    0.980
                            62 H    0.967
    27   6 C    3.989 --    25 C    1.414    21 C    1.412    65 H    0.967
                            23 C    0.107
    28   8 O    2.013 --    20 C    1.689    19 N    0.191
    29   6 C    3.976 --    33 N    0.997    19 N    0.979    66 H    0.922
                            30 C    0.917
    30   6 C    3.919 --    32 O    1.767    31 O    1.159    29 C    0.917
    31   8 O    2.224 --    30 C    1.159    67 H    0.855    32 O    0.179
    32   8 O    2.052 --    30 C    1.767    31 O    0.179
    33   7 N    3.443 --    34 C    1.176    29 C    0.997     9 C    0.951
                            42 O    0.180
    34   6 C    3.942 --    42 O    1.705    33 N    1.176    35 C    0.978
    35   6 C    3.987 --    36 C    1.402    41 C    1.393    34 C    0.978
                            39 C    0.105
    36   6 C    3.989 --    37 C    1.418    35 C    1.402    68 H    0.966
                            40 C    0.107
    37   6 C    3.988 --    36 C    1.418    39 C    1.405    38 C    1.026
                            41 C    0.106
    38   6 C    3.995 --    37 C    1.026    70 H    0.983    69 H    0.980
                            71 H    0.966
    39   6 C    3.991 --    40 C    1.445    37 C    1.405    72 H    0.970
                            35 C    0.105
    40   6 C    3.992 --    39 C    1.445    41 C    1.441    73 H    0.970
                            36 C    0.107
    41   6 C    3.990 --    40 C    1.441    35 C    1.393    74 H    0.965
                            37 C    0.106
    42   8 O    2.030 --    34 C    1.705    33 N    0.180
    43   1 H    0.995 --     3 C    0.979
    44   1 H    0.998 --     3 C    0.976
    45   1 H    0.998 --     3 C    0.976
    46   1 H    0.998 --     4 C    0.965
    47   1 H    0.998 --     5 C    0.971
    48   1 H    0.998 --     6 C    0.971
    49   1 H    0.997 --     7 C    0.962
    50   1 H    0.990 --     9 C    0.943
    51   1 H    0.992 --    10 C    0.942
    52   1 H    0.999 --    12 C    0.965
    53   1 H    0.999 --    13 C    0.971
    54   1 H    0.998 --    14 C    0.971
    55   1 H    0.998 --    15 C    0.965
    56   1 H    0.998 --    18 C    0.976
    57   1 H    0.996 --    18 C    0.980
    58   1 H    0.998 --    18 C    0.977
    59   1 H    0.999 --    22 C    0.966
    60   1 H    0.998 --    23 C    0.970
    61   1 H    0.998 --    24 C    0.970
    62   1 H    0.998 --    26 C    0.967
    63   1 H    0.997 --    26 C    0.980
    64   1 H    0.997 --    26 C    0.983
    65   1 H    0.998 --    27 C    0.967
    66   1 H    0.995 --    29 C    0.922
    67   1 H    0.881 --    31 O    0.855
    68   1 H    0.998 --    36 C    0.966
    69   1 H    0.998 --    38 C    0.980
    70   1 H    0.998 --    38 C    0.983
    71   1 H    0.997 --    38 C    0.966
    72   1 H    0.998 --    39 C    0.970
    73   1 H    0.998 --    40 C    0.970
    74   1 H    0.997 --    41 C    0.965
 ---------------------------------------------------------------------------

molecular dipole:
                 x           y           z       tot (Debye)
 q only:       -0.064       0.314      -0.899
   full:       -0.121       0.455      -1.121       3.089

           -------------------------------------------------
          | TOTAL ENERGY             -119.422042548634 Eh   |
          | GRADIENT NORM               0.000241849452 Eh/Î± |
          | HOMO-LUMO GAP               3.176896175501 eV   |
           -------------------------------------------------

 * finished run on 2022/03/17 at 00:53:02.825
