   * xtb version 6.3.3 (4ae9cef) compiled by 'conda@95abc7406d43' on 2020-10-14
          program call               : xtb acid_300.xyz --opt --chrg 0 --uhf 0 --gfn 2
          number of atoms            :                    66
          number of electrons        :                   206
          charge                     :                     0
          spin                       :                   0.0

   ID    Z sym.   atoms
    1    6 C      1-22, 24-26, 28, 29, 31, 32, 36-38, 40, 41
    2    7 N      23, 35
    3    8 O      27, 30, 33, 34, 39, 42
    4    1 H      43-66

          :  Hamiltonian                  GFN2-xTB          :
 * total energy  :  -115.2937610 Eh     change       -0.3932143E-08 Eh
 * total energy  :  -115.3106881 Eh     change       -0.1692705E-01 Eh
 * total energy  :  -115.3159858 Eh     change       -0.5297727E-02 Eh
 * total energy  :  -115.3174527 Eh     change       -0.1466909E-02 Eh
 * total energy  :  -115.3183128 Eh     change       -0.8600543E-03 Eh
 * total energy  :  -115.3187078 Eh     change       -0.3950187E-03 Eh
 * total energy  :  -115.3190852 Eh     change       -0.3773680E-03 Eh
 * total energy  :  -115.3194408 Eh     change       -0.3556064E-03 Eh
 * total energy  :  -115.3197745 Eh     change       -0.3337754E-03 Eh
 * total energy  :  -115.3200657 Eh     change       -0.2911372E-03 Eh
 * total energy  :  -115.3214891 Eh     change       -0.4547636E-04 Eh
 * total energy  :  -115.3215132 Eh     change       -0.2401979E-04 Eh
 * total energy  :  -115.3215268 Eh     change       -0.1366580E-04 Eh
 * total energy  :  -115.3215505 Eh     change       -0.2364260E-04 Eh
 * total energy  :  -115.3215590 Eh     change       -0.8494766E-05 Eh
 * total energy  :  -115.3215789 Eh     change       -0.1997484E-04 Eh
 * total energy  :  -115.3215842 Eh     change       -0.5291998E-05 Eh
 * total energy  :  -115.3215935 Eh     change       -0.9303416E-05 Eh
 * total energy  :  -115.3215983 Eh     change       -0.4732470E-05 Eh
   *** GEOMETRY OPTIMIZATION CONVERGED AFTER 28 ITERATIONS ***

 final structure:
================
66
 xtb: 6.3.3 (4ae9cef)
C        -4.01766031372314   -2.46651123480191   -2.44619678498601
C        -4.74945655313601   -1.32677658284457   -2.61084503404250
C        -4.37676187737133   -0.16361106708572   -1.92275829203576
C        -3.27113152791962   -0.14976770235205   -1.11910334025308
C        -2.45452623193660   -1.29442256274825   -0.95947325914972
C        -2.87477985838713   -2.48963378117805   -1.61732878838266
C        -2.16483855023922   -3.69147130709722   -1.42979424422839
C        -1.08105306061855   -3.72921351315883   -0.60088222665332
C        -0.64241327651887   -2.55514170910735    0.01750825513263
C        -1.27252446454447   -1.34472864143897   -0.17111621066691
C        -0.56177685173745   -0.18166624127474    0.50263336846192
C         0.87391979046344   -0.01668222949293   -0.08721282606178
C         1.94517615012678   -0.18051421578863    0.96343468406868
C         1.99000297870587    0.75410053530138    1.96976239839438
C         2.93821811419214    0.68124898411354    2.99582919668515
C         3.84315916033156   -0.34090169607681    3.01229099648128
C         3.83732094765061   -1.32085378214409    1.99935242519081
C         2.88102931031221   -1.24824305885599    0.94668519482991
C         2.92779025336492   -2.24482385496686   -0.05380682885782
C         3.85014455524499   -3.25233653135623   -0.00952213740156
C         4.78192855565362   -3.32571790133312    1.03555355422691
C         4.77488079611263   -2.37571123868214    2.01541947046697
N         0.89409781170968    1.34323665133658   -0.61198107089848
C         1.93985761640389    1.74671996240408   -1.38577829953685
C         1.81029810913179    3.10354220560882   -1.96388423359051
C         1.54840064447270    4.29253657875410   -1.33998570262968
O         1.59152755360422    5.30370991964380   -2.21417665320779
C         1.87886775499037    4.78204842743255   -3.41637736146816
C         2.03750226955968    3.43556539240429   -3.32940786428792
O         2.90966393322923    1.04100760534245   -1.56704622903374
C        -0.43150442726118    1.90547514470889   -0.61706557458286
C        -1.09166401907031    1.75954636177909   -2.00376986576879
O        -0.68423896676927    0.66013587218962   -2.63439117965297
O        -1.85553700487054    2.55240030193583   -2.47434227809527
N        -1.13236010765363    1.14650418167037    0.39470805486388
C        -1.71038723183886    1.83916463056405    1.43317524940354
C        -2.30804858213492    1.03686575708521    2.51200108802899
C        -2.90035769947800   -0.19938452662393    2.48886074892382
O        -3.39203779180794   -0.50678528385493    3.69156060798887
C        -3.12253369413290    0.52316467976937    4.51433822277709
C        -2.46811511041222    1.50763463056642    3.84915929561958
O        -1.76087272604459    3.05216307720998    1.42951495003002
H        -4.30584097545585   -3.38188032166447   -2.94260083544301
H        -5.62077878621663   -1.31750049603317   -3.24829445159387
H        -4.97170196864513    0.73132904530198   -2.02370919650813
H        -3.03898550146862    0.75417904718395   -0.58472217412986
H        -2.50416111142414   -4.58027463156974   -1.94138800829982
H        -0.54626693974281   -4.65043559196520   -0.42644851316774
H         0.22953740063643   -2.59927943684160    0.65423972405200
H        -0.48043235066962   -0.42870400312430    1.56865832493416
H         1.02613465828099   -0.70761050761918   -0.91999077095068
H         1.28172390531801    1.57130540829934    1.96997889274434
H         2.94431260906831    1.43733248454713    3.76672448122056
H         4.58086242914650   -0.41262233048481    3.79849292768780
H         2.23774112583618   -2.21458893289297   -0.88182629426338
H         3.86815866999013   -4.00002878806759   -0.78899196255245
H         5.50319256568777   -4.12939659526057    1.05314972451007
H         5.49238972280454   -2.41237075691902    2.82280931029016
H         1.35660087009154    4.53686981268682   -0.31369837942103
H         1.94599256215524    5.45905786149979   -4.24433614640926
H         2.28042685306766    2.74992790604164   -4.11385862057996
H        -0.46767322431269    2.96735063073725   -0.34043902828713
H        -1.10599466717327    0.58451374776862   -3.50506292668111
H        -3.05708256599877   -0.90610329274908    1.69818220889691
H        -3.44763928808275    0.43736659155411    5.53174336459861
H        -2.12972037054112    2.44969091201511    4.22584487325290

          :  Hamiltonian                  GFN2-xTB          :
         :: total energy            -115.321598270823 Eh    ::
         :: gradient norm              0.000962204595 Eh/a0 ::
         :: HOMO-LUMO gap              2.829972917509 eV    ::
         :: SCC energy              -117.046202414306 Eh    ::
         :: -> dispersion             -0.098136816079 Eh    ::
         :: repulsion energy           1.721412028292 Eh    ::

    * Orbital Energies and Occupations

         #    Occupation            Energy/Eh            Energy/eV
      -------------------------------------------------------------
         1        2.0000           -0.7703008             -20.9610
       ...           ...                  ...                  ...
        91        2.0000           -0.4272385             -11.6258
        92        2.0000           -0.4245194             -11.5518
        93        2.0000           -0.4206542             -11.4466
        94        2.0000           -0.4158014             -11.3145
        95        2.0000           -0.4145327             -11.2800
        96        2.0000           -0.4136280             -11.2554
        97        2.0000           -0.4055258             -11.0349
        98        2.0000           -0.4048281             -11.0159
        99        2.0000           -0.4038729             -10.9899
       100        2.0000           -0.3988951             -10.8545
       101        2.0000           -0.3955839             -10.7644
       102        2.0000           -0.3893605             -10.5950
       103        2.0000           -0.3799030             -10.3377 (HOMO)
       104                         -0.2759034              -7.5077 (LUMO)
       105                         -0.2660394              -7.2393
       106                         -0.2630722              -7.1586
       107                         -0.2584106              -7.0317
       108                         -0.2428945              -6.6095
       109                         -0.2391670              -6.5081
       110                         -0.2320170              -6.3135
       111                         -0.2209350              -6.0119
       112                         -0.2105676              -5.7298
       113                         -0.2055807              -5.5941
       114                         -0.1944246              -5.2906
       ...                                ...                  ...
       192                          0.6936269              18.8745
      -------------------------------------------------------------
                  HL-Gap            0.1039996 Eh            2.8300 eV

     #   Z          covCN         q      C6AA      Î±(0)
     1   6 C        2.922    -0.035    28.874     8.812
     2   6 C        2.914    -0.029    28.730     8.789
     3   6 C        2.917    -0.028    28.709     8.786
     4   6 C        2.917    -0.042    29.045     8.838
     5   6 C        2.980     0.009    27.820     8.652
     6   6 C        2.989     0.013    27.715     8.636
     7   6 C        2.922    -0.036    28.901     8.816
     8   6 C        2.913    -0.029    28.735     8.790
     9   6 C        2.931    -0.041    29.020     8.835
    10   6 C        2.962    -0.009    28.250     8.718
    11   6 C        3.827     0.034    19.977     6.360
    12   6 C        3.830     0.045    19.798     6.331
    13   6 C        2.968     0.001    27.992     8.678
    14   6 C        2.924    -0.035    28.876     8.812
    15   6 C        2.913    -0.030    28.756     8.793
    16   6 C        2.921    -0.035    28.873     8.812
    17   6 C        2.989     0.016    27.648     8.625
    18   6 C        2.982     0.015    27.676     8.630
    19   6 C        2.917    -0.030    28.756     8.793
    20   6 C        2.917    -0.028    28.693     8.784
    21   6 C        2.915    -0.028    28.711     8.787
    22   6 C        2.921    -0.033    28.833     8.806
    23   7 N        2.764    -0.123    23.678     7.227
    24   6 C        2.760     0.274    22.376     7.746
    25   6 C        3.075    -0.052    29.207     8.861
    26   6 C        3.077     0.068    26.406     8.425
    27   8 O        1.731    -0.155    16.635     5.507
    28   6 C        3.075     0.069    26.380     8.421
    29   6 C        3.019    -0.056    29.357     8.888
    30   8 O        0.859    -0.416    22.009     6.290
    31   6 C        3.775     0.086    19.177     6.240
    32   6 C        2.687     0.352    21.021     7.503
    33   8 O        1.659    -0.359    20.078     6.049
    34   8 O        0.856    -0.379    21.275     6.184
    35   7 N        2.760    -0.122    23.651     7.223
    36   6 C        2.763     0.272    22.405     7.752
    37   6 C        3.073    -0.044    29.014     8.832
    38   6 C        3.067     0.071    26.340     8.416
    39   8 O        1.731    -0.158    16.673     5.513
    40   6 C        3.070     0.068    26.400     8.425
    41   6 C        3.014    -0.052    29.262     8.873
    42   8 O        0.859    -0.417    22.022     6.292
    43   1 H        0.926     0.036     2.503     2.474
    44   1 H        0.926     0.036     2.504     2.475
    45   1 H        0.926     0.040     2.443     2.444
    46   1 H        0.926     0.036     2.509     2.477
    47   1 H        0.926     0.038     2.469     2.457
    48   1 H        0.926     0.039     2.468     2.457
    49   1 H        0.926     0.035     2.519     2.482
    50   1 H        0.924     0.055     2.262     2.352
    51   1 H        0.924     0.067     2.119     2.277
    52   1 H        0.925     0.028     2.615     2.529
    53   1 H        0.926     0.035     2.516     2.480
    54   1 H        0.926     0.037     2.495     2.470
    55   1 H        0.926     0.036     2.509     2.477
    56   1 H        0.926     0.033     2.540     2.492
    57   1 H        0.926     0.033     2.541     2.493
    58   1 H        0.926     0.034     2.525     2.485
    59   1 H        0.926     0.059     2.214     2.327
    60   1 H        0.926     0.059     2.208     2.324
    61   1 H        0.927     0.052     2.294     2.368
    62   1 H        0.923     0.100     1.788     2.091
    63   1 H        0.804     0.339     0.614     1.230
    64   1 H        0.926     0.059     2.207     2.323
    65   1 H        0.926     0.061     2.187     2.312
    66   1 H        0.927     0.065     2.146     2.291

Wiberg/Mayer (AO) data.
largest (>0.10) Wiberg bond orders for each atom

     #   Z sym  total        # sym  WBO       # sym  WBO       # sym  WBO
 ---------------------------------------------------------------------------
     1   6 C    3.991 --     2 C    1.559     6 C    1.277    43 H    0.968
                             4 C    0.118
     2   6 C    3.992 --     1 C    1.559     3 C    1.320    44 H    0.970
     3   6 C    3.991 --     4 C    1.557     2 C    1.320    45 H    0.970
     4   6 C    3.992 --     3 C    1.557     5 C    1.278    46 H    0.959
                             1 C    0.118
     5   6 C    3.988 --     4 C    1.278    10 C    1.263     6 C    1.245
     6   6 C    3.990 --     7 C    1.287     1 C    1.277     5 C    1.245
     7   6 C    3.990 --     8 C    1.543     6 C    1.287    47 H    0.967
                            10 C    0.116
     8   6 C    3.991 --     7 C    1.543     9 C    1.338    48 H    0.970
     9   6 C    3.990 --    10 C    1.509     8 C    1.338    49 H    0.966
    10   6 C    3.983 --     9 C    1.509     5 C    1.263    11 C    0.984
                             7 C    0.116
    11   6 C    3.963 --    10 C    0.984    35 N    0.974    50 H    0.947
                            12 C    0.943
    12   6 C    3.961 --    13 C    0.990    23 N    0.957    51 H    0.947
                            11 C    0.943
    13   6 C    3.984 --    14 C    1.518    18 C    1.258    12 C    0.990
                            16 C    0.115
    14   6 C    3.991 --    13 C    1.518    15 C    1.332    52 H    0.968
    15   6 C    3.992 --    16 C    1.548    14 C    1.332    53 H    0.970
    16   6 C    3.989 --    15 C    1.548    17 C    1.283    54 H    0.968
                            13 C    0.115
    17   6 C    3.990 --    16 C    1.283    22 C    1.278    18 C    1.250
    18   6 C    3.988 --    19 C    1.281    13 C    1.258    17 C    1.250
    19   6 C    3.992 --    20 C    1.556    18 C    1.281    55 H    0.959
                            22 C    0.118
    20   6 C    3.990 --    19 C    1.556    21 C    1.320    56 H    0.971
    21   6 C    3.992 --    22 C    1.559    20 C    1.320    57 H    0.971
    22   6 C    3.991 --    21 C    1.559    17 C    1.278    58 H    0.968
                            19 C    0.118
    23   7 N    3.446 --    24 C    1.192    31 C    0.983    12 C    0.957
                            30 O    0.185
    24   6 C    3.950 --    30 O    1.693    23 N    1.192    25 C    0.986
    25   6 C    3.978 --    26 C    1.553    29 C    1.258    24 C    0.986
    26   6 C    3.912 --    25 C    1.553    27 O    1.157    59 H    0.964
                            28 C    0.146
    27   8 O    2.475 --    26 C    1.157    28 C    1.140
    28   6 C    3.907 --    29 C    1.616    27 O    1.140    60 H    0.966
                            26 C    0.146
    29   6 C    3.983 --    28 C    1.616    25 C    1.258    61 H    0.974
    30   8 O    2.023 --    24 C    1.693    23 N    0.185
    31   6 C    3.963 --    23 N    0.983    35 N    0.982    62 H    0.935
                            32 C    0.910
    32   6 C    3.918 --    34 O    1.787    33 O    1.152    31 C    0.910
    33   8 O    2.221 --    32 C    1.152    63 H    0.859    34 O    0.183
    34   8 O    2.068 --    32 C    1.787    33 O    0.183
    35   7 N    3.443 --    36 C    1.161    31 C    0.982    11 C    0.974
                            42 O    0.176
    36   6 C    3.948 --    42 O    1.688    35 N    1.161    37 C    1.017
    37   6 C    3.978 --    38 C    1.532    41 C    1.248    36 C    1.017
    38   6 C    3.914 --    37 C    1.532    39 O    1.167    64 H    0.961
                            40 C    0.140
    39   8 O    2.474 --    38 C    1.167    40 C    1.129
    40   6 C    3.905 --    41 C    1.630    39 O    1.129    65 H    0.966
                            38 C    0.140
    41   6 C    3.983 --    40 C    1.630    37 C    1.248    66 H    0.972
    42   8 O    2.028 --    36 C    1.688    35 N    0.176
    43   1 H    0.998 --     1 C    0.968
    44   1 H    0.998 --     2 C    0.970
    45   1 H    0.998 --     3 C    0.970
    46   1 H    0.998 --     4 C    0.959
    47   1 H    0.997 --     7 C    0.967
    48   1 H    0.997 --     8 C    0.970
    49   1 H    0.998 --     9 C    0.966
    50   1 H    0.996 --    11 C    0.947
    51   1 H    0.995 --    12 C    0.947
    52   1 H    0.999 --    14 C    0.968
    53   1 H    0.998 --    15 C    0.970
    54   1 H    0.998 --    16 C    0.968
    55   1 H    0.998 --    19 C    0.959
    56   1 H    0.998 --    20 C    0.971
    57   1 H    0.998 --    21 C    0.971
    58   1 H    0.998 --    22 C    0.968
    59   1 H    0.997 --    26 C    0.964
    60   1 H    0.996 --    28 C    0.966
    61   1 H    0.997 --    29 C    0.974
    62   1 H    0.990 --    31 C    0.935
    63   1 H    0.884 --    33 O    0.859
    64   1 H    0.996 --    38 C    0.961
    65   1 H    0.996 --    40 C    0.966
    66   1 H    0.996 --    41 C    0.972
 ---------------------------------------------------------------------------

molecular dipole:
                 x           y           z       tot (Debye)
 q only:       -0.458      -1.799       0.302
   full:       -0.600      -1.796       0.197       4.840

           -------------------------------------------------
          | TOTAL ENERGY             -115.321598270823 Eh   |
          | GRADIENT NORM               0.000962204595 Eh/Î± |
          | HOMO-LUMO GAP               2.829972917509 eV   |
           -------------------------------------------------

 * finished run on 2022/03/16 at 23:34:12.281
