   * xtb version 6.3.3 (4ae9cef) compiled by 'conda@95abc7406d43' on 2020-10-14
          program call               : xtb acid_399.xyz --opt --chrg 0 --uhf 0 --gfn 2
          number of atoms            :                    72
          number of electrons        :                   226
          charge                     :                     0
          spin                       :                   0.0

   ID    Z sym.   atoms
    1    6 C      1-22, 24-28, 30, 31, 33, 34, 38-42, 44, 45
    2    7 N      23, 37
    3   53 I      29, 43
    4    8 O      32, 35, 36, 46
    5    1 H      47-72

          :  Hamiltonian                  GFN2-xTB          :
 * total energy  :  -124.3911253 Eh     change       -0.4244200E-08 Eh
 * total energy  :  -124.4082527 Eh     change       -0.1712735E-01 Eh
 * total energy  :  -124.4127573 Eh     change       -0.4504573E-02 Eh
 * total energy  :  -124.4138042 Eh     change       -0.1046916E-02 Eh
 * total energy  :  -124.4144508 Eh     change       -0.6466429E-03 Eh
 * total energy  :  -124.4147207 Eh     change       -0.2698444E-03 Eh
 * total energy  :  -124.4149590 Eh     change       -0.2383151E-03 Eh
 * total energy  :  -124.4152206 Eh     change       -0.2615995E-03 Eh
 * total energy  :  -124.4155320 Eh     change       -0.3114151E-03 Eh
 * total energy  :  -124.4158626 Eh     change       -0.3306262E-03 Eh
 * total energy  :  -124.4185111 Eh     change       -0.4090825E-04 Eh
 * total energy  :  -124.4185524 Eh     change       -0.4132897E-04 Eh
 * total energy  :  -124.4185963 Eh     change       -0.4391871E-04 Eh
 * total energy  :  -124.4186246 Eh     change       -0.2832484E-04 Eh
 * total energy  :  -124.4186370 Eh     change       -0.1241077E-04 Eh
 * total energy  :  -124.4186574 Eh     change       -0.2033038E-04 Eh
 * total energy  :  -124.4186677 Eh     change       -0.1036827E-04 Eh
 * total energy  :  -124.4186756 Eh     change       -0.7848823E-05 Eh
 * total energy  :  -124.4186761 Eh     change       -0.5302541E-06 Eh
   *** GEOMETRY OPTIMIZATION CONVERGED AFTER 44 ITERATIONS ***

 final structure:
================
72
 xtb: 6.3.3 (4ae9cef)
C         1.49370714152320   -2.98569421561078    1.96653778964898
C         2.32607261233667   -3.36671681808349    2.97889920811612
C         3.45886124635452   -2.59602724580778    3.31497296637732
C         4.32966123601621   -2.94967348816489    4.36589379307268
C         5.42345540015876   -2.18128698927016    4.65229473584029
C         5.69561905551094   -1.02586941938040    3.90259665807822
C         4.87136926956399   -0.65775452335261    2.87607054352174
C         3.73559978829813   -1.43015685419835    2.55564885341780
C         2.86351339847811   -1.07089617070212    1.50732126830182
C         1.74465843621125   -1.81051735183831    1.22963355978647
C         0.79134925899401   -1.42017482941917    0.12703572974403
C        -0.69663134594848   -1.38844475107917    0.56630173088173
C        -1.59749542911498   -1.92283947370987   -0.51884801209148
C        -1.88738948168341   -1.16563297284641   -1.62381724247849
C        -2.69816144634168   -1.66648159678229   -2.66017025454459
C        -3.00654360833609   -0.90242629141090   -3.80488365402691
C        -3.79358485883820   -1.41801123778217   -4.79581062079829
C        -4.31054715723527   -2.71869835916522   -4.68610273172445
C        -4.03112872762873   -3.48295450734178   -3.58803521015639
C        -3.21941685972536   -2.98160715575736   -2.54974373491509
C        -2.90794120163355   -3.74001811650909   -1.40240601719103
C        -2.11789521240761   -3.22546749997674   -0.41500912262165
N        -0.94136520007782    0.02979891773357    0.79224062319414
C        -2.10861014862313    0.49771935147768    1.29998490802234
C        -2.16632228454622    1.99760991430430    1.34203335834084
C        -2.03032260346477    2.67614719860068    2.54441122464145
C        -2.05476409794320    4.05999950099227    2.57182194748264
C        -2.22323551045555    4.75912747725366    1.39007582776758
I        -2.22985977058494    6.87292547020236    1.42062476860769
C        -2.38544234994613    4.09704251963934    0.18552109897065
C        -2.35702981448926    2.71455331112513    0.16528060467498
O        -3.00672713747863   -0.22743201906564    1.66079391536397
C         0.21193683064228    0.82201624746156    0.45049365970222
C         0.99827917682605    1.26814731396319    1.70484371762916
O         0.58664042886563    0.66086678236141    2.80695400920115
O         1.87186779836394    2.09005178942748    1.67279499337371
N         1.01149819263630   -0.06336435233185   -0.35505987186653
C         1.36081734774478    0.14292012014600   -1.66535514443224
C         1.18102487094282    1.53009406975756   -2.18300497126958
C         0.50635995824491    1.66927759629139   -3.39306011525158
C         0.26138309356631    2.92358521803623   -3.91953526517463
C         0.71298463806136    4.04179707312332   -3.23906363314669
I         0.30284312898030    5.96802646377796   -4.01171172637004
C         1.42275019452706    3.91939808088171   -2.05724205521059
C         1.65747324873115    2.66228512099760   -1.52815349809115
O         1.76971073521260   -0.76315968974487   -2.35699741202297
H         0.64074062297154   -3.59612352269435    1.71001271300765
H         2.12839473227409   -4.27032606044688    3.53723275679959
H         4.11543591279436   -3.84000947713954    4.93963783740464
H         6.08792891760172   -2.45747928326967    5.45771010185582
H         6.56380028754884   -0.43064091215124    4.14441974358853
H         5.07339485916685    0.23142830860428    2.29636668594047
H         3.10437872411175   -0.19724693883610    0.91925631894786
H         0.93242321907844   -2.09862742826970   -0.72383037951207
H        -0.86331640361954   -1.93466694953203    1.49903526712857
H        -1.49894115005308   -0.16003222632801   -1.71933386949774
H        -2.60890529633089    0.10018197196944   -3.88378194648243
H        -4.02525900831349   -0.82879879686229   -5.67098544723167
H        -4.93197458525855   -3.10874409621331   -5.47867432869819
H        -4.42782241524308   -4.48407575558614   -3.49838488678245
H        -3.31008482376050   -4.73899464081886   -1.31581136784241
H        -1.89142881487829   -3.81184369071208    0.46331803739557
H        -1.90503024947274    2.11814906591459    3.45993237284967
H        -1.94283355018577    4.58567661450992    3.50752741748492
H        -2.53136100226644    4.65066988671178   -0.72940343213696
H        -2.49486797804363    2.18999921523225   -0.76979492946651
H        -0.05012080039041    1.73284403490619   -0.10262049235909
H         1.11525892370086    0.93062161904558    3.57626492840463
H         0.17167438564913    0.78355369804812   -3.91260843905504
H        -0.27407795314824    3.02673356383737   -4.85067522123022
H         1.78908938291936    4.79466560790789   -1.54369163368958
H         2.21448182285136    2.57100758394459   -0.60819000719285

          :  Hamiltonian                  GFN2-xTB          :
         :: total energy            -124.418676126861 Eh    ::
         :: gradient norm              0.000705434655 Eh/a0 ::
         :: HOMO-LUMO gap              2.845712924707 eV    ::
         :: SCC energy              -126.341840273192 Eh    ::
         :: -> dispersion             -0.112183362016 Eh    ::
         :: repulsion energy           1.919844056406 Eh    ::

    * Orbital Energies and Occupations

         #    Occupation            Energy/Eh            Energy/eV
      -------------------------------------------------------------
         1        2.0000           -0.7901652             -21.5015
       ...           ...                  ...                  ...
       101        2.0000           -0.4277600             -11.6399
       102        2.0000           -0.4256319             -11.5820
       103        2.0000           -0.4197378             -11.4216
       104        2.0000           -0.4183452             -11.3838
       105        2.0000           -0.4182565             -11.3813
       106        2.0000           -0.4145674             -11.2810
       107        2.0000           -0.4142945             -11.2735
       108        2.0000           -0.4117228             -11.2035
       109        2.0000           -0.4105388             -11.1713
       110        2.0000           -0.4089192             -11.1273
       111        2.0000           -0.4070020             -11.0751
       112        2.0000           -0.3937408             -10.7142
       113        2.0000           -0.3887617             -10.5787 (HOMO)
       114                         -0.2841837              -7.7330 (LUMO)
       115                         -0.2789385              -7.5903
       116                         -0.2741167              -7.4591
       117                         -0.2709782              -7.3737
       118                         -0.2680243              -7.2933
       119                         -0.2627573              -7.1500
       120                         -0.2613847              -7.1126
       121                         -0.2451281              -6.6703
       122                         -0.2394209              -6.5150
       123                         -0.2357568              -6.4153
       124                         -0.2356398              -6.4121
       ...                                ...                  ...
       220                          0.6874055              18.7053
      -------------------------------------------------------------
                  HL-Gap            0.1045780 Eh            2.8457 eV

     #   Z          covCN         q      C6AA      Î±(0)
     1   6 C        2.920    -0.038    28.940     8.822
     2   6 C        2.917    -0.033    28.830     8.805
     3   6 C        2.987     0.012    27.743     8.640
     4   6 C        2.918    -0.034    28.851     8.808
     5   6 C        2.916    -0.029    28.715     8.787
     6   6 C        2.916    -0.028    28.705     8.786
     7   6 C        2.918    -0.035    28.870     8.811
     8   6 C        2.987     0.013    27.713     8.635
     9   6 C        2.923    -0.043    29.057     8.840
    10   6 C        2.967     0.000    28.018     8.682
    11   6 C        3.845     0.038    19.910     6.347
    12   6 C        3.825     0.041    19.866     6.342
    13   6 C        2.970     0.006    27.896     8.663
    14   6 C        2.923    -0.034    28.851     8.808
    15   6 C        2.987     0.016    27.652     8.626
    16   6 C        2.918    -0.033    28.817     8.803
    17   6 C        2.916    -0.027    28.688     8.783
    18   6 C        2.916    -0.028    28.697     8.785
    19   6 C        2.918    -0.032    28.802     8.801
    20   6 C        2.988     0.015    27.661     8.627
    21   6 C        2.918    -0.031    28.769     8.796
    22   6 C        2.919    -0.032    28.797     8.800
    23   7 N        2.770    -0.116    23.526     7.204
    24   6 C        2.760     0.274    22.376     7.746
    25   6 C        2.977    -0.020    28.494     8.756
    26   6 C        2.925    -0.025    28.618     8.773
    27   6 C        3.049    -0.030    28.709     8.788
    28   6 C        2.958     0.060    26.653     8.468
    29  53 I        1.225    -0.115   380.463    33.671
    30   6 C        3.050    -0.031    28.733     8.791
    31   6 C        2.926    -0.030    28.738     8.791
    32   8 O        0.859    -0.408    21.840     6.266
    33   6 C        3.776     0.090    19.123     6.231
    34   6 C        2.687     0.353    21.012     7.502
    35   8 O        1.659    -0.351    19.919     6.025
    36   8 O        0.856    -0.390    21.479     6.214
    37   7 N        2.766    -0.118    23.567     7.210
    38   6 C        2.765     0.273    22.381     7.748
    39   6 C        2.973    -0.019    28.479     8.754
    40   6 C        2.929    -0.020    28.500     8.755
    41   6 C        3.047    -0.031    28.734     8.792
    42   6 C        2.957     0.061    26.641     8.466
    43  53 I        1.221    -0.117   380.627    33.679
    44   6 C        3.049    -0.031    28.720     8.789
    45   6 C        2.922    -0.034    28.852     8.809
    46   8 O        0.859    -0.406    21.802     6.260
    47   1 H        0.926     0.035     2.522     2.483
    48   1 H        0.926     0.040     2.446     2.446
    49   1 H        0.926     0.035     2.511     2.478
    50   1 H        0.926     0.035     2.518     2.481
    51   1 H        0.926     0.036     2.509     2.477
    52   1 H        0.926     0.038     2.481     2.463
    53   1 H        0.926     0.035     2.523     2.484
    54   1 H        0.924     0.088     1.903     2.157
    55   1 H        0.924     0.070     2.087     2.259
    56   1 H        0.925     0.014     2.823     2.628
    57   1 H        0.925     0.026     2.638     2.540
    58   1 H        0.926     0.034     2.527     2.486
    59   1 H        0.926     0.035     2.517     2.481
    60   1 H        0.926     0.036     2.501     2.473
    61   1 H        0.926     0.041     2.433     2.439
    62   1 H        0.926     0.035     2.518     2.482
    63   1 H        0.926     0.052     2.295     2.369
    64   1 H        0.926     0.059     2.207     2.323
    65   1 H        0.926     0.059     2.216     2.328
    66   1 H        0.926     0.040     2.453     2.449
    67   1 H        0.924     0.065     2.144     2.290
    68   1 H        0.804     0.347     0.596     1.212
    69   1 H        0.926     0.061     2.189     2.314
    70   1 H        0.926     0.059     2.213     2.326
    71   1 H        0.926     0.061     2.192     2.315
    72   1 H        0.926     0.065     2.146     2.291

Wiberg/Mayer (AO) data.
largest (>0.10) Wiberg bond orders for each atom

     #   Z sym  total        # sym  WBO       # sym  WBO       # sym  WBO
 ---------------------------------------------------------------------------
     1   6 C    3.991 --     2 C    1.567    10 C    1.290    47 H    0.966
     2   6 C    3.991 --     1 C    1.567     3 C    1.274    48 H    0.968
                             9 C    0.113
     3   6 C    3.990 --     4 C    1.282     2 C    1.274     8 C    1.252
     4   6 C    3.991 --     5 C    1.555     3 C    1.282    49 H    0.968
                             7 C    0.118
     5   6 C    3.990 --     4 C    1.555     6 C    1.322    50 H    0.971
     6   6 C    3.992 --     7 C    1.556     5 C    1.322    51 H    0.971
     7   6 C    3.990 --     6 C    1.556     8 C    1.280    52 H    0.968
                             4 C    0.118
     8   6 C    3.990 --     7 C    1.280     9 C    1.278     3 C    1.252
     9   6 C    3.990 --    10 C    1.528     8 C    1.278    53 H    0.963
                             2 C    0.113
    10   6 C    3.984 --     9 C    1.528     1 C    1.290    11 C    0.989
    11   6 C    3.955 --    10 C    0.989    37 N    0.964    12 C    0.949
                            54 H    0.939
    12   6 C    3.958 --    13 C    0.988    23 N    0.956    55 H    0.951
                            11 C    0.949
    13   6 C    3.985 --    14 C    1.524    22 C    1.296    12 C    0.988
    14   6 C    3.991 --    13 C    1.524    15 C    1.284    56 H    0.965
                            21 C    0.115
    15   6 C    3.991 --    14 C    1.284    16 C    1.278    20 C    1.250
    16   6 C    3.990 --    17 C    1.558    15 C    1.278    57 H    0.968
                            19 C    0.118
    17   6 C    3.992 --    16 C    1.558    18 C    1.320    58 H    0.971
    18   6 C    3.990 --    19 C    1.557    17 C    1.320    59 H    0.971
    19   6 C    3.992 --    18 C    1.557    20 C    1.281    60 H    0.968
                            16 C    0.118
    20   6 C    3.990 --    19 C    1.281    21 C    1.278    15 C    1.250
    21   6 C    3.991 --    22 C    1.561    20 C    1.278    61 H    0.967
                            14 C    0.115
    22   6 C    3.990 --    21 C    1.561    13 C    1.296    62 H    0.968
    23   7 N    3.468 --    24 C    1.210    33 C    0.986    12 C    0.956
                            32 O    0.195
    24   6 C    3.949 --    32 O    1.707    23 N    1.210    25 C    0.951
    25   6 C    3.988 --    26 C    1.412    31 C    1.399    24 C    0.951
                            28 C    0.102
    26   6 C    3.990 --    27 C    1.435    25 C    1.412    63 H    0.967
                            30 C    0.108
    27   6 C    3.990 --    26 C    1.435    28 C    1.424    64 H    0.967
                            31 C    0.110
    28   6 C    3.956 --    27 C    1.424    30 C    1.417    29 I    0.977
                            25 C    0.102
    29  53 I    1.094 --    28 C    0.977
    30   6 C    3.989 --    31 C    1.443    28 C    1.417    65 H    0.968
                            26 C    0.108
    31   6 C    3.991 --    30 C    1.443    25 C    1.399    66 H    0.967
                            27 C    0.110
    32   8 O    2.031 --    24 C    1.707    23 N    0.195
    33   6 C    3.975 --    37 N    0.990    23 N    0.986    67 H    0.931
                            34 C    0.908
    34   6 C    3.919 --    36 O    1.768    35 O    1.171    33 C    0.908
    35   8 O    2.235 --    34 C    1.171    68 H    0.853    36 O    0.184
    36   8 O    2.057 --    34 C    1.768    35 O    0.184
    37   7 N    3.446 --    38 C    1.172    33 C    0.990    11 C    0.964
                            46 O    0.182
    38   6 C    3.943 --    46 O    1.708    37 N    1.172    39 C    0.980
    39   6 C    3.988 --    40 C    1.393    45 C    1.393    38 C    0.980
    40   6 C    3.988 --    41 C    1.445    39 C    1.393    69 H    0.965
                            44 C    0.107
    41   6 C    3.989 --    40 C    1.445    42 C    1.416    70 H    0.967
                            45 C    0.107
    42   6 C    3.955 --    44 C    1.420    41 C    1.416    43 I    0.978
    43  53 I    1.098 --    42 C    0.978
    44   6 C    3.989 --    45 C    1.441    42 C    1.420    71 H    0.967
                            40 C    0.107
    45   6 C    3.989 --    44 C    1.441    39 C    1.393    72 H    0.961
                            41 C    0.107
    46   8 O    2.036 --    38 C    1.708    37 N    0.182
    47   1 H    0.998 --     1 C    0.966
    48   1 H    0.997 --     2 C    0.968
    49   1 H    0.998 --     4 C    0.968
    50   1 H    0.998 --     5 C    0.971
    51   1 H    0.998 --     6 C    0.971
    52   1 H    0.998 --     7 C    0.968
    53   1 H    0.998 --     9 C    0.963
    54   1 H    0.990 --    11 C    0.939
    55   1 H    0.994 --    12 C    0.951
    56   1 H    0.999 --    14 C    0.965
    57   1 H    0.999 --    16 C    0.968
    58   1 H    0.998 --    17 C    0.971
    59   1 H    0.998 --    18 C    0.971
    60   1 H    0.998 --    19 C    0.968
    61   1 H    0.997 --    21 C    0.967
    62   1 H    0.998 --    22 C    0.968
    63   1 H    0.997 --    26 C    0.967
    64   1 H    0.996 --    27 C    0.967
    65   1 H    0.996 --    30 C    0.968
    66   1 H    0.998 --    31 C    0.967
    67   1 H    0.995 --    33 C    0.931
    68   1 H    0.879 --    35 O    0.853
    69   1 H    0.996 --    40 C    0.965
    70   1 H    0.996 --    41 C    0.967
    71   1 H    0.996 --    44 C    0.967
    72   1 H    0.996 --    45 C    0.961
 ---------------------------------------------------------------------------

molecular dipole:
                 x           y           z       tot (Debye)
 q only:        0.410      -1.071       0.922
   full:        0.581      -1.813       1.207       5.730

           -------------------------------------------------
          | TOTAL ENERGY             -124.418676126861 Eh   |
          | GRADIENT NORM               0.000705434655 Eh/Î± |
          | HOMO-LUMO GAP               2.845712924707 eV   |
           -------------------------------------------------

 * finished run on 2022/03/17 at 00:43:35.302
