   * xtb version 6.3.3 (4ae9cef) compiled by 'conda@95abc7406d43' on 2020-10-14
          program call               : xtb acid_66.xyz --opt --chrg 0 --uhf 0 --gfn 2
          number of atoms            :                    96
          number of electrons        :                   262
          charge                     :                     0
          spin                       :                   0.0

   ID    Z sym.   atoms
    1    6 C      1-22, 24-34, 36, 37, 41-51
    2    7 N      23, 40
    3    8 O      35, 38, 39, 52
    4    1 H      53-96

          :  Hamiltonian                  GFN2-xTB          :
 * total energy  :  -143.0946930 Eh     change       -0.4766036E-08 Eh
 * total energy  :  -143.1158690 Eh     change       -0.2117599E-01 Eh
 * total energy  :  -143.1225585 Eh     change       -0.6689526E-02 Eh
 * total energy  :  -143.1245066 Eh     change       -0.1948112E-02 Eh
 * total energy  :  -143.1258685 Eh     change       -0.1361857E-02 Eh
 * total energy  :  -143.1266446 Eh     change       -0.7761026E-03 Eh
 * total energy  :  -143.1272395 Eh     change       -0.5949191E-03 Eh
 * total energy  :  -143.1277963 Eh     change       -0.5567895E-03 Eh
 * total energy  :  -143.1282774 Eh     change       -0.4810686E-03 Eh
 * total energy  :  -143.1286274 Eh     change       -0.3500607E-03 Eh
 * total energy  :  -143.1331783 Eh     change       -0.1432213E-04 Eh
 * total energy  :  -143.1331929 Eh     change       -0.1467725E-04 Eh
 * total energy  :  -143.1332142 Eh     change       -0.2123902E-04 Eh
 * total energy  :  -143.1332328 Eh     change       -0.1865828E-04 Eh
 * total energy  :  -143.1332453 Eh     change       -0.1243910E-04 Eh
 * total energy  :  -143.1332540 Eh     change       -0.8745742E-05 Eh
 * total energy  :  -143.1332621 Eh     change       -0.8078592E-05 Eh
 * total energy  :  -143.1332705 Eh     change       -0.8414091E-05 Eh
 * total energy  :  -143.1332731 Eh     change       -0.2569426E-05 Eh
   *** GEOMETRY OPTIMIZATION CONVERGED AFTER 59 ITERATIONS ***

 final structure:
================
96
 xtb: 6.3.3 (4ae9cef)
C         0.68218863364294    5.70677448820024   -2.23067383401642
C         0.14606469181423    6.22374296771353   -1.08664027762833
C        -0.03696341304779    5.39648622774372    0.03014891151730
C         0.31610258629178    4.07683632133932   -0.01377825110385
C         0.86367397567710    3.50217059510443   -1.18225959520569
C         1.04703743906306    4.34624830789634   -2.31310331919939
C         1.57975485887157    3.81469746749056   -3.50506940677636
C         1.90164968664386    2.49110697354352   -3.59083878630032
C         1.70846908673145    1.65169688079719   -2.48775491832025
C         1.22410332879028    2.13287621048876   -1.29741446477982
C         0.99496364645925    1.17634120077752   -0.15775687664666
C        -0.38706407446285    0.49896127062790   -0.29588354813728
C        -1.51529842262105    1.34591634512055    0.22750261677736
C        -2.30476227492081    1.97551425933637   -0.70339845955521
C        -3.33946402243775    2.83841773428502   -0.32780001378221
C        -3.59596537447538    3.06196386476882    0.99353669879022
C        -2.81214129134805    2.44198938102980    1.98670999327596
C        -1.74383419287093    1.58207487507405    1.60917483429808
C        -0.96283991252276    1.01045340608298    2.63631291241036
C        -1.22505844890226    1.26196028731643    3.95418135768515
C        -2.28869344374116    2.09813335074924    4.32176260825186
C        -3.06265900984870    2.67441694988549    3.35550049782419
N        -0.17888065999071   -0.80989048303122    0.31301160323384
C        -1.06752985720222   -1.84415023685857    0.24550616608705
C        -2.47601647505495   -1.39813998346909    0.02322031250405
C        -3.01012836777648   -1.30453794382021   -1.25132571838641
C        -4.31502780902043   -0.87931442051107   -1.43371031887887
C        -5.12191762744494   -0.54335794306589   -0.35404525096337
C        -6.56498452706941   -0.09081769295863   -0.50869864977226
C        -6.99253435376870    0.03007387624758   -1.97424198314356
C        -6.74187165210067    1.28217450556675    0.15416163358769
C        -7.47441612087350   -1.12185685588212    0.17567849017017
C        -4.57494655394649   -0.66089209666902    0.92181067802608
C        -3.27586510628886   -1.08363107668437    1.11390375905351
O        -0.72811359784539   -2.99688986289670    0.39755337729418
C         1.23856756131897   -1.08055311433501    0.46065026831850
C         1.64687106318688   -1.18332448573074    1.94699416735932
O         0.93933012800813   -2.09637218520904    2.59485791984374
O         2.52055937039066   -0.52830795156334    2.44522277203001
N         1.89738611352483    0.02969396108635   -0.17604607591475
C         3.25748838577994    0.23993886424858   -0.11212807944569
C         4.07528184661976   -1.00288324976482   -0.09785021029348
C         3.85014877097848   -2.03095344262042   -1.00700226314789
C         4.65211484221521   -3.15391926608319   -0.99941840708074
C         5.69761131347301   -3.29671856456524   -0.08871285713437
C         6.53898648568700   -4.56272605427856   -0.11396763322866
C         7.64759356380457   -4.55613365914384    0.94184087093530
C         5.62914590422103   -5.77045268596636    0.15290299957779
C         7.19499770959312   -4.69948870747173   -1.49540076105320
C         5.92157702872661   -2.25432360642045    0.80336937882811
C         5.13180572783336   -1.11841206480666    0.79335179463200
O         3.73352538682479    1.35160659979884   -0.15788620908120
H         0.83445238233059    6.33273360671676   -3.09860866258287
H        -0.13463896941456    7.26533015895391   -1.03231355248669
H        -0.45874050738308    5.80970318572570    0.93472342994771
H         0.16396840169441    3.47442644217285    0.86729567278601
H         1.72265493767594    4.47419593199915   -4.34903712482567
H         2.30455144865286    2.07966557077469   -4.50444768046059
H         1.96350747580557    0.60585083935750   -2.57582812244408
H         1.08920789789455    1.69328386763468    0.80405588178812
H        -0.56719471838841    0.34644306024121   -1.37200944102117
H        -2.12338760641674    1.80973391641616   -1.75551981813980
H        -3.92533559992984    3.32257131373582   -1.09474898464626
H        -4.39594348295402    3.72026286268597    1.29994583382935
H        -0.14297597607697    0.36300332622984    2.37650271359784
H        -0.60927883110692    0.81746431625473    4.72232079790065
H        -2.48537769822175    2.28328330460580    5.36736845868401
H        -3.88234550824824    3.32572125379654    3.62385766205115
H        -2.40760219741194   -1.56847735062695   -2.10900879619332
H        -4.69189030933181   -0.81739749660494   -2.44144610361268
H        -8.02551928170141    0.36876864618898   -2.02297151285459
H        -6.93242222895634   -0.92996749114830   -2.48179870546384
H        -6.37585824288568    0.75408828730735   -2.50225738955029
H        -7.77140858389768    1.61747202357969    0.04722016464441
H        -6.08704070450132    2.01180357206264   -0.31645823495416
H        -6.50325168686559    1.24704810047715    1.21347432370645
H        -8.51789454356687   -0.83603983833227    0.06121816361739
H        -7.25506896038029   -1.19848434115081    1.23742353167688
H        -7.33363285595651   -2.10356711235654   -0.27274697326329
H        -5.16809884564421   -0.42067512494235    1.79094735423896
H        -2.87533108700388   -1.17062472964915    2.11311445056507
H         1.47717301786869   -2.05546852615555    0.00782355913453
H         1.22991591024642   -2.18108520162145    3.51808931563883
H         3.06146368894996   -1.94212638247234   -1.74132946285426
H         4.45357622298855   -3.93107943590844   -1.72195321278101
H         8.33827291790876   -3.73224116730368    0.77840186126656
H         8.21185560547296   -5.48453390281507    0.87969134773117
H         7.23358733764953   -4.48214464212208    1.94476715586933
H         4.85534830626171   -5.86036975474450   -0.60429866054588
H         5.14597053571759   -5.67025900867153    1.12264858753208
H         6.21459490263704   -6.68742494599187    0.15203926312874
H         6.45121842460910   -4.78930744075505   -2.28208825974112
H         7.82717077459299   -5.58443865534645   -1.52285048674171
H         7.81108207433514   -3.82792594644515   -1.70637331551855
H         6.72365091702311   -2.30929733422809    1.52094451828484
H         5.31699869932820   -0.31413629607613    1.48816199976007

          :  Hamiltonian                  GFN2-xTB          :
         :: total energy            -143.133273086693 Eh    ::
         :: gradient norm              0.000866676364 Eh/a0 ::
         :: HOMO-LUMO gap              2.741629105449 eV    ::
         :: SCC energy              -145.453280274211 Eh    ::
         :: -> dispersion             -0.140373860117 Eh    ::
         :: repulsion energy           2.314837343614 Eh    ::

    * Orbital Energies and Occupations

         #    Occupation            Energy/Eh            Energy/eV
      -------------------------------------------------------------
         1        2.0000           -0.7664462             -20.8561
       ...           ...                  ...                  ...
       119        2.0000           -0.4141933             -11.2708
       120        2.0000           -0.4129496             -11.2369
       121        2.0000           -0.4074331             -11.0868
       122        2.0000           -0.4046875             -11.0121
       123        2.0000           -0.4028960             -10.9634
       124        2.0000           -0.4024729             -10.9518
       125        2.0000           -0.3994465             -10.8695
       126        2.0000           -0.3976098             -10.8195
       127        2.0000           -0.3937143             -10.7135
       128        2.0000           -0.3895461             -10.6001
       129        2.0000           -0.3880319             -10.5589
       130        2.0000           -0.3862693             -10.5109
       131        2.0000           -0.3737510             -10.1703 (HOMO)
       132                         -0.2729979              -7.4287 (LUMO)
       133                         -0.2592085              -7.0534
       134                         -0.2564618              -6.9787
       135                         -0.2429748              -6.6117
       136                         -0.2402808              -6.5384
       137                         -0.2306379              -6.2760
       138                         -0.2275151              -6.1910
       139                         -0.2272657              -6.1842
       140                         -0.2218777              -6.0376
       141                         -0.2196426              -5.9768
       142                         -0.2022979              -5.5048
       ...                                ...                  ...
       252                          0.6961258              18.9425
      -------------------------------------------------------------
                  HL-Gap            0.1007530 Eh            2.7416 eV

     #   Z          covCN         q      C6AA      Î±(0)
     1   6 C        2.921    -0.034    28.848     8.808
     2   6 C        2.915    -0.030    28.738     8.791
     3   6 C        2.917    -0.029    28.725     8.789
     4   6 C        2.917    -0.033    28.832     8.805
     5   6 C        2.984     0.011    27.763     8.643
     6   6 C        2.989     0.016    27.641     8.624
     7   6 C        2.921    -0.036    28.886     8.814
     8   6 C        2.914    -0.028    28.710     8.786
     9   6 C        2.923    -0.029    28.718     8.788
    10   6 C        2.969     0.007    27.858     8.658
    11   6 C        3.840     0.054    19.641     6.305
    12   6 C        3.831     0.044    19.813     6.333
    13   6 C        2.965    -0.005    28.137     8.701
    14   6 C        2.926    -0.034    28.843     8.807
    15   6 C        2.914    -0.027    28.685     8.783
    16   6 C        2.921    -0.034    28.853     8.809
    17   6 C        2.989     0.015    27.663     8.628
    18   6 C        2.984     0.012    27.741     8.640
    19   6 C        2.918    -0.033    28.820     8.803
    20   6 C        2.916    -0.028    28.689     8.783
    21   6 C        2.915    -0.028    28.710     8.786
    22   6 C        2.921    -0.033    28.826     8.805
    23   7 N        2.761    -0.129    23.787     7.244
    24   6 C        2.764     0.275    22.353     7.743
    25   6 C        2.979    -0.017    28.434     8.747
    26   6 C        2.922    -0.029    28.730     8.790
    27   6 C        2.926    -0.038    28.942     8.822
    28   6 C        2.974     0.012    27.746     8.640
    29   6 C        3.903     0.025    20.091     6.371
    30   6 C        3.761    -0.109    22.628     6.781
    31   6 C        3.761    -0.107    22.595     6.776
    32   6 C        3.762    -0.107    22.583     6.774
    33   6 C        2.928    -0.032    28.806     8.802
    34   6 C        2.922    -0.026    28.642     8.776
    35   8 O        0.858    -0.415    21.981     6.286
    36   6 C        3.777     0.098    18.994     6.209
    37   6 C        2.687     0.351    21.037     7.506
    38   8 O        1.659    -0.348    19.876     6.018
    39   8 O        0.856    -0.393    21.551     6.224
    40   7 N        2.764    -0.140    24.030     7.281
    41   6 C        2.765     0.282    22.231     7.722
    42   6 C        2.976    -0.023    28.564     8.767
    43   6 C        2.921    -0.036    28.884     8.813
    44   6 C        2.927    -0.035    28.861     8.810
    45   6 C        2.973     0.013    27.726     8.637
    46   6 C        3.903     0.026    20.086     6.371
    47   6 C        3.761    -0.109    22.629     6.781
    48   6 C        3.762    -0.106    22.579     6.774
    49   6 C        3.762    -0.106    22.579     6.774
    50   6 C        2.925    -0.038    28.936     8.821
    51   6 C        2.923    -0.020    28.504     8.755
    52   8 O        0.858    -0.407    21.817     6.262
    53   1 H        0.926     0.035     2.522     2.483
    54   1 H        0.926     0.032     2.552     2.498
    55   1 H        0.926     0.030     2.581     2.512
    56   1 H        0.926     0.026     2.639     2.540
    57   1 H        0.926     0.036     2.501     2.473
    58   1 H        0.926     0.036     2.507     2.476
    59   1 H        0.926     0.032     2.552     2.498
    60   1 H        0.924     0.053     2.281     2.362
    61   1 H        0.923     0.041     2.435     2.440
    62   1 H        0.926     0.029     2.598     2.521
    63   1 H        0.926     0.035     2.511     2.478
    64   1 H        0.926     0.040     2.454     2.450
    65   1 H        0.926     0.030     2.587     2.515
    66   1 H        0.926     0.033     2.544     2.494
    67   1 H        0.926     0.035     2.513     2.479
    68   1 H        0.926     0.036     2.507     2.476
    69   1 H        0.926     0.031     2.575     2.509
    70   1 H        0.926     0.044     2.395     2.420
    71   1 H        0.925     0.039     2.462     2.454
    72   1 H        0.925     0.038     2.476     2.461
    73   1 H        0.925     0.036     2.505     2.475
    74   1 H        0.925     0.040     2.448     2.447
    75   1 H        0.925     0.035     2.513     2.479
    76   1 H        0.925     0.036     2.506     2.476
    77   1 H        0.925     0.040     2.448     2.447
    78   1 H        0.925     0.038     2.478     2.462
    79   1 H        0.925     0.036     2.498     2.472
    80   1 H        0.926     0.036     2.506     2.476
    81   1 H        0.926     0.033     2.547     2.496
    82   1 H        0.923     0.087     1.913     2.163
    83   1 H        0.804     0.342     0.608     1.225
    84   1 H        0.925     0.026     2.638     2.540
    85   1 H        0.926     0.036     2.500     2.472
    86   1 H        0.925     0.038     2.476     2.461
    87   1 H        0.925     0.038     2.476     2.461
    88   1 H        0.925     0.037     2.494     2.469
    89   1 H        0.925     0.038     2.475     2.460
    90   1 H        0.925     0.034     2.525     2.485
    91   1 H        0.925     0.039     2.458     2.452
    92   1 H        0.925     0.037     2.483     2.464
    93   1 H        0.925     0.039     2.461     2.453
    94   1 H        0.925     0.036     2.505     2.475
    95   1 H        0.926     0.045     2.383     2.414
    96   1 H        0.926     0.055     2.258     2.350

Wiberg/Mayer (AO) data.
largest (>0.10) Wiberg bond orders for each atom

     #   Z sym  total        # sym  WBO       # sym  WBO       # sym  WBO
 ---------------------------------------------------------------------------
     1   6 C    3.991 --     2 C    1.557     6 C    1.279    53 H    0.968
                             4 C    0.118
     2   6 C    3.992 --     1 C    1.557     3 C    1.322    54 H    0.971
     3   6 C    3.992 --     4 C    1.555     2 C    1.322    55 H    0.971
     4   6 C    3.992 --     3 C    1.555     5 C    1.283    56 H    0.961
                             1 C    0.118
     5   6 C    3.989 --     4 C    1.283    10 C    1.254     6 C    1.252
     6   6 C    3.990 --     7 C    1.280     1 C    1.279     5 C    1.252
     7   6 C    3.990 --     8 C    1.551     6 C    1.280    57 H    0.968
                            10 C    0.115
     8   6 C    3.992 --     7 C    1.551     9 C    1.329    58 H    0.970
     9   6 C    3.990 --    10 C    1.522     8 C    1.329    59 H    0.967
    10   6 C    3.984 --     9 C    1.522     5 C    1.254    11 C    0.995
                             7 C    0.115
    11   6 C    3.966 --    10 C    0.995    40 N    0.961    60 H    0.947
                            12 C    0.945
    12   6 C    3.965 --    13 C    0.996    23 N    0.956    61 H    0.953
                            11 C    0.945
    13   6 C    3.984 --    14 C    1.517    18 C    1.251    12 C    0.996
                            16 C    0.115
    14   6 C    3.990 --    13 C    1.517    15 C    1.329    62 H    0.967
    15   6 C    3.992 --    16 C    1.550    14 C    1.329    63 H    0.969
    16   6 C    3.990 --    15 C    1.550    17 C    1.279    64 H    0.967
                            13 C    0.115
    17   6 C    3.990 --    22 C    1.281    16 C    1.279    18 C    1.251
    18   6 C    3.989 --    19 C    1.284    13 C    1.251    17 C    1.251
    19   6 C    3.992 --    20 C    1.553    18 C    1.284    65 H    0.958
                            22 C    0.118
    20   6 C    3.991 --    19 C    1.553    21 C    1.322    66 H    0.971
    21   6 C    3.991 --    22 C    1.556    20 C    1.322    67 H    0.971
    22   6 C    3.991 --    21 C    1.556    17 C    1.281    68 H    0.968
                            19 C    0.118
    23   7 N    3.435 --    24 C    1.190    36 C    0.976    12 C    0.956
                            35 O    0.185
    24   6 C    3.941 --    35 O    1.711    23 N    1.190    25 C    0.958
    25   6 C    3.986 --    26 C    1.414    34 C    1.392    24 C    0.958
                            28 C    0.108
    26   6 C    3.990 --    27 C    1.436    25 C    1.414    69 H    0.970
                            33 C    0.109
    27   6 C    3.990 --    26 C    1.436    28 C    1.419    70 H    0.964
                            34 C    0.108
    28   6 C    3.986 --    27 C    1.419    33 C    1.401    29 C    0.985
                            25 C    0.108
    29   6 C    3.992 --    30 C    1.000    31 C    0.988    32 C    0.985
                            28 C    0.985
    30   6 C    3.996 --    29 C    1.000    73 H    0.985    71 H    0.984
                            72 H    0.984
    31   6 C    3.995 --    29 C    0.988    75 H    0.984    74 H    0.984
                            76 H    0.983
    32   6 C    3.995 --    79 H    0.987    29 C    0.985    77 H    0.984
                            78 H    0.984
    33   6 C    3.991 --    34 C    1.457    28 C    1.401    80 H    0.964
                            26 C    0.109
    34   6 C    3.991 --    33 C    1.457    25 C    1.392    81 H    0.969
                            27 C    0.108
    35   8 O    2.029 --    24 C    1.711    23 N    0.185
    36   6 C    3.969 --    40 N    0.996    23 N    0.976    82 H    0.926
                            37 C    0.910
    37   6 C    3.917 --    39 O    1.766    38 O    1.167    36 C    0.910
    38   8 O    2.235 --    37 C    1.167    83 H    0.856    39 O    0.182
    39   8 O    2.061 --    37 C    1.766    38 O    0.182
    40   7 N    3.395 --    41 C    1.148    36 C    0.996    11 C    0.961
                            52 O    0.170
    41   6 C    3.940 --    52 O    1.721    40 N    1.148    42 C    0.981
    42   6 C    3.986 --    51 C    1.405    43 C    1.386    41 C    0.981
                            45 C    0.106
    43   6 C    3.991 --    44 C    1.462    42 C    1.386    84 H    0.968
                            50 C    0.105
    44   6 C    3.992 --    43 C    1.462    45 C    1.397    85 H    0.964
                            51 C    0.108
    45   6 C    3.986 --    50 C    1.418    44 C    1.397    46 C    0.985
                            42 C    0.106
    46   6 C    3.992 --    47 C    1.000    49 C    0.986    48 C    0.986
                            45 C    0.985
    47   6 C    3.996 --    46 C    1.000    88 H    0.985    86 H    0.985
                            87 H    0.984
    48   6 C    3.995 --    90 H    0.987    46 C    0.986    91 H    0.984
                            89 H    0.984
    49   6 C    3.995 --    94 H    0.987    46 C    0.986    93 H    0.984
                            92 H    0.983
    50   6 C    3.991 --    51 C    1.443    45 C    1.418    95 H    0.964
                            43 C    0.105
    51   6 C    3.988 --    50 C    1.443    42 C    1.405    96 H    0.968
                            44 C    0.108
    52   8 O    2.035 --    41 C    1.721    40 N    0.170
    53   1 H    0.998 --     1 C    0.968
    54   1 H    0.998 --     2 C    0.971
    55   1 H    0.999 --     3 C    0.971
    56   1 H    0.999 --     4 C    0.961
    57   1 H    0.998 --     7 C    0.968
    58   1 H    0.998 --     8 C    0.970
    59   1 H    0.998 --     9 C    0.967
    60   1 H    0.997 --    11 C    0.947
    61   1 H    0.998 --    12 C    0.953
    62   1 H    0.999 --    14 C    0.967
    63   1 H    0.998 --    15 C    0.969
    64   1 H    0.997 --    16 C    0.967
    65   1 H    0.999 --    19 C    0.958
    66   1 H    0.998 --    20 C    0.971
    67   1 H    0.998 --    21 C    0.971
    68   1 H    0.998 --    22 C    0.968
    69   1 H    0.999 --    26 C    0.970
    70   1 H    0.997 --    27 C    0.964
    71   1 H    0.998 --    30 C    0.984
    72   1 H    0.999 --    30 C    0.984
    73   1 H    0.999 --    30 C    0.985
    74   1 H    0.998 --    31 C    0.984
    75   1 H    0.999 --    31 C    0.984
    76   1 H    0.999 --    31 C    0.983
    77   1 H    0.997 --    32 C    0.984
    78   1 H    0.999 --    32 C    0.984
    79   1 H    0.999 --    32 C    0.987
    80   1 H    0.998 --    33 C    0.964
    81   1 H    0.998 --    34 C    0.969
    82   1 H    0.992 --    36 C    0.926
    83   1 H    0.883 --    38 O    0.856
    84   1 H    0.999 --    43 C    0.968
    85   1 H    0.998 --    44 C    0.964
    86   1 H    0.999 --    47 C    0.985
    87   1 H    0.998 --    47 C    0.984
    88   1 H    0.999 --    47 C    0.985
    89   1 H    0.999 --    48 C    0.984
    90   1 H    0.999 --    48 C    0.987
    91   1 H    0.997 --    48 C    0.984
    92   1 H    0.999 --    49 C    0.983
    93   1 H    0.998 --    49 C    0.984
    94   1 H    0.999 --    49 C    0.987
    95   1 H    0.998 --    50 C    0.964
    96   1 H    0.997 --    51 C    0.968
 ---------------------------------------------------------------------------

molecular dipole:
                 x           y           z       tot (Debye)
 q only:       -1.636       0.155      -0.096
   full:       -1.630      -0.053       0.081       4.150

           -------------------------------------------------
          | TOTAL ENERGY             -143.133273086693 Eh   |
          | GRADIENT NORM               0.000866676364 Eh/Î± |
          | HOMO-LUMO GAP               2.741629105449 eV   |
           -------------------------------------------------

 * finished run on 2022/03/17 at 01:58:32.268
