   * xtb version 6.3.3 (4ae9cef) compiled by 'conda@95abc7406d43' on 2020-10-14
          program call               : xtb acid_231.xyz --opt --chrg 0 --uhf 0 --gfn 2
          number of atoms            :                    68
          number of electrons        :                   214
          charge                     :                     0
          spin                       :                   0.0

   ID    Z sym.   atoms
    1    6 C      1, 3-16, 18, 20-25, 27, 29, 30, 34-37, 39-41
    2    8 O      2, 17, 28, 31, 32, 42
    3    7 N      19, 33
    4   17 Cl     26, 38
    5    1 H      43-68

          :  Hamiltonian                  GFN2-xTB          :
 * total energy  :  -121.1662144 Eh     change       -0.3907076E-08 Eh
 * total energy  :  -121.1809120 Eh     change       -0.1469755E-01 Eh
 * total energy  :  -121.1855789 Eh     change       -0.4666887E-02 Eh
 * total energy  :  -121.1871042 Eh     change       -0.1525318E-02 Eh
 * total energy  :  -121.1881184 Eh     change       -0.1014227E-02 Eh
 * total energy  :  -121.1887652 Eh     change       -0.6467251E-03 Eh
 * total energy  :  -121.1893096 Eh     change       -0.5444928E-03 Eh
 * total energy  :  -121.1898601 Eh     change       -0.5504427E-03 Eh
 * total energy  :  -121.1904294 Eh     change       -0.5693516E-03 Eh
 * total energy  :  -121.1909731 Eh     change       -0.5436971E-03 Eh
 * total energy  :  -121.1947495 Eh     change       -0.1485114E-04 Eh
 * total energy  :  -121.1947599 Eh     change       -0.1035427E-04 Eh
 * total energy  :  -121.1947696 Eh     change       -0.9735366E-05 Eh
 * total energy  :  -121.1947804 Eh     change       -0.1081180E-04 Eh
 * total energy  :  -121.1947929 Eh     change       -0.1245817E-04 Eh
 * total energy  :  -121.1948060 Eh     change       -0.1304484E-04 Eh
 * total energy  :  -121.1948186 Eh     change       -0.1265517E-04 Eh
 * total energy  :  -121.1948312 Eh     change       -0.1260402E-04 Eh
 * total energy  :  -121.1948354 Eh     change       -0.4197090E-05 Eh
   *** GEOMETRY OPTIMIZATION CONVERGED AFTER 44 ITERATIONS ***

 final structure:
================
68
 xtb: 6.3.3 (4ae9cef)
C         2.09362897940109   -2.09918393686751    0.03471472440752
O         2.18132675557923   -1.12431173913674    0.98961851532574
C         3.04532848635910   -1.32341624692975    2.08276047278179
C         2.78884019480027   -3.30046959416902    0.08123915970985
C         2.63138792221350   -4.23713390329284   -0.92654360117460
C         1.78278987401265   -3.98832430454435   -1.98733047458919
C         1.09419921926905   -2.78863985917343   -2.04071194029397
C         1.23666067344392   -1.83883611299331   -1.04530112032816
C         0.48053915919205   -0.53772185680473   -1.12486753645966
C        -0.58208341444887   -0.39490776212776   -0.01420640346331
C        -1.98127886628605   -0.40970065338183   -0.57466984825360
C        -2.41037978302816    0.61593520584799   -1.40227088789535
C        -3.69602243411455    0.61857108692983   -1.91352453467646
C        -4.55587368488926   -0.41660747875909   -1.59789118035790
C        -4.14067922092545   -1.45429075042750   -0.78123322998191
C        -2.85061701270072   -1.46457636872624   -0.26419608424390
O        -2.35509180866846   -2.43699544284614    0.55176054320001
C        -3.18868731552751   -3.51784088023659    0.89752356497418
N        -0.26704428407305    0.87638738423158    0.61533396187541
C        -1.10293296364258    1.66768202467779    1.31732096850010
C        -2.34956253180166    1.02415041456394    1.82303621866772
C        -3.58448653300331    1.57601946683782    1.50522054962937
C        -4.74348318118424    0.98668949543255    1.97528076443055
C        -4.68149978255655   -0.13180925614404    2.78900714044202
C        -3.44282065354939   -0.64805475893926    3.13449008801507
Cl       -3.35385596186858   -2.02262129885911    4.17866262858307
C        -2.27301108038431   -0.08510587425609    2.65535979283033
O        -0.81557712861905    2.83278057129508    1.54033227019979
C         0.97221258037956    1.45584538597663    0.14617416220975
C         0.71233964027200    2.90700374326781   -0.31530502425598
O         1.51133942014642    3.77194711417127    0.29562536261798
O        -0.05013420626687    3.18734790667821   -1.19963086108293
N         1.36457585723064    0.60514637402523   -0.94330843456523
C         2.34908962616683    0.84589950257124   -1.84136365259196
C         3.24308336698963    1.99453217939779   -1.49055072610980
C         4.04422684162581    1.90796293221393   -0.35926523438714
C         4.89850836148840    2.95221603974268   -0.05357259610082
Cl        5.89054800985090    2.84655168505887    1.35644382400205
C         4.96589870810346    4.07901081271996   -0.85754808042310
C         4.17565776542450    4.14663726959450   -1.99198453031940
C         3.32159265687696    3.10683986737560   -2.31742695142941
O         2.50781340486968    0.16291820325366   -2.83133386807925
H         2.75301072404223   -2.19662898285537    2.67450565142606
H         2.95380438995854   -0.42906804381333    2.69868642269802
H         4.08579045253326   -1.43555132907246    1.76116630184630
H         3.45965778624060   -3.51706930565515    0.89744967082008
H         3.18289583871799   -5.16402067583693   -0.87519759572784
H         1.66365794444892   -4.71704631778478   -2.77377894159041
H         0.44044730921036   -2.57723845971741   -2.87299078488707
H         0.01593620504229   -0.46742564059861   -2.11629330282223
H        -0.47329739404458   -1.20963206965575    0.70847465998692
H        -1.73604722253839    1.42904832048002   -1.63031633940703
H        -4.02161256199339    1.42397094256991   -2.55277620192283
H        -5.56223709965565   -0.42510504533284   -1.98899469352883
H        -4.83067638445393   -2.25023769880052   -0.55176300677004
H        -2.59229805925562   -4.14639015046394    1.55663067637907
H        -4.08219505180813   -3.18181825446823    1.43176353640429
H        -3.48251552366968   -4.09487597670338    0.01546789006856
H        -3.62413623097010    2.45320535748734    0.87913994857635
H        -5.70440948774978    1.40137127173589    1.71273553872913
H        -5.58208511207381   -0.59327090764917    3.16333283873987
H        -1.31702267626081   -0.49915981874179    2.93450600867367
H         1.71590032653911    1.48190836832492    0.95713882213856
H         1.28812739685753    4.68094030848437    0.04003573999457
H         4.01047866115418    1.02999315529798    0.26669029815295
H         5.63327932887184    4.88643594999883   -0.60017796389745
H         4.23134175600928    5.01727297719610   -2.62772739013248
H         2.70773902869278    3.15285943832706   -3.20357469528859

          :  Hamiltonian                  GFN2-xTB          :
         :: total energy            -121.194835407740 Eh    ::
         :: gradient norm              0.000259006858 Eh/a0 ::
         :: HOMO-LUMO gap              3.305330351621 eV    ::
         :: SCC energy              -122.829258553309 Eh    ::
         :: -> dispersion             -0.104905792637 Eh    ::
         :: repulsion energy           1.630343698803 Eh    ::

    * Orbital Energies and Occupations

         #    Occupation            Energy/Eh            Energy/eV
      -------------------------------------------------------------
         1        2.0000           -1.0642951             -28.9609
       ...           ...                  ...                  ...
        95        2.0000           -0.4298014             -11.6955
        96        2.0000           -0.4254704             -11.5776
        97        2.0000           -0.4235869             -11.5264
        98        2.0000           -0.4161342             -11.3236
        99        2.0000           -0.4127918             -11.2326
       100        2.0000           -0.4081334             -11.1059
       101        2.0000           -0.4073641             -11.0849
       102        2.0000           -0.4059590             -11.0467
       103        2.0000           -0.4040566             -10.9949
       104        2.0000           -0.3958184             -10.7708
       105        2.0000           -0.3941522             -10.7254
       106        2.0000           -0.3900225             -10.6131
       107        2.0000           -0.3860256             -10.5043 (HOMO)
       108                         -0.2645569              -7.1990 (LUMO)
       109                         -0.2554157              -6.9502
       110                         -0.2496495              -6.7933
       111                         -0.2451741              -6.6715
       112                         -0.2438853              -6.6365
       113                         -0.2378978              -6.4735
       114                         -0.2312744              -6.2933
       115                         -0.2254928              -6.1360
       116                         -0.2213067              -6.0221
       117                         -0.2132521              -5.8029
       118                         -0.2061849              -5.6106
       ...                                ...                  ...
       204                          0.6593061              17.9406
      -------------------------------------------------------------
                  HL-Gap            0.1214687 Eh            3.3053 eV

     #   Z          covCN         q      C6AA      Î±(0)
     1   6 C        2.867     0.140    24.949     8.188
     2   8 O        1.705    -0.280    18.653     5.831
     3   6 C        3.642     0.041    20.228     6.466
     4   6 C        2.917    -0.065    29.619     8.925
     5   6 C        2.921    -0.030    28.748     8.793
     6   6 C        2.918    -0.037    28.923     8.819
     7   6 C        2.925    -0.027    28.674     8.781
     8   6 C        2.972    -0.013    28.329     8.730
     9   6 C        3.824     0.050    19.724     6.320
    10   6 C        3.814     0.037    19.947     6.357
    11   6 C        2.974    -0.027    28.681     8.785
    12   6 C        2.923    -0.038    28.948     8.823
    13   6 C        2.918    -0.040    28.988     8.829
    14   6 C        2.921    -0.032    28.801     8.801
    15   6 C        2.918    -0.067    29.678     8.934
    16   6 C        2.867     0.136    25.034     8.202
    17   8 O        1.705    -0.276    18.581     5.820
    18   6 C        3.644     0.038    20.276     6.473
    19   7 N        2.767    -0.095    23.090     7.137
    20   6 C        2.773     0.273    22.392     7.750
    21   6 C        2.980    -0.005    28.130     8.700
    22   6 C        2.922    -0.024    28.593     8.769
    23   6 C        2.922    -0.024    28.615     8.772
    24   6 C        2.955    -0.039    28.970     8.828
    25   6 C        2.890     0.102    25.746     8.319
    26  17 Cl       0.969    -0.172   104.549    15.643
    27   6 C        2.959    -0.035    28.876     8.814
    28   8 O        0.860    -0.428    22.247     6.324
    29   6 C        3.762     0.092    19.100     6.230
    30   6 C        2.689     0.368    20.754     7.456
    31   8 O        1.659    -0.360    20.097     6.052
    32   8 O        0.856    -0.401    21.703     6.246
    33   7 N        2.764    -0.098    23.158     7.147
    34   6 C        2.766     0.271    22.420     7.754
    35   6 C        2.980    -0.013    28.324     8.730
    36   6 C        2.961    -0.039    28.959     8.827
    37   6 C        2.889     0.103    25.721     8.315
    38  17 Cl       0.969    -0.172   104.568    15.644
    39   6 C        2.954    -0.038    28.937     8.823
    40   6 C        2.923    -0.025    28.635     8.775
    41   6 C        2.921    -0.026    28.642     8.776
    42   8 O        0.859    -0.417    22.018     6.291
    43   1 H        0.924     0.042     2.428     2.437
    44   1 H        0.925     0.059     2.205     2.322
    45   1 H        0.924     0.042     2.420     2.433
    46   1 H        0.926     0.041     2.442     2.443
    47   1 H        0.926     0.041     2.440     2.443
    48   1 H        0.926     0.043     2.415     2.430
    49   1 H        0.926     0.047     2.360     2.403
    50   1 H        0.924     0.069     2.096     2.264
    51   1 H        0.924     0.076     2.025     2.225
    52   1 H        0.926     0.064     2.157     2.297
    53   1 H        0.926     0.045     2.379     2.412
    54   1 H        0.926     0.041     2.429     2.437
    55   1 H        0.926     0.041     2.429     2.437
    56   1 H        0.925     0.066     2.125     2.279
    57   1 H        0.924     0.045     2.382     2.414
    58   1 H        0.924     0.043     2.407     2.426
    59   1 H        0.926     0.061     2.188     2.313
    60   1 H        0.926     0.055     2.254     2.348
    61   1 H        0.926     0.060     2.196     2.317
    62   1 H        0.926     0.061     2.192     2.315
    63   1 H        0.923     0.075     2.033     2.230
    64   1 H        0.804     0.345     0.599     1.216
    65   1 H        0.926     0.058     2.225     2.332
    66   1 H        0.926     0.061     2.185     2.312
    67   1 H        0.926     0.054     2.274     2.358
    68   1 H        0.926     0.058     2.220     2.330

Wiberg/Mayer (AO) data.
largest (>0.10) Wiberg bond orders for each atom

     #   Z sym  total        # sym  WBO       # sym  WBO       # sym  WBO
 ---------------------------------------------------------------------------
     1   6 C    3.934 --     4 C    1.386     8 C    1.326     2 O    1.051
     2   8 O    2.220 --     1 C    1.051     3 C    0.984
     3   6 C    3.945 --     2 O    0.984    44 H    0.979    43 H    0.976
                            45 H    0.976
     4   6 C    3.987 --     5 C    1.432     1 C    1.386    46 H    0.965
                             7 C    0.103
     5   6 C    3.990 --     6 C    1.446     4 C    1.432    47 H    0.971
                             8 C    0.107
     6   6 C    3.991 --     5 C    1.446     7 C    1.425    48 H    0.970
     7   6 C    3.989 --     8 C    1.438     6 C    1.425    49 H    0.967
                             4 C    0.103
     8   6 C    3.982 --     7 C    1.438     1 C    1.326     9 C    0.990
                             5 C    0.107
     9   6 C    3.963 --     8 C    0.990    33 N    0.955    10 C    0.954
                            50 H    0.952
    10   6 C    3.961 --    11 C    0.991    19 N    0.958     9 C    0.954
                            51 H    0.949
    11   6 C    3.981 --    12 C    1.431    16 C    1.327    10 C    0.991
                            14 C    0.106
    12   6 C    3.987 --    11 C    1.431    13 C    1.431    52 H    0.962
                            15 C    0.104
    13   6 C    3.991 --    14 C    1.440    12 C    1.431    53 H    0.970
    14   6 C    3.990 --    13 C    1.440    15 C    1.438    54 H    0.971
                            11 C    0.106
    15   6 C    3.987 --    14 C    1.438    16 C    1.377    55 H    0.965
                            12 C    0.104
    16   6 C    3.935 --    15 C    1.377    11 C    1.327    17 O    1.061
    17   8 O    2.231 --    16 C    1.061    18 C    0.980
    18   6 C    3.941 --    17 O    0.980    56 H    0.979    58 H    0.977
                            57 H    0.975
    19   7 N    3.488 --    20 C    1.244    29 C    0.976    10 C    0.958
                            28 O    0.191
    20   6 C    3.948 --    28 O    1.642    19 N    1.244    21 C    0.970
    21   6 C    3.988 --    27 C    1.401    22 C    1.399    20 C    0.970
                            24 C    0.106
    22   6 C    3.989 --    23 C    1.443    21 C    1.399    59 H    0.967
    23   6 C    3.990 --    22 C    1.443    24 C    1.436    60 H    0.968
                            27 C    0.108
    24   6 C    3.988 --    23 C    1.436    25 C    1.402    61 H    0.967
                            21 C    0.106
    25   6 C    3.921 --    27 C    1.410    24 C    1.402    26 Cl   0.974
    26  17 Cl   1.110 --    25 C    0.974
    27   6 C    3.989 --    25 C    1.410    21 C    1.401    62 H    0.965
                            23 C    0.108
    28   8 O    2.039 --    20 C    1.642    19 N    0.191
    29   6 C    3.964 --    33 N    0.988    19 N    0.976    63 H    0.940
                            30 C    0.907
    30   6 C    3.922 --    32 O    1.754    31 O    1.155    29 C    0.907
    31   8 O    2.216 --    30 C    1.155    64 H    0.855    32 O    0.173
    32   8 O    2.047 --    30 C    1.754    31 O    0.173
    33   7 N    3.480 --    34 C    1.220    29 C    0.988     9 C    0.955
                            42 O    0.196
    34   6 C    3.951 --    42 O    1.688    33 N    1.220    35 C    0.958
    35   6 C    3.987 --    41 C    1.407    36 C    1.402    34 C    0.958
                            39 C    0.107
    36   6 C    3.989 --    37 C    1.411    35 C    1.402    65 H    0.965
                            40 C    0.109
    37   6 C    3.920 --    36 C    1.411    39 C    1.400    38 Cl   0.975
    38  17 Cl   1.110 --    37 C    0.975
    39   6 C    3.988 --    40 C    1.441    37 C    1.400    66 H    0.967
                            35 C    0.107
    40   6 C    3.990 --    39 C    1.441    41 C    1.438    67 H    0.968
                            36 C    0.109
    41   6 C    3.989 --    40 C    1.438    35 C    1.407    68 H    0.968
    42   8 O    2.021 --    34 C    1.688    33 N    0.196
    43   1 H    0.998 --     3 C    0.976
    44   1 H    0.996 --     3 C    0.979
    45   1 H    0.998 --     3 C    0.976
    46   1 H    0.998 --     4 C    0.965
    47   1 H    0.998 --     5 C    0.971
    48   1 H    0.998 --     6 C    0.970
    49   1 H    0.997 --     7 C    0.967
    50   1 H    0.995 --     9 C    0.952
    51   1 H    0.994 --    10 C    0.949
    52   1 H    0.995 --    12 C    0.962
    53   1 H    0.998 --    13 C    0.970
    54   1 H    0.998 --    14 C    0.971
    55   1 H    0.998 --    15 C    0.965
    56   1 H    0.995 --    18 C    0.979
    57   1 H    0.998 --    18 C    0.975
    58   1 H    0.998 --    18 C    0.977
    59   1 H    0.996 --    22 C    0.967
    60   1 H    0.996 --    23 C    0.968
    61   1 H    0.996 --    24 C    0.967
    62   1 H    0.996 --    27 C    0.965
    63   1 H    0.993 --    29 C    0.940
    64   1 H    0.880 --    31 O    0.855
    65   1 H    0.997 --    36 C    0.965
    66   1 H    0.996 --    39 C    0.967
    67   1 H    0.997 --    40 C    0.968
    68   1 H    0.996 --    41 C    0.968
 ---------------------------------------------------------------------------

molecular dipole:
                 x           y           z       tot (Debye)
 q only:       -1.114      -0.885       0.082
   full:       -0.991      -0.972       0.602       3.846

           -------------------------------------------------
          | TOTAL ENERGY             -121.194835407740 Eh   |
          | GRADIENT NORM               0.000259006858 Eh/Î± |
          | HOMO-LUMO GAP               3.305330351621 eV   |
           -------------------------------------------------

 * finished run on 2022/03/16 at 22:46:33.463
