   * xtb version 6.3.3 (4ae9cef) compiled by 'conda@95abc7406d43' on 2020-10-14
          program call               : xtb acid_243.xyz --opt --chrg 0 --uhf 0 --gfn 2
          number of atoms            :                    86
          number of electrons        :                   238
          charge                     :                     0
          spin                       :                   0.0

   ID    Z sym.   atoms
    1    6 C      1, 3-16, 18, 20-29, 31, 32, 36-45
    2    8 O      2, 17, 30, 33, 34, 46
    3    7 N      19, 35
    4    1 H      47-86

          :  Hamiltonian                  GFN2-xTB          :
 * total energy  :  -132.0477973 Eh     change       -0.2343313E-08 Eh
 * total energy  :  -132.0642420 Eh     change       -0.1644468E-01 Eh
 * total energy  :  -132.0696897 Eh     change       -0.5447702E-02 Eh
 * total energy  :  -132.0714001 Eh     change       -0.1710405E-02 Eh
 * total energy  :  -132.0725540 Eh     change       -0.1153890E-02 Eh
 * total energy  :  -132.0733269 Eh     change       -0.7729369E-03 Eh
 * total energy  :  -132.0739844 Eh     change       -0.6574709E-03 Eh
 * total energy  :  -132.0746211 Eh     change       -0.6367142E-03 Eh
 * total energy  :  -132.0752337 Eh     change       -0.6125602E-03 Eh
 * total energy  :  -132.0758017 Eh     change       -0.5679993E-03 Eh
 * total energy  :  -132.0817509 Eh     change       -0.1573799E-04 Eh
 * total energy  :  -132.0817636 Eh     change       -0.1269783E-04 Eh
 * total energy  :  -132.0817750 Eh     change       -0.1139550E-04 Eh
 * total energy  :  -132.0817841 Eh     change       -0.9155975E-05 Eh
 * total energy  :  -132.0817825 Eh     change        0.1628486E-05 Eh
 * total energy  :  -132.0817923 Eh     change       -0.9806780E-05 Eh
 * total energy  :  -132.0817914 Eh     change        0.8657874E-06 Eh
 * total energy  :  -132.0817983 Eh     change       -0.6868654E-05 Eh
 * total energy  :  -132.0817988 Eh     change       -0.4617374E-06 Eh
   *** GEOMETRY OPTIMIZATION CONVERGED AFTER 68 ITERATIONS ***

 final structure:
================
86
 xtb: 6.3.3 (4ae9cef)
C         2.71584397362032   -3.40031667073393   -0.24908295239438
O         2.25684702737848   -4.37424859212938   -1.08188510356169
C         3.15217809397908   -5.37212794648499   -1.50755253188249
C         3.98403435385341   -3.38825983177027    0.32150456384700
C         4.35497412345726   -2.37037923428456    1.18291981225991
C         3.46896266431409   -1.35671717111326    1.49368109510483
C         2.20896365158809   -1.36032671129743    0.92208057869319
C         1.82305237316622   -2.36211136998568    0.04727165964176
C         0.45254291847811   -2.33688890703322   -0.58527537256700
C        -0.64362382477984   -2.56093826859045    0.47600497488392
C        -1.70414900767505   -3.58287470561004    0.13853495453166
C        -2.17130868931097   -4.40146264073404    1.15542328767060
C        -3.15022429784497   -5.35223108363029    0.92533530029716
C        -3.66938206342570   -5.49735510281330   -0.34632483682814
C        -3.22455379647199   -4.68789717236002   -1.37702030109007
C        -2.25330668350368   -3.72068457088913   -1.14516314030382
O        -1.79131183754699   -2.86968765795639   -2.10763477511158
C        -2.20853471503025   -3.03833953736047   -3.44096467264901
N        -1.20218171641048   -1.22629733034956    0.66601437526868
C        -1.76482101973236   -0.84660180048089    1.83970090850065
C        -2.28173995211277    0.55705211940963    1.86983244288653
C        -3.65060902460805    0.75933486355420    1.97193001838037
C        -4.14884571577173    2.04895188224408    2.02329929645490
C        -3.28964804912933    3.13133801936447    1.97876762840185
C        -1.91454400898036    2.94643423982289    1.88878193517167
C        -0.96851777428782    4.12075581609751    1.85588353387718
C        -1.31009853851331    5.07654845645108    0.71232201507767
C        -0.98303110361779    4.85241733118138    3.20012209990951
C        -1.42256215648709    1.64922593129137    1.84111311485715
O        -1.84656022190788   -1.60145312633507    2.78657012141641
C        -1.01560586030120   -0.44379668794547   -0.52139783878962
C        -2.24827639050779   -0.50544131711907   -1.45316973297757
O        -3.34175480258922   -0.86339013449544   -0.78268420410557
O        -2.26133591963496   -0.15183972355683   -2.59954295737675
N         0.16974693504928   -1.00168084545571   -1.11400573303966
C         1.11983967239628   -0.33612241613345   -1.82688885702066
C         1.02390514122627    1.15763595291282   -1.81872807534657
C         2.01596389499224    1.80616124115834   -1.09153538903112
C         2.05071136126666    3.19028855508620   -1.00121238407067
C         3.14077625105714    3.89244119472699   -0.22914382727601
C         3.28035176830401    3.34766425643014    1.19277001723972
C         4.46612411699950    3.76494028868231   -0.98453842070712
C         1.08021273823070    3.91873597297036   -1.67813454956858
C         0.10306047948979    3.28005893869032   -2.42171865664378
C         0.06536270619415    1.89804274163413   -2.49581023804729
O         2.05635872294047   -0.91814363069762   -2.33395767580740
H         4.01676066684400   -4.94211088011536   -2.02172518444084
H         2.59032435722311   -5.99173434048427   -2.20487636529111
H         3.49256117375804   -5.99162935711179   -0.67104337127341
H         4.69484054868085   -4.16766756884332    0.09757861876145
H         5.34558678687685   -2.37638237911185    1.61285913988420
H         3.75576616854854   -0.56833733381755    2.17324858337984
H         1.51149371763856   -0.56770599608318    1.15474421205573
H         0.41760852533905   -3.08295242384559   -1.38042423526736
H        -0.19570268130367   -2.85912808151813    1.43082273235002
H        -1.76643512250402   -4.27594532179042    2.14769526415167
H        -3.50043905157253   -5.97519341638409    1.73342345072331
H        -4.42780362850707   -6.23948363462210   -0.54683519938961
H        -3.64320618892653   -4.81565469522274   -2.36284627891682
H        -1.90973147450149   -4.01634412893176   -3.82902583845318
H        -3.29114270739091   -2.91601125160309   -3.54896958880200
H        -1.70528854873247   -2.25092329889200   -3.99979500617532
H        -4.31003858949190   -0.09384888350937    2.00951489489801
H        -5.21384342826452    2.21091698288426    2.10264320238932
H        -3.69588782854329    4.13055509178107    2.02297033100353
H         0.04303041817696    3.73698024903967    1.68156718423984
H        -2.28397948931991    5.53482367994626    0.86344974316381
H        -1.31946915941098    4.54220063425994   -0.23495697475344
H        -0.56664824078021    5.86832878666499    0.65609344556749
H        -0.73047697695189    4.16858330131299    4.00748721631723
H        -0.26029268309140    5.66530895153074    3.19421732854320
H        -1.96763404267839    5.26829453291931    3.39966812586508
H        -0.35232852463324    1.49033527758083    1.80049711866223
H        -0.88257386515468    0.62648800303682   -0.29813259217080
H        -4.11924174504641   -0.84979648382339   -1.36390215725085
H         2.76669808343535    1.20416313928745   -0.60080681956114
H         2.88243193094598    4.95571409442806   -0.16433329102997
H         4.01608549308189    3.92896208343389    1.74425219282517
H         3.60560938538083    2.31072542303374    1.18238955574067
H         2.33149777409144    3.40744468646690    1.72202250605709
H         4.75186282059583    2.71995992588548   -1.07603057523930
H         5.25532911704775    4.29689087746843   -0.45761239903655
H         4.37339677969312    4.18217402802482   -1.98468595545495
H         1.09625274240832    4.99857714719849   -1.63091921380286
H        -0.63515582284548    3.86378447868448   -2.95258406480486
H        -0.69310348792350    1.39922448643302   -3.07699924363907

          :  Hamiltonian                  GFN2-xTB          :
         :: total energy            -132.081798752767 Eh    ::
         :: gradient norm              0.000537536422 Eh/a0 ::
         :: HOMO-LUMO gap              3.364552192951 eV    ::
         :: SCC energy              -134.023187078630 Eh    ::
         :: -> dispersion             -0.117387625702 Eh    ::
         :: repulsion energy           1.935654426878 Eh    ::

    * Orbital Energies and Occupations

         #    Occupation            Energy/Eh            Energy/eV
      -------------------------------------------------------------
         1        2.0000           -0.7632393             -20.7688
       ...           ...                  ...                  ...
       107        2.0000           -0.4156306             -11.3099
       108        2.0000           -0.4117498             -11.2043
       109        2.0000           -0.4090991             -11.1322
       110        2.0000           -0.4056374             -11.0380
       111        2.0000           -0.4034206             -10.9776
       112        2.0000           -0.4024969             -10.9525
       113        2.0000           -0.3972364             -10.8094
       114        2.0000           -0.3944517             -10.7336
       115        2.0000           -0.3907257             -10.6322
       116        2.0000           -0.3862509             -10.5104
       117        2.0000           -0.3834261             -10.4336
       118        2.0000           -0.3798079             -10.3351
       119        2.0000           -0.3736207             -10.1667 (HOMO)
       120                         -0.2499756              -6.8022 (LUMO)
       121                         -0.2390532              -6.5050
       122                         -0.2322558              -6.3200
       123                         -0.2316254              -6.3028
       124                         -0.2289664              -6.2305
       125                         -0.2235347              -6.0827
       126                         -0.2225212              -6.0551
       127                         -0.2175334              -5.9194
       128                         -0.2120180              -5.7693
       129                         -0.2020464              -5.4980
       130                         -0.1982820              -5.3955
       ...                                ...                  ...
       224                          0.6668151              18.1450
      -------------------------------------------------------------
                  HL-Gap            0.1236450 Eh            3.3646 eV

     #   Z          covCN         q      C6AA      Î±(0)
     1   6 C        2.868     0.146    24.820     8.166
     2   8 O        1.705    -0.268    18.442     5.798
     3   6 C        3.644     0.038    20.278     6.472
     4   6 C        2.918    -0.064    29.581     8.919
     5   6 C        2.921    -0.031    28.780     8.797
     6   6 C        2.917    -0.041    29.015     8.833
     7   6 C        2.925    -0.031    28.785     8.799
     8   6 C        2.974    -0.012    28.316     8.729
     9   6 C        3.826     0.042    19.851     6.340
    10   6 C        3.831     0.042    19.849     6.339
    11   6 C        2.968    -0.017    28.432     8.746
    12   6 C        2.927    -0.031    28.763     8.795
    13   6 C        2.917    -0.039    28.968     8.826
    14   6 C        2.921    -0.032    28.788     8.799
    15   6 C        2.918    -0.067    29.681     8.934
    16   6 C        2.864     0.140    24.953     8.188
    17   8 O        1.705    -0.276    18.581     5.820
    18   6 C        3.641     0.041    20.235     6.469
    19   7 N        2.770    -0.105    23.290     7.168
    20   6 C        2.761     0.271    22.415     7.753
    21   6 C        2.975    -0.017    28.441     8.748
    22   6 C        2.924    -0.026    28.658     8.779
    23   6 C        2.918    -0.030    28.745     8.792
    24   6 C        2.925    -0.034    28.841     8.807
    25   6 C        2.972     0.012    27.736     8.639
    26   6 C        3.855    -0.012    20.756     6.480
    27   6 C        3.756    -0.104    22.540     6.769
    28   6 C        3.756    -0.103    22.515     6.765
    29   6 C        2.928    -0.041    29.022     8.835
    30   8 O        0.859    -0.425    22.184     6.315
    31   6 C        3.762     0.091    19.117     6.233
    32   6 C        2.686     0.360    20.899     7.481
    33   8 O        1.659    -0.365    20.176     6.064
    34   8 O        0.856    -0.397    21.619     6.234
    35   7 N        2.766    -0.108    23.363     7.179
    36   6 C        2.766     0.273    22.383     7.748
    37   6 C        2.974    -0.020    28.505     8.758
    38   6 C        2.935    -0.030    28.756     8.795
    39   6 C        2.972     0.013    27.731     8.638
    40   6 C        3.855    -0.013    20.774     6.482
    41   6 C        3.755    -0.101    22.477     6.760
    42   6 C        3.757    -0.103    22.524     6.767
    43   6 C        2.925    -0.038    28.942     8.822
    44   6 C        2.919    -0.031    28.765     8.795
    45   6 C        2.919    -0.041    29.007     8.832
    46   8 O        0.859    -0.421    22.098     6.303
    47   1 H        0.924     0.047     2.354     2.399
    48   1 H        0.925     0.061     2.182     2.310
    49   1 H        0.924     0.040     2.452     2.449
    50   1 H        0.926     0.040     2.450     2.448
    51   1 H        0.926     0.037     2.487     2.466
    52   1 H        0.926     0.034     2.534     2.489
    53   1 H        0.926     0.028     2.616     2.529
    54   1 H        0.924     0.089     1.889     2.149
    55   1 H        0.924     0.074     2.038     2.233
    56   1 H        0.926     0.060     2.198     2.319
    57   1 H        0.926     0.042     2.426     2.436
    58   1 H        0.926     0.038     2.477     2.461
    59   1 H        0.926     0.038     2.476     2.461
    60   1 H        0.924     0.044     2.401     2.423
    61   1 H        0.924     0.037     2.496     2.471
    62   1 H        0.925     0.077     2.012     2.218
    63   1 H        0.926     0.043     2.403     2.424
    64   1 H        0.926     0.037     2.491     2.468
    65   1 H        0.926     0.039     2.468     2.457
    66   1 H        0.924     0.029     2.598     2.521
    67   1 H        0.925     0.039     2.462     2.454
    68   1 H        0.925     0.035     2.521     2.483
    69   1 H        0.925     0.038     2.470     2.458
    70   1 H        0.925     0.036     2.504     2.475
    71   1 H        0.925     0.039     2.458     2.452
    72   1 H        0.925     0.039     2.459     2.452
    73   1 H        0.925     0.025     2.666     2.553
    74   1 H        0.923     0.069     2.097     2.265
    75   1 H        0.804     0.338     0.616     1.233
    76   1 H        0.926     0.041     2.432     2.439
    77   1 H        0.924     0.032     2.563     2.504
    78   1 H        0.925     0.037     2.493     2.469
    79   1 H        0.925     0.039     2.463     2.454
    80   1 H        0.925     0.029     2.594     2.519
    81   1 H        0.925     0.042     2.419     2.432
    82   1 H        0.925     0.038     2.481     2.463
    83   1 H        0.925     0.035     2.517     2.481
    84   1 H        0.926     0.032     2.554     2.499
    85   1 H        0.926     0.033     2.547     2.496
    86   1 H        0.926     0.055     2.255     2.348

Wiberg/Mayer (AO) data.
largest (>0.10) Wiberg bond orders for each atom

     #   Z sym  total        # sym  WBO       # sym  WBO       # sym  WBO
 ---------------------------------------------------------------------------
     1   6 C    3.936 --     4 C    1.377     8 C    1.327     2 O    1.065
     2   8 O    2.237 --     1 C    1.065     3 C    0.983
     3   6 C    3.944 --     2 O    0.983    48 H    0.980    47 H    0.977
                            49 H    0.976
     4   6 C    3.987 --     5 C    1.439     1 C    1.377    50 H    0.965
                             7 C    0.102
     5   6 C    3.990 --     6 C    1.440     4 C    1.439    51 H    0.971
                             8 C    0.107
     6   6 C    3.991 --     5 C    1.440     7 C    1.429    52 H    0.971
     7   6 C    3.991 --     8 C    1.435     6 C    1.429    53 H    0.968
                             4 C    0.102
     8   6 C    3.984 --     7 C    1.435     1 C    1.327     9 C    0.990
                             5 C    0.107
     9   6 C    3.960 --     8 C    0.990    10 C    0.960    35 N    0.952
                            54 H    0.949
    10   6 C    3.962 --    11 C    0.988     9 C    0.960    55 H    0.953
                            19 N    0.951
    11   6 C    3.983 --    12 C    1.434    16 C    1.330    10 C    0.988
                            14 C    0.107
    12   6 C    3.987 --    11 C    1.434    13 C    1.428    56 H    0.965
                            15 C    0.103
    13   6 C    3.990 --    14 C    1.443    12 C    1.428    57 H    0.970
    14   6 C    3.990 --    13 C    1.443    15 C    1.436    58 H    0.971
                            11 C    0.107
    15   6 C    3.987 --    14 C    1.436    16 C    1.381    59 H    0.965
                            12 C    0.103
    16   6 C    3.931 --    15 C    1.381    11 C    1.330    17 O    1.050
    17   8 O    2.249 --    16 C    1.050    18 C    0.978
    18   6 C    3.939 --    17 O    0.978    60 H    0.976    61 H    0.976
                            62 H    0.976
    19   7 N    3.480 --    20 C    1.213    31 C    0.997    10 C    0.951
                            30 O    0.191
    20   6 C    3.945 --    30 O    1.687    19 N    1.213    21 C    0.960
    21   6 C    3.987 --    22 C    1.409    29 C    1.403    20 C    0.960
                            24 C    0.109
    22   6 C    3.990 --    23 C    1.436    21 C    1.409    63 H    0.969
                            25 C    0.108
    23   6 C    3.991 --    24 C    1.449    22 C    1.436    64 H    0.970
                            29 C    0.108
    24   6 C    3.991 --    23 C    1.449    25 C    1.405    65 H    0.966
                            21 C    0.109
    25   6 C    3.987 --    29 C    1.418    24 C    1.405    26 C    0.998
                            22 C    0.108
    26   6 C    3.995 --    27 C    0.999    25 C    0.998    28 C    0.995
                            66 H    0.964
    27   6 C    3.996 --    26 C    0.999    69 H    0.985    68 H    0.985
                            67 H    0.984
    28   6 C    3.996 --    26 C    0.995    70 H    0.987    72 H    0.986
                            71 H    0.985
    29   6 C    3.990 --    25 C    1.418    21 C    1.403    73 H    0.965
                            23 C    0.108
    30   8 O    2.012 --    20 C    1.687    19 N    0.191
    31   6 C    3.976 --    19 N    0.997    35 N    0.993    74 H    0.920
                            32 C    0.908
    32   6 C    3.916 --    34 O    1.760    33 O    1.148    31 C    0.908
    33   8 O    2.212 --    32 C    1.148    75 H    0.859    34 O    0.173
    34   8 O    2.051 --    32 C    1.760    33 O    0.173
    35   7 N    3.458 --    36 C    1.199    31 C    0.993     9 C    0.952
                            46 O    0.186
    36   6 C    3.942 --    46 O    1.696    35 N    1.199    37 C    0.962
    37   6 C    3.987 --    45 C    1.406    38 C    1.404    36 C    0.962
                            43 C    0.107
    38   6 C    3.990 --    39 C    1.416    37 C    1.404    76 H    0.964
                            44 C    0.110
    39   6 C    3.987 --    38 C    1.416    43 C    1.409    40 C    0.998
                            45 C    0.108
    40   6 C    3.995 --    41 C    1.001    39 C    0.998    42 C    0.994
                            77 H    0.968
    41   6 C    3.996 --    40 C    1.001    78 H    0.986    79 H    0.984
                            80 H    0.984
    42   6 C    3.995 --    40 C    0.994    83 H    0.987    81 H    0.986
                            82 H    0.985
    43   6 C    3.991 --    44 C    1.443    39 C    1.409    84 H    0.968
                            37 C    0.107
    44   6 C    3.992 --    43 C    1.443    45 C    1.438    85 H    0.970
                            38 C    0.110
    45   6 C    3.989 --    44 C    1.438    37 C    1.406    86 H    0.963
                            39 C    0.108
    46   8 O    2.019 --    36 C    1.696    35 N    0.186
    47   1 H    0.998 --     3 C    0.977
    48   1 H    0.996 --     3 C    0.980
    49   1 H    0.998 --     3 C    0.976
    50   1 H    0.998 --     4 C    0.965
    51   1 H    0.998 --     5 C    0.971
    52   1 H    0.999 --     6 C    0.971
    53   1 H    0.999 --     7 C    0.968
    54   1 H    0.991 --     9 C    0.949
    55   1 H    0.994 --    10 C    0.953
    56   1 H    0.996 --    12 C    0.965
    57   1 H    0.998 --    13 C    0.970
    58   1 H    0.998 --    14 C    0.971
    59   1 H    0.998 --    15 C    0.965
    60   1 H    0.998 --    18 C    0.976
    61   1 H    0.999 --    18 C    0.976
    62   1 H    0.994 --    18 C    0.976
    63   1 H    0.998 --    22 C    0.969
    64   1 H    0.998 --    23 C    0.970
    65   1 H    0.998 --    24 C    0.966
    66   1 H    0.999 --    26 C    0.964
    67   1 H    0.998 --    27 C    0.984
    68   1 H    0.999 --    27 C    0.985
    69   1 H    0.998 --    27 C    0.985
    70   1 H    0.999 --    28 C    0.987
    71   1 H    0.998 --    28 C    0.985
    72   1 H    0.998 --    28 C    0.986
    73   1 H    0.999 --    29 C    0.965
    74   1 H    0.994 --    31 C    0.920
    75   1 H    0.885 --    33 O    0.859
    76   1 H    0.998 --    38 C    0.964
    77   1 H    0.998 --    40 C    0.968
    78   1 H    0.998 --    41 C    0.986
    79   1 H    0.998 --    41 C    0.984
    80   1 H    0.999 --    41 C    0.984
    81   1 H    0.998 --    42 C    0.986
    82   1 H    0.998 --    42 C    0.985
    83   1 H    0.999 --    42 C    0.987
    84   1 H    0.998 --    43 C    0.968
    85   1 H    0.998 --    44 C    0.970
    86   1 H    0.996 --    45 C    0.963
 ---------------------------------------------------------------------------

molecular dipole:
                 x           y           z       tot (Debye)
 q only:       -0.534       0.124      -0.167
   full:       -0.768       0.224      -0.368       2.238

           -------------------------------------------------
          | TOTAL ENERGY             -132.081798752767 Eh   |
          | GRADIENT NORM               0.000537536422 Eh/Î± |
          | HOMO-LUMO GAP               3.364552192951 eV   |
           -------------------------------------------------

 * finished run on 2022/03/16 at 22:52:56.747
