   * xtb version 6.3.3 (4ae9cef) compiled by 'conda@95abc7406d43' on 2020-10-14
          program call               : xtb acid_301.xyz --opt --chrg 0 --uhf 0 --gfn 2
          number of atoms            :                    72
          number of electrons        :                   254
          charge                     :                     0
          spin                       :                   0.0

   ID    Z sym.   atoms
    1    6 C      1, 2, 6-15, 19-22, 24-32, 35, 36, 40-48
    2    9 F      3-5, 16-18
    3    7 N      23, 39
    4    8 O      33, 34, 37, 38, 49, 50
    5    1 H      51-72

          :  Hamiltonian                  GFN2-xTB          :
 * total energy  :  -146.9880245 Eh     change       -0.4703651E-08 Eh
 * total energy  :  -147.0084531 Eh     change       -0.2042862E-01 Eh
 * total energy  :  -147.0140735 Eh     change       -0.5620379E-02 Eh
 * total energy  :  -147.0154667 Eh     change       -0.1393208E-02 Eh
 * total energy  :  -147.0163371 Eh     change       -0.8703492E-03 Eh
 * total energy  :  -147.0170163 Eh     change       -0.6792286E-03 Eh
 * total energy  :  -147.0175868 Eh     change       -0.5704576E-03 Eh
 * total energy  :  -147.0182080 Eh     change       -0.6212583E-03 Eh
 * total energy  :  -147.0188764 Eh     change       -0.6684327E-03 Eh
 * total energy  :  -147.0195360 Eh     change       -0.6595112E-03 Eh
 * total energy  :  -147.0309597 Eh     change       -0.1031460E-04 Eh
 * total energy  :  -147.0309786 Eh     change       -0.1893598E-04 Eh
 * total energy  :  -147.0309916 Eh     change       -0.1294487E-04 Eh
 * total energy  :  -147.0310031 Eh     change       -0.1153037E-04 Eh
 * total energy  :  -147.0310173 Eh     change       -0.1417275E-04 Eh
 * total energy  :  -147.0310233 Eh     change       -0.5994912E-05 Eh
 * total energy  :  -147.0310297 Eh     change       -0.6424385E-05 Eh
 * total energy  :  -147.0310353 Eh     change       -0.5652913E-05 Eh
 * total energy  :  -147.0310398 Eh     change       -0.4461475E-05 Eh
   *** GEOMETRY OPTIMIZATION CONVERGED AFTER 125 ITERATIONS ***

 final structure:
================
72
 xtb: 6.3.3 (4ae9cef)
C         2.05636085293428   -3.62767348818202    1.47144466747024
C         1.93625765477375   -4.79377880730394    0.52801161201392
F         0.68058088175141   -4.97210953285393    0.06560307356233
F         2.70682432447317   -4.66382704654506   -0.57057922891631
F         2.28915542179044   -5.95677771467076    1.08595139748681
C         2.60300923755750   -3.84507421623405    2.72907057522940
C         2.72582348565227   -2.79853199902683    3.62393091820738
C         2.30633377198652   -1.53287423990034    3.25873070237057
C         1.76744572675276   -1.31545786150069    2.00416866138537
C         1.63255642203456   -2.35152332352924    1.09051768792848
C         0.98707900478991   -2.12079157538753   -0.25743821853847
C        -0.54320164338896   -2.27850359859686   -0.13130481627213
C        -1.26652633418391   -2.67035774669541   -1.40472574388579
C        -2.64231567398211   -2.93775746360344   -1.39621515602732
C        -3.45846431549491   -2.93377688409632   -0.12665565193096
F        -4.69523513741164   -3.42439578027696   -0.31962536223326
F        -3.63892560835921   -1.70396691842226    0.38197287627078
F        -2.92727863305684   -3.69051956609986    0.84541356733635
C        -3.31662205996739   -3.21551750865352   -2.57826445137127
C        -2.64290563996802   -3.24900513767625   -3.78459767593733
C        -1.28306750054705   -3.01226822190399   -3.80513212626017
C        -0.61167403720571   -2.72480247137328   -2.62985169685323
N        -0.93345984723035   -0.92633998553698    0.25641809592677
C        -1.36281883721720   -0.69177169926303    1.54268491598263
C        -1.75562282242379    0.67878975565428    1.88516642469469
C        -2.30568217727832    1.07081028253143    3.07367248023461
C        -2.59995060893977    2.45526042550415    2.94244479403632
C        -3.16244648873042    3.42977600157759    3.76795853998513
C        -3.29330041982407    4.70538508031343    3.26838668505816
C        -2.87799452447138    5.02847536967686    1.97293579870114
C        -2.31734501344895    4.08538509728539    1.13635570754339
C        -2.18764750409241    2.79889794164065    1.63711699749765
O        -1.66971669442582    1.72187134897349    1.00703010985042
O        -1.48368250073051   -1.59431903004490    2.34527056945780
C        -0.15547999068325   -0.04019652736063   -0.56380537512988
C        -0.88370195559165    0.19507456192786   -1.91920991853758
O        -0.10307811321991    0.21211032456503   -2.99830702495001
O        -2.06062961221116    0.37471239170116   -1.97532647474461
N         1.11853255764944   -0.73580857757295   -0.71309211596476
C         2.37624439089585   -0.22198639953462   -0.87647854444972
C         2.51695463183207    1.20818091138290   -1.18627184020673
C         3.69480657609846    1.88647092245688   -1.32434089533649
C         3.34974526850945    3.23466471385287   -1.61831675978827
C         1.93978396880780    3.26338949159815   -1.63756047602936
C         1.22379397480342    4.42191766349263   -1.89492116284011
C         1.95742044310874    5.56555587177145   -2.13481014743834
C         3.35580608331658    5.55686744498190   -2.12125234082432
C         4.06643097030674    4.40607846045099   -1.86700053123171
O         1.43954375522611    2.03366532508140   -1.37494697554474
O         3.35467163153162   -0.94307154174224   -0.81138365548294
H         2.92838144078112   -4.83580474238391    3.00537801273598
H         3.14731680329335   -2.97452451305417    4.60092559018881
H         2.39460468137792   -0.70961623820444    3.95090104605192
H         1.45388528297573   -0.31709250456512    1.73806113230358
H         1.44159699856692   -2.78516588035333   -0.99229717933439
H        -0.80103553088053   -2.95541780081252    0.68731488605756
H        -4.37755959503421   -3.40779372170589   -2.55204051431648
H        -3.17934965937441   -3.46064998103334   -4.69577664061768
H        -0.73662940384201   -3.03992720727249   -4.73516707484365
H         0.44904434750703   -2.54378282506469   -2.69316846388345
H        -2.47975592361755    0.43415605478781    3.91619845079699
H        -3.48571021397194    3.17978044426392    4.76626591136469
H        -3.72795963149591    5.47836338659054    3.88409348201803
H        -3.00278628950849    6.04076213195471    1.61969534422889
H        -2.00237148501391    4.32513650116032    0.13378657839400
H        -0.04073120538337    0.94163362139490   -0.09582713981772
H         0.82488836724608    0.02540916323845   -2.78707978604402
H         4.67165763332526    1.46050448579999   -1.22427934208677
H         0.14610791368555    4.41592766596290   -1.91063140642826
H         1.44086168637028    6.49071069726947   -2.33949382270045
H         3.88424851142213    6.47751873238691   -2.31691387814191
H         5.14491092907057    4.39931800679734   -1.85878867747006

          :  Hamiltonian                  GFN2-xTB          :
         :: total energy            -147.031039805793 Eh    ::
         :: gradient norm              0.000630985036 Eh/a0 ::
         :: HOMO-LUMO gap              2.811156626201 eV    ::
         :: SCC energy              -148.815633565022 Eh    ::
         :: -> dispersion             -0.106530674587 Eh    ::
         :: repulsion energy           1.781362604566 Eh    ::

    * Orbital Energies and Occupations

         #    Occupation            Energy/Eh            Energy/eV
      -------------------------------------------------------------
         1        2.0000           -0.8786430             -23.9091
       ...           ...                  ...                  ...
       115        2.0000           -0.4415547             -12.0153
       116        2.0000           -0.4406509             -11.9907
       117        2.0000           -0.4398999             -11.9703
       118        2.0000           -0.4386330             -11.9358
       119        2.0000           -0.4356973             -11.8559
       120        2.0000           -0.4309998             -11.7281
       121        2.0000           -0.4275531             -11.6343
       122        2.0000           -0.4245570             -11.5528
       123        2.0000           -0.4199542             -11.4275
       124        2.0000           -0.4164933             -11.3334
       125        2.0000           -0.4154033             -11.3037
       126        2.0000           -0.4096175             -11.1463
       127        2.0000           -0.4028348             -10.9617 (HOMO)
       128                         -0.2995267              -8.1505 (LUMO)
       129                         -0.2872100              -7.8154
       130                         -0.2697194              -7.3394
       131                         -0.2665999              -7.2546
       132                         -0.2575792              -7.0091
       133                         -0.2556364              -6.9562
       134                         -0.2540870              -6.9141
       135                         -0.2453584              -6.6765
       136                         -0.2342069              -6.3731
       137                         -0.2328158              -6.3352
       138                         -0.2213343              -6.0228
       ...                                ...                  ...
       222                          0.7117485              19.3677
      -------------------------------------------------------------
                  HL-Gap            0.1033081 Eh            2.8112 eV

     #   Z          covCN         q      C6AA      Î±(0)
     1   6 C        2.978    -0.028    28.703     8.788
     2   6 C        3.335     0.485    17.309     6.590
     3   9 F        0.791    -0.217    11.411     3.990
     4   9 F        0.791    -0.209    11.329     3.976
     5   9 F        0.792    -0.198    11.219     3.957
     6   6 C        2.923    -0.019    28.483     8.752
     7   6 C        2.920    -0.020    28.517     8.757
     8   6 C        2.919    -0.016    28.401     8.739
     9   6 C        2.925    -0.017    28.436     8.745
    10   6 C        2.972     0.021    27.523     8.605
    11   6 C        3.835     0.044    19.809     6.332
    12   6 C        3.859     0.035    19.942     6.351
    13   6 C        2.966     0.011    27.771     8.644
    14   6 C        2.977    -0.022    28.555     8.765
    15   6 C        3.336     0.487    17.277     6.583
    16   9 F        0.793    -0.206    11.297     3.970
    17   9 F        0.791    -0.205    11.284     3.968
    18   9 F        0.791    -0.201    11.244     3.961
    19   6 C        2.925    -0.018    28.467     8.750
    20   6 C        2.919    -0.019    28.494     8.754
    21   6 C        2.919    -0.017    28.432     8.744
    22   6 C        2.926    -0.032    28.794     8.800
    23   7 N        2.772    -0.116    23.532     7.205
    24   6 C        2.759     0.269    22.452     7.759
    25   6 C        3.093     0.093    25.831     8.330
    26   6 C        2.988    -0.048    29.188     8.862
    27   6 C        3.083    -0.008    28.116     8.693
    28   6 C        2.911    -0.031    28.777     8.796
    29   6 C        2.920    -0.035    28.864     8.810
    30   6 C        2.927    -0.029    28.736     8.791
    31   6 C        2.907    -0.049    29.212     8.862
    32   6 C        3.114     0.132    24.968     8.185
    33   8 O        1.719    -0.214    17.554     5.657
    34   8 O        0.860    -0.408    21.838     6.266
    35   6 C        3.782     0.072    19.392     6.273
    36   6 C        2.685     0.352    21.024     7.504
    37   8 O        1.659    -0.353    19.955     6.030
    38   8 O        0.856    -0.341    20.540     6.076
    39   7 N        2.762    -0.139    24.016     7.278
    40   6 C        2.758     0.253    22.756     7.812
    41   6 C        3.087     0.078    26.159     8.384
    42   6 C        2.985    -0.049    29.199     8.864
    43   6 C        3.083    -0.009    28.138     8.696
    44   6 C        3.108     0.132    24.989     8.190
    45   6 C        2.907    -0.049    29.207     8.862
    46   6 C        2.928    -0.027    28.684     8.783
    47   6 C        2.921    -0.033    28.827     8.805
    48   6 C        2.911    -0.031    28.772     8.796
    49   8 O        1.719    -0.232    17.839     5.703
    50   8 O        0.860    -0.424    22.174     6.313
    51   1 H        0.926     0.070     2.090     2.261
    52   1 H        0.926     0.059     2.209     2.324
    53   1 H        0.926     0.055     2.261     2.351
    54   1 H        0.926     0.034     2.524     2.484
    55   1 H        0.925     0.079     1.989     2.206
    56   1 H        0.924     0.105     1.742     2.064
    57   1 H        0.926     0.072     2.061     2.245
    58   1 H        0.926     0.060     2.197     2.318
    59   1 H        0.926     0.058     2.217     2.329
    60   1 H        0.926     0.050     2.325     2.385
    61   1 H        0.927     0.072     2.060     2.245
    62   1 H        0.926     0.048     2.344     2.394
    63   1 H        0.926     0.044     2.392     2.418
    64   1 H        0.926     0.046     2.370     2.407
    65   1 H        0.926     0.049     2.334     2.389
    66   1 H        0.924     0.098     1.802     2.099
    67   1 H        0.804     0.332     0.631     1.248
    68   1 H        0.926     0.072     2.069     2.249
    69   1 H        0.926     0.054     2.271     2.357
    70   1 H        0.926     0.050     2.318     2.381
    71   1 H        0.926     0.047     2.352     2.398
    72   1 H        0.926     0.050     2.324     2.384

Wiberg/Mayer (AO) data.
largest (>0.10) Wiberg bond orders for each atom

     #   Z sym  total        # sym  WBO       # sym  WBO       # sym  WBO
 ---------------------------------------------------------------------------
     1   6 C    3.970 --     6 C    1.420    10 C    1.377     2 C    0.951
                             8 C    0.107
     2   6 C    3.822 --     5 F    0.958     1 C    0.951     4 F    0.939
                             3 F    0.935
     3   9 F    1.062 --     2 C    0.935
     4   9 F    1.070 --     2 C    0.939
     5   9 F    1.081 --     2 C    0.958
     6   6 C    3.987 --     7 C    1.437     1 C    1.420    51 H    0.965
                             9 C    0.108
     7   6 C    3.989 --     8 C    1.440     6 C    1.437    52 H    0.969
                            10 C    0.108
     8   6 C    3.990 --     7 C    1.440     9 C    1.439    53 H    0.969
                             1 C    0.107
     9   6 C    3.991 --     8 C    1.439    10 C    1.419    54 H    0.966
                             6 C    0.108
    10   6 C    3.985 --     9 C    1.419     1 C    1.377    11 C    0.990
                             7 C    0.108
    11   6 C    3.964 --    10 C    0.990    39 N    0.961    12 C    0.957
                            55 H    0.944
    12   6 C    3.962 --    13 C    0.987    23 N    0.960    11 C    0.957
                            56 H    0.940
    13   6 C    3.985 --    22 C    1.420    14 C    1.377    12 C    0.987
                            20 C    0.109
    14   6 C    3.974 --    19 C    1.426    13 C    1.377    15 C    0.948
                            21 C    0.108
    15   6 C    3.827 --    18 F    0.949    14 C    0.948    16 F    0.947
                            17 F    0.945
    16   9 F    1.070 --    15 C    0.947
    17   9 F    1.077 --    15 C    0.945
    18   9 F    1.080 --    15 C    0.949
    19   6 C    3.986 --    20 C    1.434    14 C    1.426    57 H    0.964
                            22 C    0.107
    20   6 C    3.989 --    21 C    1.444    19 C    1.434    58 H    0.968
                            13 C    0.109
    21   6 C    3.989 --    20 C    1.444    22 C    1.435    59 H    0.969
                            14 C    0.108
    22   6 C    3.990 --    21 C    1.435    13 C    1.420    60 H    0.960
                            19 C    0.107
    23   7 N    3.425 --    24 C    1.151    35 C    0.996    12 C    0.960
                            34 O    0.172
    24   6 C    3.952 --    34 O    1.679    23 N    1.151    25 C    1.031
    25   6 C    3.913 --    26 C    1.571    33 O    1.069    24 C    1.031
    26   6 C    3.982 --    25 C    1.571    27 C    1.228    61 H    0.969
    27   6 C    3.986 --    28 C    1.320    32 C    1.265    26 C    1.228
    28   6 C    3.983 --    29 C    1.510    27 C    1.320    62 H    0.968
                            31 C    0.116
    29   6 C    3.990 --    28 C    1.510    30 C    1.374    63 H    0.970
    30   6 C    3.979 --    31 C    1.486    29 C    1.374    64 H    0.971
    31   6 C    3.988 --    30 C    1.486    32 C    1.351    65 H    0.967
                            28 C    0.116
    32   6 C    3.918 --    31 C    1.351    27 C    1.265    33 O    1.086
    33   8 O    2.395 --    32 C    1.086    25 C    1.069
    34   8 O    2.017 --    24 C    1.679    23 N    0.172
    35   6 C    3.960 --    23 N    0.996    39 N    0.966    66 H    0.924
                            36 C    0.900
    36   6 C    3.926 --    38 O    1.813    37 O    1.148    35 C    0.900
    37   8 O    2.227 --    36 C    1.148    67 H    0.852    38 O    0.171
    38   8 O    2.100 --    36 C    1.813    37 O    0.171
    39   7 N    3.447 --    40 C    1.181    35 C    0.966    11 C    0.961
                            50 O    0.187
    40   6 C    3.958 --    50 O    1.652    39 N    1.181    41 C    1.028
    41   6 C    3.909 --    42 C    1.576    49 O    1.059    40 C    1.028
    42   6 C    3.983 --    41 C    1.576    43 C    1.225    68 H    0.969
    43   6 C    3.986 --    48 C    1.319    44 C    1.270    42 C    1.225
    44   6 C    3.918 --    45 C    1.352    43 C    1.270    49 O    1.079
    45   6 C    3.987 --    46 C    1.486    44 C    1.352    69 H    0.966
                            48 C    0.116
    46   6 C    3.979 --    45 C    1.486    47 C    1.374    70 H    0.970
    47   6 C    3.990 --    48 C    1.511    46 C    1.374    71 H    0.970
    48   6 C    3.983 --    47 C    1.511    43 C    1.319    72 H    0.968
                            45 C    0.116
    49   8 O    2.374 --    44 C    1.079    41 C    1.059
    50   8 O    1.997 --    40 C    1.652    39 N    0.187
    51   1 H    0.995 --     6 C    0.965
    52   1 H    0.996 --     7 C    0.969
    53   1 H    0.996 --     8 C    0.969
    54   1 H    0.998 --     9 C    0.966
    55   1 H    0.993 --    11 C    0.944
    56   1 H    0.988 --    12 C    0.940
    57   1 H    0.994 --    19 C    0.964
    58   1 H    0.995 --    20 C    0.968
    59   1 H    0.996 --    21 C    0.969
    60   1 H    0.997 --    22 C    0.960
    61   1 H    0.994 --    26 C    0.969
    62   1 H    0.998 --    28 C    0.968
    63   1 H    0.998 --    29 C    0.970
    64   1 H    0.997 --    30 C    0.971
    65   1 H    0.997 --    31 C    0.967
    66   1 H    0.990 --    35 C    0.924
    67   1 H    0.889 --    37 O    0.852
    68   1 H    0.994 --    42 C    0.969
    69   1 H    0.997 --    45 C    0.966
    70   1 H    0.997 --    46 C    0.970
    71   1 H    0.997 --    47 C    0.970
    72   1 H    0.998 --    48 C    0.968
 ---------------------------------------------------------------------------

molecular dipole:
                 x           y           z       tot (Debye)
 q only:        1.239       2.824      -0.323
   full:        1.519       3.033      -0.253       8.645

           -------------------------------------------------
          | TOTAL ENERGY             -147.031039805793 Eh   |
          | GRADIENT NORM               0.000630985036 Eh/Î± |
          | HOMO-LUMO GAP               2.811156626201 eV   |
           -------------------------------------------------

 * finished run on 2022/03/16 at 23:35:13.816
