   * xtb version 6.3.3 (4ae9cef) compiled by 'conda@95abc7406d43' on 2020-10-14
          program call               : xtb acid_365.xyz --opt --chrg 0 --uhf 0 --gfn 2
          number of atoms            :                    66
          number of electrons        :                   230
          charge                     :                     0
          spin                       :                   0.0

   ID    Z sym.   atoms
    1    6 C      1, 2, 6-15, 19-22, 24-29, 32, 33, 37-42
    2    9 F      3-5, 16-18
    3    7 N      23, 36
    4    8 O      30, 31, 34, 35, 43, 44
    5    1 H      45-66

          :  Hamiltonian                  GFN2-xTB          :
 * total energy  :  -134.1517132 Eh     change       -0.2431250E-08 Eh
 * total energy  :  -134.1661850 Eh     change       -0.1447175E-01 Eh
 * total energy  :  -134.1706524 Eh     change       -0.4467440E-02 Eh
 * total energy  :  -134.1717585 Eh     change       -0.1106048E-02 Eh
 * total energy  :  -134.1724045 Eh     change       -0.6459658E-03 Eh
 * total energy  :  -134.1727718 Eh     change       -0.3673497E-03 Eh
 * total energy  :  -134.1731225 Eh     change       -0.3507216E-03 Eh
 * total energy  :  -134.1734929 Eh     change       -0.3703501E-03 Eh
 * total energy  :  -134.1738326 Eh     change       -0.3397360E-03 Eh
 * total energy  :  -134.1740906 Eh     change       -0.2580332E-03 Eh
 * total energy  :  -134.1871570 Eh     change       -0.7509451E-05 Eh
 * total energy  :  -134.1871642 Eh     change       -0.7191693E-05 Eh
 * total energy  :  -134.1871729 Eh     change       -0.8722743E-05 Eh
 * total energy  :  -134.1871838 Eh     change       -0.1084058E-04 Eh
 * total energy  :  -134.1871956 Eh     change       -0.1181696E-04 Eh
 * total energy  :  -134.1872028 Eh     change       -0.7145393E-05 Eh
 * total energy  :  -134.1872106 Eh     change       -0.7856661E-05 Eh
 * total energy  :  -134.1872181 Eh     change       -0.7519054E-05 Eh
 * total energy  :  -134.1872220 Eh     change       -0.3847831E-05 Eh
   *** GEOMETRY OPTIMIZATION CONVERGED AFTER 170 ITERATIONS ***

 final structure:
================
66
 xtb: 6.3.3 (4ae9cef)
C         1.74617599900274   -3.38894710522139   -0.42045330086425
C         1.39517551527065   -3.53537235964628   -1.87465435887199
F         0.05792086944622   -3.60963360477618   -2.07505964071240
F         1.90005043501971   -4.64599680049438   -2.42711123876873
F         1.81613814873625   -2.52011409066635   -2.64846488167396
C         2.49127799518493   -4.39557261913929    0.18211138564907
C         2.81866853069212   -4.31545443354283    1.52147739392802
C         2.39749371728227   -3.22856129927925    2.26679688181424
C         1.65391799064793   -2.23012354988630    1.66988518456606
C         1.31944461876926   -2.28776014834256    0.32160286874087
C         0.49763620023901   -1.16898460933756   -0.26005537786631
C        -0.95492693657581   -1.15333890353314    0.25784530486045
C        -1.89811684486711   -1.94366862048348   -0.61141207091562
C        -2.46074027682267   -3.15761933316702   -0.21472069301507
C        -2.15766986932665   -3.76333938655390    1.12692146605029
F        -2.80053023068333   -4.91880526431373    1.33935022988127
F        -2.46832067638905   -2.97710563305711    2.17198558417511
F        -0.84183123743752   -4.05296581528369    1.27418844890188
C        -3.30488705298702   -3.85383488432825   -1.07167486199080
C        -3.59741855943100   -3.35217284544073   -2.32463893509903
C        -3.04224561918182   -2.15096534888698   -2.72763968719920
C        -2.20012704462367   -1.46007068161464   -1.87913693378695
N        -1.27474179010855    0.27228399012378    0.25629607994639
C        -2.56386739067763    0.67770928970560    0.46088649183465
C        -2.83144837393020    2.11513890552880    0.46274490846470
C        -4.04323866228134    2.74489939614140    0.61112590296210
C        -3.78981864434286    4.12667953513349    0.50403179688510
C        -2.44304425529454    4.26015086253848    0.29714798033647
C        -1.56751651585445    5.44669801248164    0.11589897646620
O        -1.86052412617421    3.04686478982828    0.27311300990798
O        -3.46152585471940   -0.13147721155893    0.60723709297499
C        -0.08720502824591    1.08455069864046    0.22921313141188
C         0.04112388189406    1.96595441626384   -1.03296886555637
O        -0.54335817082886    1.41676342541901   -2.09155203552606
O         0.66956979093140    2.98601765975188   -1.07333763384957
N         0.99682560035671    0.12357527791042    0.20062838647532
C         2.33057891697127    0.42618825522131    0.05483545696315
C         2.74720890475310    1.73439137300073    0.58922069122716
C         2.41272829095109    2.42012476403154    1.72980564119328
C         3.24395414468913    3.55787839245609    1.76232362794843
C         4.02789938238650    3.49189175304193    0.64280707732644
C         5.07066885223503    4.41088172733878    0.11968612741352
O         3.73923138960469    2.38439373295562   -0.05457331316420
O         3.10913895091857   -0.37161750486432   -0.42145574380333
H         2.81478087950057   -5.24187736825046   -0.40337121609181
H         3.39957480714945   -5.10064603480817    1.97921362155619
H         2.64674371195258   -3.15855963794502    3.31455103262709
H         1.33129843530680   -1.38028844816480    2.25247022671277
H         0.49598310897556   -1.19657385282972   -1.35534784905618
H        -0.97879657743923   -1.51345959514870    1.29215208027853
H        -3.73321514043596   -4.79098025778071   -0.75220938413613
H        -4.25546464310343   -3.89954010329070   -2.98117757268834
H        -3.26367552538901   -1.75150351771285   -3.70566011047341
H        -1.77436879639164   -0.52083906701408   -2.19458662206029
H        -4.98190263484502    2.25746009185069    0.77407076403840
H        -4.50630713283813    4.91934062493642    0.57016691836153
H        -0.61450329493822    5.12649509083839   -0.29898387498138
H        -2.03649284535484    6.16770652518489   -0.54938943164174
H        -1.38300342251733    5.93581835716013    1.07225101828736
H        -0.01229926959640    1.74375526860693    1.10349820573740
H        -0.38874376644559    1.94794774975269   -2.89082473247424
H         1.69441979133649    2.13581151110886    2.47204265632400
H         3.25884456869465    4.32080151780211    2.51329006380605
H         4.74085207003990    4.86066342852149   -0.81614179450249
H         5.26690726094732    5.19677717064271    0.84246407513063
H         5.98964745020170    3.86215734240717   -0.07873563042385

          :  Hamiltonian                  GFN2-xTB          :
         :: total energy            -134.187221975599 Eh    ::
         :: gradient norm              0.000510160851 Eh/a0 ::
         :: HOMO-LUMO gap              3.209999549016 eV    ::
         :: SCC energy              -135.686769950125 Eh    ::
         :: -> dispersion             -0.093179472849 Eh    ::
         :: repulsion energy           1.496666053705 Eh    ::

    * Orbital Energies and Occupations

         #    Occupation            Energy/Eh            Energy/eV
      -------------------------------------------------------------
         1        2.0000           -0.8730703             -23.7575
       ...           ...                  ...                  ...
       103        2.0000           -0.4449951             -12.1089
       104        2.0000           -0.4444908             -12.0952
       105        2.0000           -0.4362543             -11.8711
       106        2.0000           -0.4336948             -11.8014
       107        2.0000           -0.4313843             -11.7386
       108        2.0000           -0.4296102             -11.6903
       109        2.0000           -0.4275518             -11.6343
       110        2.0000           -0.4208627             -11.4523
       111        2.0000           -0.4105882             -11.1727
       112        2.0000           -0.4067534             -11.0683
       113        2.0000           -0.4056644             -11.0387
       114        2.0000           -0.4018014             -10.9336
       115        2.0000           -0.3923683             -10.6769 (HOMO)
       116                         -0.2744030              -7.4669 (LUMO)
       117                         -0.2682655              -7.2999
       118                         -0.2610508              -7.1036
       119                         -0.2579080              -7.0180
       120                         -0.2544171              -6.9230
       121                         -0.2492048              -6.7812
       122                         -0.2438437              -6.6353
       123                         -0.1975653              -5.3760
       124                         -0.1956518              -5.3240
       125                         -0.1610554              -4.3825
       126                         -0.1485234              -4.0415
       ...                                ...                  ...
       198                          0.6914758              18.8160
      -------------------------------------------------------------
                  HL-Gap            0.1179653 Eh            3.2100 eV

     #   Z          covCN         q      C6AA      Î±(0)
     1   6 C        2.976    -0.023    28.565     8.767
     2   6 C        3.336     0.486    17.297     6.587
     3   9 F        0.791    -0.224    11.483     4.003
     4   9 F        0.792    -0.201    11.240     3.960
     5   9 F        0.791    -0.204    11.275     3.967
     6   6 C        2.924    -0.019    28.471     8.750
     7   6 C        2.920    -0.020    28.502     8.755
     8   6 C        2.919    -0.015    28.381     8.736
     9   6 C        2.928    -0.022    28.554     8.763
    10   6 C        2.972     0.027    27.401     8.586
    11   6 C        3.833     0.050    19.712     6.317
    12   6 C        3.830     0.047    19.772     6.327
    13   6 C        2.971     0.029    27.352     8.579
    14   6 C        2.976    -0.024    28.590     8.771
    15   6 C        3.336     0.485    17.304     6.589
    16   9 F        0.792    -0.201    11.241     3.961
    17   9 F        0.791    -0.204    11.279     3.967
    18   9 F        0.791    -0.226    11.503     4.006
    19   6 C        2.924    -0.019    28.485     8.752
    20   6 C        2.920    -0.021    28.520     8.758
    21   6 C        2.919    -0.016    28.400     8.739
    22   6 C        2.927    -0.025    28.628     8.775
    23   7 N        2.765    -0.108    23.363     7.179
    24   6 C        2.758     0.260    22.614     7.787
    25   6 C        3.088     0.072    26.298     8.406
    26   6 C        3.013    -0.044    29.064     8.843
    27   6 C        3.010    -0.073    29.804     8.955
    28   6 C        3.084     0.130    25.077     8.209
    29   6 C        3.753    -0.124    22.944     6.831
    30   8 O        1.730    -0.212    17.513     5.651
    31   8 O        0.860    -0.426    22.202     6.317
    32   6 C        3.757     0.088    19.176     6.243
    33   6 C        2.689     0.358    20.926     7.486
    34   8 O        1.659    -0.355    19.990     6.036
    35   8 O        0.856    -0.391    21.511     6.218
    36   7 N        2.772    -0.133    23.885     7.259
    37   6 C        2.756     0.266    22.502     7.768
    38   6 C        3.106     0.075    26.198     8.386
    39   6 C        3.016    -0.061    29.483     8.907
    40   6 C        3.015    -0.074    29.814     8.957
    41   6 C        3.102     0.128    25.075     8.206
    42   6 C        3.753    -0.120    22.861     6.818
    43   8 O        1.732    -0.162    16.733     5.523
    44   8 O        0.859    -0.399    21.667     6.241
    45   1 H        0.926     0.069     2.097     2.264
    46   1 H        0.926     0.059     2.211     2.325
    47   1 H        0.926     0.057     2.230     2.335
    48   1 H        0.926     0.050     2.316     2.380
    49   1 H        0.924     0.065     2.147     2.291
    50   1 H        0.924     0.066     2.132     2.283
    51   1 H        0.926     0.067     2.114     2.274
    52   1 H        0.926     0.057     2.234     2.338
    53   1 H        0.926     0.054     2.265     2.353
    54   1 H        0.926     0.062     2.170     2.304
    55   1 H        0.927     0.067     2.120     2.277
    56   1 H        0.926     0.050     2.319     2.381
    57   1 H        0.925     0.080     1.977     2.199
    58   1 H        0.925     0.065     2.146     2.291
    59   1 H        0.925     0.068     2.107     2.270
    60   1 H        0.924     0.080     1.982     2.202
    61   1 H        0.804     0.344     0.602     1.219
    62   1 H        0.926     0.036     2.507     2.476
    63   1 H        0.926     0.044     2.390     2.418
    64   1 H        0.925     0.070     2.083     2.257
    65   1 H        0.925     0.060     2.197     2.318
    66   1 H        0.925     0.070     2.081     2.256

Wiberg/Mayer (AO) data.
largest (>0.10) Wiberg bond orders for each atom

     #   Z sym  total        # sym  WBO       # sym  WBO       # sym  WBO
 ---------------------------------------------------------------------------
     1   6 C    3.970 --     6 C    1.411    10 C    1.387     2 C    0.952
                             8 C    0.105
     2   6 C    3.821 --     4 F    0.956     1 C    0.952     5 F    0.946
                             3 F    0.928
     3   9 F    1.055 --     2 C    0.928
     4   9 F    1.078 --     2 C    0.956
     5   9 F    1.076 --     2 C    0.946
     6   6 C    3.987 --     7 C    1.445     1 C    1.411    45 H    0.965
                             9 C    0.109
     7   6 C    3.989 --     6 C    1.445     8 C    1.431    46 H    0.969
                            10 C    0.108
     8   6 C    3.990 --     9 C    1.450     7 C    1.431    47 H    0.969
                             1 C    0.105
     9   6 C    3.990 --     8 C    1.450    10 C    1.407    48 H    0.966
                             6 C    0.109
    10   6 C    3.986 --     9 C    1.407     1 C    1.387    11 C    0.997
                             7 C    0.108
    11   6 C    3.966 --    10 C    0.997    36 N    0.957    49 H    0.951
                            12 C    0.951
    12   6 C    3.966 --    13 C    0.996    23 N    0.957    50 H    0.951
                            11 C    0.951
    13   6 C    3.986 --    22 C    1.407    14 C    1.385    12 C    0.996
                            20 C    0.108
    14   6 C    3.969 --    19 C    1.412    13 C    1.385    15 C    0.952
                            21 C    0.105
    15   6 C    3.820 --    16 F    0.956    14 C    0.952    17 F    0.946
                            18 F    0.926
    16   9 F    1.078 --    15 C    0.956
    17   9 F    1.076 --    15 C    0.946
    18   9 F    1.053 --    15 C    0.926
    19   6 C    3.987 --    20 C    1.444    14 C    1.412    51 H    0.966
                            22 C    0.109
    20   6 C    3.989 --    19 C    1.444    21 C    1.432    52 H    0.969
                            13 C    0.108
    21   6 C    3.990 --    22 C    1.449    20 C    1.432    53 H    0.969
                            14 C    0.105
    22   6 C    3.988 --    21 C    1.449    13 C    1.407    54 H    0.961
                            19 C    0.109
    23   7 N    3.451 --    24 C    1.179    32 C    0.996    12 C    0.957
                            31 O    0.182
    24   6 C    3.958 --    31 O    1.647    23 N    1.179    25 C    1.041
    25   6 C    3.898 --    26 C    1.517    30 O    1.079    24 C    1.041
                            28 C    0.129
    26   6 C    3.984 --    25 C    1.517    27 C    1.328    55 H    0.971
    27   6 C    3.980 --    28 C    1.540    26 C    1.328    56 H    0.973
    28   6 C    3.907 --    27 C    1.540    30 O    1.124    29 C    1.032
                            25 C    0.129
    29   6 C    3.990 --    28 C    1.032    57 H    0.977    58 H    0.973
                            59 H    0.962
    30   8 O    2.424 --    28 C    1.124    25 C    1.079
    31   8 O    2.005 --    24 C    1.647    23 N    0.182
    32   6 C    3.967 --    23 N    0.996    36 N    0.972    60 H    0.939
                            33 C    0.906
    33   6 C    3.919 --    35 O    1.772    34 O    1.158    32 C    0.906
    34   8 O    2.228 --    33 C    1.158    61 H    0.855    35 O    0.180
    35   8 O    2.055 --    33 C    1.772    34 O    0.180
    36   7 N    3.415 --    37 C    1.155    32 C    0.972    11 C    0.957
                            44 O    0.175
    37   6 C    3.953 --    44 O    1.697    36 N    1.155    38 C    1.009
    38   6 C    3.907 --    39 C    1.521    43 O    1.114    37 C    1.009
                            41 C    0.129
    39   6 C    3.983 --    38 C    1.521    40 C    1.322    62 H    0.971
    40   6 C    3.979 --    41 C    1.537    39 C    1.322    63 H    0.974
    41   6 C    3.912 --    40 C    1.537    43 O    1.145    42 C    1.031
                            38 C    0.129
    42   6 C    3.992 --    41 C    1.031    65 H    0.983    66 H    0.969
                            64 H    0.965
    43   8 O    2.463 --    41 C    1.145    38 C    1.114
    44   8 O    2.041 --    37 C    1.697    36 N    0.175
    45   1 H    0.995 --     6 C    0.965
    46   1 H    0.996 --     7 C    0.969
    47   1 H    0.996 --     8 C    0.969
    48   1 H    0.997 --     9 C    0.966
    49   1 H    0.995 --    11 C    0.951
    50   1 H    0.995 --    12 C    0.951
    51   1 H    0.995 --    19 C    0.966
    52   1 H    0.996 --    20 C    0.969
    53   1 H    0.996 --    21 C    0.969
    54   1 H    0.996 --    22 C    0.961
    55   1 H    0.995 --    26 C    0.971
    56   1 H    0.997 --    27 C    0.973
    57   1 H    0.993 --    29 C    0.977
    58   1 H    0.994 --    29 C    0.973
    59   1 H    0.993 --    29 C    0.962
    60   1 H    0.993 --    32 C    0.939
    61   1 H    0.881 --    34 O    0.855
    62   1 H    0.999 --    39 C    0.971
    63   1 H    0.997 --    40 C    0.974
    64   1 H    0.994 --    42 C    0.965
    65   1 H    0.996 --    42 C    0.983
    66   1 H    0.995 --    42 C    0.969
 ---------------------------------------------------------------------------

molecular dipole:
                 x           y           z       tot (Debye)
 q only:        0.092       2.383       0.029
   full:        0.096       2.766      -0.015       7.034

           -------------------------------------------------
          | TOTAL ENERGY             -134.187221975599 Eh   |
          | GRADIENT NORM               0.000510160851 Eh/Î± |
          | HOMO-LUMO GAP               3.209999549016 eV   |
           -------------------------------------------------

 * finished run on 2022/03/17 at 00:19:32.235
