   * xtb version 6.3.3 (4ae9cef) compiled by 'conda@95abc7406d43' on 2020-10-14
          program call               : xtb acid_406.xyz --opt --chrg 0 --uhf 0 --gfn 2
          number of atoms            :                    86
          number of electrons        :                   282
          charge                     :                     0
          spin                       :                   0.0

   ID    Z sym.   atoms
    1    6 C      1, 2, 6-15, 19-22, 24-36, 38, 39, 43-55
    2    9 F      3-5, 16-18
    3    7 N      23, 42
    4    8 O      37, 40, 41, 56
    5    1 H      57-86

          :  Hamiltonian                  GFN2-xTB          :
 * total energy  :  -160.0529185 Eh     change       -0.1999126E-08 Eh
 * total energy  :  -160.0700772 Eh     change       -0.1715870E-01 Eh
 * total energy  :  -160.0752575 Eh     change       -0.5180341E-02 Eh
 * total energy  :  -160.0769754 Eh     change       -0.1717895E-02 Eh
 * total energy  :  -160.0783035 Eh     change       -0.1328047E-02 Eh
 * total energy  :  -160.0791001 Eh     change       -0.7966644E-03 Eh
 * total energy  :  -160.0797430 Eh     change       -0.6428711E-03 Eh
 * total energy  :  -160.0804031 Eh     change       -0.6600395E-03 Eh
 * total energy  :  -160.0810173 Eh     change       -0.6142297E-03 Eh
 * total energy  :  -160.0814522 Eh     change       -0.4348732E-03 Eh
 * total energy  :  -160.0826873 Eh     change       -0.1149552E-04 Eh
 * total energy  :  -160.0826989 Eh     change       -0.1166593E-04 Eh
 * total energy  :  -160.0827099 Eh     change       -0.1099197E-04 Eh
 * total energy  :  -160.0827213 Eh     change       -0.1139622E-04 Eh
 * total energy  :  -160.0827338 Eh     change       -0.1252940E-04 Eh
 * total energy  :  -160.0827500 Eh     change       -0.1612358E-04 Eh
 * total energy  :  -160.0827552 Eh     change       -0.5207975E-05 Eh
 * total energy  :  -160.0827640 Eh     change       -0.8861785E-05 Eh
 * total energy  :  -160.0827676 Eh     change       -0.3606484E-05 Eh
   *** GEOMETRY OPTIMIZATION CONVERGED AFTER 46 ITERATIONS ***

 final structure:
================
86
 xtb: 6.3.3 (4ae9cef)
C         2.40554985977358   -4.28985596984265    1.22594272400905
C         2.34796507895253   -5.17641048523177    0.01094234080312
F         2.88733200578836   -4.63252959776624   -1.08747692084709
F         2.97808329023952   -6.34565529899895    0.19254240474126
F         1.07803151088229   -5.50668298917617   -0.32733842423018
C         3.13615930704230   -4.72979368612284    2.32358860136854
C         3.22642434721361   -3.95084259915911    3.46148009575239
C         2.58564632923517   -2.72536685614145    3.50399290184909
C         1.85655422809326   -2.28939648442361    2.41418858995490
C         1.75437299257830   -3.05456583847427    1.25783210344697
C         0.95159031446921   -2.52550521663412    0.09532920615330
C        -0.57124290160596   -2.52024338102295    0.36797212373576
C        -1.28304374617246   -3.72125143068883   -0.19746204251026
C        -1.56723500164199   -3.93515959436360   -1.54848825897338
C        -1.29853701236260   -2.95286968126965   -2.65688429760145
F        -0.22083270085451   -2.16283550229539   -2.50674990714396
F        -1.10803295043865   -3.56884520123821   -3.83653010027755
F        -2.33415555563828   -2.11248548387499   -2.85594839066437
C        -2.21693224798962   -5.10048746864185   -1.94801327891213
C        -2.56149090884398   -6.07237938176497   -1.03106911585414
C        -2.26567288376563   -5.87925139477355    0.30579112296614
C        -1.63927221805973   -4.71690711312965    0.70721005005003
N        -1.01899093140508   -1.24585738349061   -0.17821090396713
C        -2.35701636790160   -0.95672935946135   -0.22488320230911
C        -2.72243140999285    0.39642438441468   -0.72813237938094
C        -2.20729912782675    0.92692967540008   -1.90614903915154
C        -2.61798149964628    2.17933302223497   -2.32785689604724
C        -3.53289454791339    2.90520063594706   -1.58710219834357
C        -4.07893309796945    2.37490111438283   -0.42014223858528
C        -5.07859568255893    3.12448547665597    0.35608740053877
C        -6.18656449023201    2.47311514572654    0.89355912910101
C        -7.13055863757167    3.17564128226199    1.61906052903382
C        -6.98017388508416    4.53705142814004    1.82469556065142
C        -5.88088807623845    5.19345801347441    1.29704449036541
C        -4.93848798095087    4.49429694231278    0.56568731120313
C        -3.66904661457902    1.11146733976447   -0.00734688800036
O        -3.18268451729739   -1.77789095597866    0.11418738108888
C         0.06506073685463   -0.30384301093759   -0.11877500211580
C         0.06900885305372    0.54141380149442    1.17838885094520
O        -1.13847129885727    0.64059909009951    1.72415930936474
O         1.04999792898868    1.06530008297375    1.62627277903068
N         1.24428657188810   -1.12613915433232   -0.19168932748077
C         2.52558756806138   -0.72579671540078   -0.43706516279134
C         2.67753776014138    0.65968475818322   -0.96407087160196
C         3.48272725108839    1.56447502997431   -0.29129609168402
C         3.68290737425404    2.84616600707193   -0.79627353874949
C         4.54201930289683    3.80401357785377   -0.08426458498553
C         5.73587110989531    3.38385887890904    0.49759062802425
C         6.55319326468150    4.28529170877010    1.15385526464932
C         6.18917600570732    5.61833123340145    1.24477794130628
C         5.00137082108537    6.04535017926553    0.67485506027600
C         4.18519687455180    5.14683794387810    0.01312434268350
C         3.07146804781233    3.19623527359322   -1.99819621315006
C         2.29140369834857    2.28372909521518   -2.68525815915754
C         2.08977151382273    1.01358869364269   -2.17499113367612
O         3.45853428990068   -1.47946709501980   -0.26378403161750
H         3.64032751612434   -5.68255108723074    2.28126393642656
H         3.80140958459332   -4.29807454534122    4.30548713445907
H         2.65777771042679   -2.10353222454104    4.38327626411807
H         1.38152720397199   -1.32177537987387    2.45006811745681
H         1.17924613189794   -3.09993110139734   -0.80677413964810
H        -0.74134027374716   -2.51855537065317    1.45600335276676
H        -2.44805488355731   -5.24414772250574   -2.99227281333730
H        -3.05950058863029   -6.97022864930961   -1.36128379373486
H        -2.52675333817523   -6.62874530077460    1.03678637626804
H        -1.41867585212405   -4.56906303906970    1.75380211332115
H        -1.52436248211775    0.35382949739736   -2.51376884708801
H        -2.22629526155231    2.58881094105809   -3.24717112461340
H        -3.85467731796202    3.87640219897923   -1.93311356659135
H        -6.31634869912214    1.41503499471222    0.72054635313514
H        -7.98874030584429    2.65969344682032    2.02421717258998
H        -7.71703377278808    5.08466680097711    2.39333285601573
H        -5.75727537301116    6.25472608187644    1.45702941878453
H        -4.07516867395186    5.00929944070308    0.16928495357981
H        -4.06913392940166    0.67576639636385    0.89553379605350
H         0.02509346075697    0.42217872246471   -0.94132428692648
H        -1.12530320194157    1.21135370492710    2.51082829944780
H         3.93187269304225    1.27054829558701    0.64441112866573
H         6.03233409695168    2.34876197103703    0.41435922702662
H         7.48018902389865    3.94738540754539    1.59379906736057
H         6.82880734344798    6.32210384194561    1.75671306330666
H         4.71043281724006    7.08349993102408    0.74625507129158
H         3.25196588827169    5.48312852913167   -0.41557280442595
H         3.23651223632788    4.17975342463103   -2.41328123697116
H         1.84564721388213    2.56047053036026   -3.62950390289957
H         1.51015708923313    0.28705377778006   -2.72662582910165

          :  Hamiltonian                  GFN2-xTB          :
         :: total energy            -160.082767642567 Eh    ::
         :: gradient norm              0.000563999080 Eh/a0 ::
         :: HOMO-LUMO gap              3.131874386319 eV    ::
         :: SCC energy              -162.286782388817 Eh    ::
         :: -> dispersion             -0.124666660744 Eh    ::
         :: repulsion energy           2.200492257622 Eh    ::

    * Orbital Energies and Occupations

         #    Occupation            Energy/Eh            Energy/eV
      -------------------------------------------------------------
         1        2.0000           -0.8779963             -23.8915
       ...           ...                  ...                  ...
       129        2.0000           -0.4227223             -11.5029
       130        2.0000           -0.4222884             -11.4911
       131        2.0000           -0.4199359             -11.4270
       132        2.0000           -0.4168518             -11.3431
       133        2.0000           -0.4158066             -11.3147
       134        2.0000           -0.4125599             -11.2263
       135        2.0000           -0.4114720             -11.1967
       136        2.0000           -0.4054245             -11.0322
       137        2.0000           -0.4037752             -10.9873
       138        2.0000           -0.4019009             -10.9363
       139        2.0000           -0.3959770             -10.7751
       140        2.0000           -0.3954940             -10.7619
       141        2.0000           -0.3894147             -10.5965 (HOMO)
       142                         -0.2743204              -7.4646 (LUMO)
       143                         -0.2669648              -7.2645
       144                         -0.2627137              -7.1488
       145                         -0.2610725              -7.1041
       146                         -0.2563556              -6.9758
       147                         -0.2531155              -6.8876
       148                         -0.2517370              -6.8501
       149                         -0.2490037              -6.7757
       150                         -0.2428344              -6.6079
       151                         -0.2293725              -6.2415
       152                         -0.2233156              -6.0767
       ...                                ...                  ...
       254                          0.6886858              18.7401
      -------------------------------------------------------------
                  HL-Gap            0.1150943 Eh            3.1319 eV

     #   Z          covCN         q      C6AA      Î±(0)
     1   6 C        2.976    -0.025    28.631     8.777
     2   6 C        3.335     0.485    17.302     6.589
     3   9 F        0.791    -0.197    11.202     3.954
     4   9 F        0.792    -0.202    11.256     3.963
     5   9 F        0.791    -0.226    11.503     4.006
     6   6 C        2.923    -0.021    28.530     8.759
     7   6 C        2.920    -0.023    28.577     8.766
     8   6 C        2.918    -0.018    28.458     8.748
     9   6 C        2.927    -0.024    28.592     8.769
    10   6 C        2.969     0.022    27.502     8.602
    11   6 C        3.823     0.045    19.800     6.332
    12   6 C        3.838     0.050    19.707     6.315
    13   6 C        2.967     0.027    27.386     8.584
    14   6 C        2.974    -0.023    28.570     8.768
    15   6 C        3.338     0.488    17.222     6.567
    16   9 F        0.792    -0.215    11.386     3.986
    17   9 F        0.793    -0.206    11.299     3.971
    18   9 F        0.792    -0.211    11.345     3.979
    19   6 C        2.929    -0.018    28.467     8.750
    20   6 C        2.919    -0.020    28.497     8.754
    21   6 C        2.919    -0.014    28.367     8.734
    22   6 C        2.931    -0.022    28.548     8.763
    23   7 N        2.762    -0.120    23.612     7.217
    24   6 C        2.765     0.278    22.300     7.734
    25   6 C        2.973    -0.015    28.376     8.738
    26   6 C        2.921    -0.034    28.858     8.809
    27   6 C        2.918    -0.028    28.708     8.786
    28   6 C        2.925    -0.032    28.789     8.799
    29   6 C        2.976     0.014    27.707     8.634
    30   6 C        2.977     0.009    27.805     8.650
    31   6 C        2.925    -0.033    28.825     8.805
    32   6 C        2.919    -0.028    28.710     8.787
    33   6 C        2.920    -0.030    28.749     8.793
    34   6 C        2.918    -0.030    28.737     8.791
    35   6 C        2.925    -0.034    28.857     8.809
    36   6 C        2.932    -0.026    28.642     8.777
    37   8 O        0.859    -0.417    22.015     6.291
    38   6 C        3.764     0.087    19.178     6.242
    39   6 C        2.686     0.345    21.132     7.523
    40   8 O        1.659    -0.361    20.106     6.053
    41   8 O        0.856    -0.386    21.407     6.203
    42   7 N        2.767    -0.114    23.482     7.197
    43   6 C        2.763     0.277    22.319     7.737
    44   6 C        2.975    -0.015    28.372     8.737
    45   6 C        2.929    -0.020    28.513     8.757
    46   6 C        2.977     0.016    27.650     8.625
    47   6 C        2.977     0.012    27.748     8.641
    48   6 C        2.925    -0.032    28.801     8.801
    49   6 C        2.919    -0.028    28.710     8.787
    50   6 C        2.920    -0.030    28.757     8.794
    51   6 C        2.918    -0.030    28.739     8.791
    52   6 C        2.925    -0.033    28.828     8.805
    53   6 C        2.925    -0.033    28.820     8.804
    54   6 C        2.917    -0.029    28.735     8.790
    55   6 C        2.922    -0.037    28.931     8.821
    56   8 O        0.859    -0.412    21.921     6.277
    57   1 H        0.926     0.068     2.104     2.268
    58   1 H        0.926     0.057     2.233     2.337
    59   1 H        0.926     0.055     2.254     2.348
    60   1 H        0.926     0.047     2.360     2.402
    61   1 H        0.924     0.073     2.054     2.241
    62   1 H        0.923     0.051     2.311     2.377
    63   1 H        0.926     0.067     2.118     2.276
    64   1 H        0.926     0.059     2.209     2.324
    65   1 H        0.926     0.058     2.223     2.331
    66   1 H        0.926     0.049     2.337     2.390
    67   1 H        0.926     0.042     2.420     2.433
    68   1 H        0.926     0.041     2.436     2.441
    69   1 H        0.926     0.041     2.431     2.438
    70   1 H        0.926     0.039     2.463     2.454
    71   1 H        0.926     0.034     2.535     2.490
    72   1 H        0.926     0.032     2.554     2.499
    73   1 H        0.926     0.032     2.563     2.503
    74   1 H        0.926     0.031     2.578     2.511
    75   1 H        0.926     0.052     2.301     2.372
    76   1 H        0.924     0.090     1.880     2.144
    77   1 H        0.804     0.346     0.598     1.215
    78   1 H        0.926     0.054     2.270     2.356
    79   1 H        0.926     0.038     2.474     2.459
    80   1 H        0.926     0.033     2.551     2.498
    81   1 H        0.926     0.031     2.573     2.508
    82   1 H        0.926     0.030     2.583     2.513
    83   1 H        0.926     0.030     2.582     2.513
    84   1 H        0.926     0.040     2.454     2.450
    85   1 H        0.926     0.038     2.472     2.459
    86   1 H        0.926     0.038     2.473     2.459

Wiberg/Mayer (AO) data.
largest (>0.10) Wiberg bond orders for each atom

     #   Z sym  total        # sym  WBO       # sym  WBO       # sym  WBO
 ---------------------------------------------------------------------------
     1   6 C    3.970 --     6 C    1.415    10 C    1.384     2 C    0.950
                             8 C    0.105
     2   6 C    3.822 --     3 F    0.954     4 F    0.953     1 C    0.950
                             5 F    0.926
     3   9 F    1.085 --     2 C    0.954
     4   9 F    1.076 --     2 C    0.953
     5   9 F    1.053 --     2 C    0.926
     6   6 C    3.987 --     7 C    1.442     1 C    1.415    57 H    0.965
                             9 C    0.109
     7   6 C    3.989 --     6 C    1.442     8 C    1.434    58 H    0.969
                            10 C    0.108
     8   6 C    3.990 --     9 C    1.448     7 C    1.434    59 H    0.969
                             1 C    0.105
     9   6 C    3.990 --     8 C    1.448    10 C    1.409    60 H    0.965
                             6 C    0.109
    10   6 C    3.987 --     9 C    1.409     1 C    1.384    11 C    0.993
                             7 C    0.108
    11   6 C    3.968 --    10 C    0.993    42 N    0.960    61 H    0.953
                            12 C    0.948
    12   6 C    3.971 --    13 C    0.998    23 N    0.963    62 H    0.951
                            11 C    0.948
    13   6 C    3.986 --    22 C    1.405    14 C    1.388    12 C    0.998
                            20 C    0.107
    14   6 C    3.970 --    19 C    1.408    13 C    1.388    15 C    0.952
                            21 C    0.106
    15   6 C    3.820 --    14 C    0.952    17 F    0.948    16 F    0.941
                            18 F    0.939
    16   9 F    1.066 --    15 C    0.941
    17   9 F    1.071 --    15 C    0.948
    18   9 F    1.070 --    15 C    0.939
    19   6 C    3.987 --    20 C    1.447    14 C    1.408    63 H    0.966
                            22 C    0.109
    20   6 C    3.989 --    19 C    1.447    21 C    1.430    64 H    0.968
                            13 C    0.107
    21   6 C    3.990 --    22 C    1.451    20 C    1.430    65 H    0.969
                            14 C    0.106
    22   6 C    3.989 --    21 C    1.451    13 C    1.405    66 H    0.966
                            19 C    0.109
    23   7 N    3.430 --    24 C    1.172    38 C    0.996    12 C    0.963
                            37 O    0.177
    24   6 C    3.940 --    37 O    1.702    23 N    1.172    25 C    0.979
    25   6 C    3.985 --    36 C    1.409    26 C    1.391    24 C    0.979
                            28 C    0.103
    26   6 C    3.986 --    27 C    1.440    25 C    1.391    67 H    0.965
                            29 C    0.102
    27   6 C    3.991 --    28 C    1.446    26 C    1.440    68 H    0.969
                            36 C    0.104
    28   6 C    3.991 --    27 C    1.446    29 C    1.386    69 H    0.968
                            25 C    0.103
    29   6 C    3.988 --    36 C    1.393    28 C    1.386    30 C    1.045
                            26 C    0.102
    30   6 C    3.989 --    35 C    1.391    31 C    1.389    29 C    1.045
                            33 C    0.106
    31   6 C    3.991 --    32 C    1.452    30 C    1.389    70 H    0.968
                            34 C    0.109
    32   6 C    3.992 --    31 C    1.452    33 C    1.434    71 H    0.971
                            35 C    0.108
    33   6 C    3.987 --    34 C    1.435    32 C    1.434    72 H    0.971
                            30 C    0.106
    34   6 C    3.992 --    35 C    1.450    33 C    1.435    73 H    0.971
                            31 C    0.109
    35   6 C    3.992 --    34 C    1.450    30 C    1.391    74 H    0.969
                            32 C    0.108
    36   6 C    3.989 --    25 C    1.409    29 C    1.393    75 H    0.965
                            27 C    0.104
    37   8 O    2.026 --    24 C    1.702    23 N    0.177
    38   6 C    3.972 --    23 N    0.996    42 N    0.992    76 H    0.914
                            39 C    0.907
    39   6 C    3.917 --    41 O    1.777    40 O    1.158    38 C    0.907
    40   8 O    2.223 --    39 C    1.158    77 H    0.853    41 O    0.183
    41   8 O    2.062 --    39 C    1.777    40 O    0.183
    42   7 N    3.444 --    43 C    1.182    38 C    0.992    11 C    0.960
                            56 O    0.183
    43   6 C    3.939 --    56 O    1.704    42 N    1.182    44 C    0.969
    44   6 C    3.985 --    45 C    1.418    55 C    1.389    43 C    0.969
                            53 C    0.104
    45   6 C    3.989 --    44 C    1.418    46 C    1.389    78 H    0.966
                            54 C    0.105
    46   6 C    3.988 --    53 C    1.389    45 C    1.389    47 C    1.046
                            55 C    0.103
    47   6 C    3.989 --    52 C    1.390    48 C    1.389    46 C    1.046
                            50 C    0.106
    48   6 C    3.991 --    49 C    1.452    47 C    1.389    79 H    0.968
                            51 C    0.109
    49   6 C    3.992 --    48 C    1.452    50 C    1.435    80 H    0.971
                            52 C    0.108
    50   6 C    3.987 --    51 C    1.435    49 C    1.435    81 H    0.972
                            47 C    0.106
    51   6 C    3.992 --    52 C    1.451    50 C    1.435    82 H    0.971
                            48 C    0.109
    52   6 C    3.992 --    51 C    1.451    47 C    1.390    83 H    0.969
                            49 C    0.108
    53   6 C    3.991 --    54 C    1.445    46 C    1.389    84 H    0.968
                            44 C    0.104
    54   6 C    3.991 --    53 C    1.445    55 C    1.440    85 H    0.969
                            45 C    0.105
    55   6 C    3.985 --    54 C    1.440    44 C    1.389    86 H    0.967
                            46 C    0.103
    56   8 O    2.031 --    43 C    1.704    42 N    0.183
    57   1 H    0.995 --     6 C    0.965
    58   1 H    0.996 --     7 C    0.969
    59   1 H    0.996 --     8 C    0.969
    60   1 H    0.997 --     9 C    0.965
    61   1 H    0.994 --    11 C    0.953
    62   1 H    0.997 --    12 C    0.951
    63   1 H    0.995 --    19 C    0.966
    64   1 H    0.996 --    20 C    0.968
    65   1 H    0.996 --    21 C    0.969
    66   1 H    0.997 --    22 C    0.966
    67   1 H    0.998 --    26 C    0.965
    68   1 H    0.997 --    27 C    0.969
    69   1 H    0.998 --    28 C    0.968
    70   1 H    0.998 --    31 C    0.968
    71   1 H    0.998 --    32 C    0.971
    72   1 H    0.998 --    33 C    0.971
    73   1 H    0.998 --    34 C    0.971
    74   1 H    0.999 --    35 C    0.969
    75   1 H    0.997 --    36 C    0.965
    76   1 H    0.991 --    38 C    0.914
    77   1 H    0.880 --    40 O    0.853
    78   1 H    0.997 --    45 C    0.966
    79   1 H    0.999 --    48 C    0.968
    80   1 H    0.998 --    49 C    0.971
    81   1 H    0.999 --    50 C    0.972
    82   1 H    0.999 --    51 C    0.971
    83   1 H    0.999 --    52 C    0.969
    84   1 H    0.998 --    53 C    0.968
    85   1 H    0.997 --    54 C    0.969
    86   1 H    0.998 --    55 C    0.967
 ---------------------------------------------------------------------------

molecular dipole:
                 x           y           z       tot (Debye)
 q only:       -0.972       1.193       2.123
   full:       -1.064       1.546       2.121       7.199

           -------------------------------------------------
          | TOTAL ENERGY             -160.082767642567 Eh   |
          | GRADIENT NORM               0.000563999080 Eh/Î± |
          | HOMO-LUMO GAP               3.131874386319 eV   |
           -------------------------------------------------

 * finished run on 2022/03/17 at 00:49:26.125
