   * xtb version 6.3.3 (4ae9cef) compiled by 'conda@95abc7406d43' on 2020-10-14
          program call               : xtb acid_254.xyz --opt --chrg 0 --uhf 0 --gfn 2
          number of atoms            :                    92
          number of electrons        :                   270
          charge                     :                     0
          spin                       :                   0.0

   ID    Z sym.   atoms
    1    6 C      1-22, 24-36, 38, 39, 43-55
    2    7 N      23, 42
    3    8 O      37, 40, 41, 56
    4    1 H      57-92

          :  Hamiltonian                  GFN2-xTB          :
 * total energy  :  -147.5465116 Eh     change       -0.3674870E-08 Eh
 * total energy  :  -147.5649444 Eh     change       -0.1843279E-01 Eh
 * total energy  :  -147.5700316 Eh     change       -0.5087178E-02 Eh
 * total energy  :  -147.5715126 Eh     change       -0.1480964E-02 Eh
 * total energy  :  -147.5724554 Eh     change       -0.9428301E-03 Eh
 * total energy  :  -147.5729774 Eh     change       -0.5219934E-03 Eh
 * total energy  :  -147.5734938 Eh     change       -0.5163723E-03 Eh
 * total energy  :  -147.5740974 Eh     change       -0.6036362E-03 Eh
 * total energy  :  -147.5747380 Eh     change       -0.6405547E-03 Eh
 * total energy  :  -147.5753490 Eh     change       -0.6110885E-03 Eh
 * total energy  :  -147.5784898 Eh     change       -0.6996040E-05 Eh
 * total energy  :  -147.5784962 Eh     change       -0.6403169E-05 Eh
 * total energy  :  -147.5785026 Eh     change       -0.6327753E-05 Eh
 * total energy  :  -147.5785096 Eh     change       -0.6999141E-05 Eh
 * total energy  :  -147.5785159 Eh     change       -0.6376336E-05 Eh
 * total energy  :  -147.5785218 Eh     change       -0.5901498E-05 Eh
 * total energy  :  -147.5785274 Eh     change       -0.5537542E-05 Eh
 * total energy  :  -147.5785325 Eh     change       -0.5168092E-05 Eh
 * total energy  :  -147.5785374 Eh     change       -0.4871867E-05 Eh
   *** GEOMETRY OPTIMIZATION CONVERGED AFTER 84 ITERATIONS ***

 final structure:
================
92
 xtb: 6.3.3 (4ae9cef)
C        -0.07253203734538   -1.22895547887695    2.87671600969009
C        -0.00083178064219   -1.70938759979712    4.15190746425266
C         0.72083088377295   -2.88607565553361    4.44204510140173
C         0.81398264621089   -3.41056545695379    5.74747336191573
C         1.52307575111484   -4.55341282687726    5.99103991732225
C         2.17108463403525   -5.22302549955150    4.94109653495001
C         2.09855466018509   -4.74002395408166    3.66472520489135
C         1.37476011200910   -3.56342185815766    3.38000891109264
C         1.28483332846202   -3.03966488012862    2.07474903270411
C         0.57851574069615   -1.89582329582726    1.81983412004391
C         0.46279847516898   -1.34910202892982    0.41986069798708
C        -0.97827061077516   -1.44159073266590   -0.11431282841363
C        -1.07340867340419   -2.25276588598673   -1.38207615558402
C        -0.55791393222144   -1.77827202874410   -2.55984163864992
C        -0.63447544041675   -2.54179054066209   -3.74112916687938
C        -0.11852388423130   -2.06664022815602   -4.96517652257991
C        -0.20701205916952   -2.82562128887397   -6.09808338376430
C        -0.81304514659620   -4.09190009145354   -6.05891565107860
C        -1.32055567779899   -4.57960444496000   -4.88731120592835
C        -1.24584282398516   -3.82167101614304   -3.70037888407935
C        -1.75901086646003   -4.28762063574935   -2.47218110519791
C        -1.67589727870268   -3.52355856307322   -1.34367845844604
N        -1.37922350682785   -0.05253252487949   -0.30912904105537
C        -2.62234950294505    0.23639814364279   -0.77462818275841
C        -2.90702132165401    1.68884946059077   -1.00032220560599
C        -3.04250368389343    2.61163184653393    0.04319526581141
C        -2.86981060566658    2.21213672269482    1.45154152153235
C        -2.11300769047724    3.00621453872431    2.31550494532542
C        -1.91286051983821    2.62497461784736    3.62938788032923
C        -2.46726705022720    1.44708597190697    4.10250081536023
C        -3.23047763263030    0.65827133082143    3.25727698656964
C        -3.43329364032368    1.03610488357866    1.94180817349549
C        -3.32992777858602    3.93817993404036   -0.27234951504630
C        -3.48073805538000    4.34011646464310   -1.58605232131237
C        -3.35142620828748    3.41956592634996   -2.61248899098301
C        -3.07599587419903    2.09713894370029   -2.31751069310587
O        -3.42967185992844   -0.63437321668245   -1.02072473793435
C        -0.34860277319322    0.89782569763096    0.01882247896088
C        -0.02520475605709    1.80047675390800   -1.20297993669741
O        -0.15688354573319    3.11548574131237   -1.01370372911189
O         0.31180179793868    1.35193383732562   -2.25692860835831
N         0.77394099530462    0.07528734902096    0.38570126670815
C         1.98555579186562    0.52406000152370    0.80625350980634
C         2.08940922872326    2.01811532989171    0.86040193572077
C         1.53052546799949    2.64743902918049    1.96874826665365
C         1.57078993397749    4.02467484066267    2.08982008611882
C         2.17284173130685    4.78091915821532    1.09616516206055
C         2.73397861703339    4.15929580725626   -0.00244792291555
C         2.70965404553794    2.77157363498454   -0.13975324412102
C         3.29213171092904    2.15021681404393   -1.34139600392607
C         4.18718839516113    1.08860279257085   -1.24993021034020
C         4.71438490459154    0.52441539181118   -2.39741101333983
C         4.35448188404590    1.00791241669311   -3.64376773739333
C         3.47219286437233    2.07077392354889   -3.74077176566819
C         2.94986688958791    2.64509252415408   -2.59779852402305
O         2.86229121635152   -0.23429097860831    1.15724182292928
H        -0.63579542253928   -0.32929407046804    2.66947290118194
H        -0.49946259091521   -1.19165298026864    4.95908506022473
H         0.31435620429615   -2.89155705483958    6.55334406546970
H         1.59116055723723   -4.94989686357561    6.99356856134435
H         2.72830581477719   -6.12383639820858    5.15271825820178
H         2.59657865473591   -5.25017852555662    2.85297867464934
H         1.79153626273695   -3.55342220779922    1.27091215097368
H         1.16171200432156   -1.87675770043524   -0.23919851701616
H        -1.64066151000033   -1.88533975115534    0.64110976555555
H        -0.09290405422937   -0.80455409687871   -2.60657371940934
H         0.34568492709398   -1.09099428075258   -4.98365306850710
H         0.18805018468373   -2.45807410338580   -7.03410815383202
H        -0.87468871646853   -4.67718549775485   -6.96501756017569
H        -1.78842055593022   -5.55346821698790   -4.85306801349257
H        -2.22704366037385   -5.26114973658072   -2.43999883124830
H        -2.07912454682890   -3.88472052012544   -0.40875981242540
H        -1.66733639255047    3.92291680543335    1.95055726288019
H        -1.32003354466701    3.24666619513249    4.28408298832187
H        -2.30807759730408    1.14878152406171    5.12772975275434
H        -3.66998088901566   -0.25743115323408    3.62340610229730
H        -4.04496712023934    0.42732683757941    1.29429614716299
H        -3.45968451569232    4.65239416588290    0.52800283676401
H        -3.70680990050166    5.37221944074196   -1.80791017368776
H        -3.47015153308541    3.72880996776855   -3.63921308575129
H        -2.97795777923464    1.36539716048253   -3.10506934864897
H        -0.65754083137274    1.53587718965991    0.87082408340344
H        -0.42693136155955    3.36153688602652   -0.11720255201421
H         1.07349119303152    2.04510139866777    2.74245836700871
H         1.14260002029627    4.50395751529857    2.95753829981140
H         2.21103187164825    5.85647123937586    1.18448031818791
H         3.21663783586460    4.74851950906887   -0.76751800806677
H         4.47618233469676    0.71158224794845   -0.28135423744327
H         5.40872241915361   -0.29893179195216   -2.31556700939336
H         4.76163512168633    0.55814386408747   -4.53758700856963
H         3.18709744258440    2.45218645129728   -4.71011850287193
H         2.24690318489142    3.46147043400900   -2.67529708299388

          :  Hamiltonian                  GFN2-xTB          :
         :: total energy            -147.578537414788 Eh    ::
         :: gradient norm              0.000355151743 Eh/a0 ::
         :: HOMO-LUMO gap              2.694733727371 eV    ::
         :: SCC energy              -150.112791240894 Eh    ::
         :: -> dispersion             -0.144885550979 Eh    ::
         :: repulsion energy           2.527030494887 Eh    ::

    * Orbital Energies and Occupations

         #    Occupation            Energy/Eh            Energy/eV
      -------------------------------------------------------------
         1        2.0000           -0.7748289             -21.0842
       ...           ...                  ...                  ...
       123        2.0000           -0.4118486             -11.2070
       124        2.0000           -0.4105114             -11.1706
       125        2.0000           -0.4079452             -11.1008
       126        2.0000           -0.4067967             -11.0695
       127        2.0000           -0.4053290             -11.0296
       128        2.0000           -0.4034676             -10.9789
       129        2.0000           -0.3980191             -10.8307
       130        2.0000           -0.3975188             -10.8170
       131        2.0000           -0.3958569             -10.7718
       132        2.0000           -0.3918323             -10.6623
       133        2.0000           -0.3894786             -10.5983
       134        2.0000           -0.3821993             -10.4002
       135        2.0000           -0.3726035             -10.1391 (HOMO)
       136                         -0.2735738              -7.4443 (LUMO)
       137                         -0.2652782              -7.2186
       138                         -0.2634584              -7.1691
       139                         -0.2546394              -6.9291
       140                         -0.2524581              -6.8697
       141                         -0.2482978              -6.7565
       142                         -0.2449547              -6.6656
       143                         -0.2425543              -6.6002
       144                         -0.2346773              -6.3859
       145                         -0.2242677              -6.1026
       146                         -0.2225101              -6.0548
       ...                                ...                  ...
       260                          0.7027420              19.1226
      -------------------------------------------------------------
                  HL-Gap            0.0990296 Eh            2.6947 eV

     #   Z          covCN         q      C6AA      Î±(0)
     1   6 C        2.919    -0.033    28.831     8.805
     2   6 C        2.917    -0.034    28.853     8.808
     3   6 C        2.988     0.014    27.692     8.632
     4   6 C        2.918    -0.034    28.845     8.807
     5   6 C        2.916    -0.029    28.719     8.788
     6   6 C        2.916    -0.028    28.706     8.786
     7   6 C        2.919    -0.032    28.803     8.801
     8   6 C        2.987     0.018    27.601     8.618
     9   6 C        2.923    -0.033    28.824     8.804
    10   6 C        2.970     0.007    27.871     8.660
    11   6 C        3.821     0.046    19.791     6.331
    12   6 C        3.821     0.048    19.761     6.326
    13   6 C        2.969     0.006    27.879     8.661
    14   6 C        2.922    -0.043    29.078     8.843
    15   6 C        2.988     0.016    27.641     8.624
    16   6 C        2.918    -0.034    28.839     8.806
    17   6 C        2.916    -0.030    28.743     8.792
    18   6 C        2.916    -0.030    28.746     8.792
    19   6 C        2.918    -0.035    28.862     8.810
    20   6 C        2.987     0.014    27.701     8.633
    21   6 C        2.918    -0.033    28.825     8.804
    22   6 C        2.919    -0.031    28.765     8.795
    23   7 N        2.765    -0.117    23.550     7.207
    24   6 C        2.765     0.273    22.389     7.749
    25   6 C        2.978    -0.028    28.705     8.788
    26   6 C        2.976    -0.002    28.078     8.692
    27   6 C        2.976     0.001    27.990     8.678
    28   6 C        2.924    -0.042    29.033     8.836
    29   6 C        2.917    -0.029    28.727     8.789
    30   6 C        2.920    -0.028    28.691     8.784
    31   6 C        2.918    -0.025    28.619     8.773
    32   6 C        2.923    -0.033    28.825     8.805
    33   6 C        2.925    -0.037    28.910     8.818
    34   6 C        2.918    -0.026    28.647     8.777
    35   6 C        2.919    -0.023    28.578     8.766
    36   6 C        2.925    -0.018    28.457     8.748
    37   8 O        0.859    -0.419    22.064     6.298
    38   6 C        3.743     0.087    19.210     6.253
    39   6 C        2.686     0.348    21.096     7.517
    40   8 O        1.659    -0.358    20.057     6.046
    41   8 O        0.856    -0.339    20.505     6.071
    42   7 N        2.767    -0.116    23.534     7.205
    43   6 C        2.765     0.274    22.374     7.746
    44   6 C        2.980    -0.032    28.793     8.802
    45   6 C        2.924    -0.037    28.911     8.818
    46   6 C        2.918    -0.037    28.920     8.819
    47   6 C        2.917    -0.031    28.780     8.797
    48   6 C        2.926    -0.031    28.767     8.796
    49   6 C        2.976     0.016    27.642     8.624
    50   6 C        2.978     0.004    27.926     8.668
    51   6 C        2.923    -0.033    28.816     8.803
    52   6 C        2.920    -0.028    28.692     8.784
    53   6 C        2.920    -0.028    28.704     8.786
    54   6 C        2.919    -0.025    28.638     8.776
    55   6 C        2.926    -0.027    28.682     8.783
    56   8 O        0.859    -0.415    21.985     6.286
    57   1 H        0.925     0.018     2.760     2.598
    58   1 H        0.926     0.033     2.542     2.493
    59   1 H        0.926     0.032     2.554     2.499
    60   1 H        0.926     0.033     2.548     2.496
    61   1 H        0.926     0.034     2.534     2.489
    62   1 H        0.926     0.037     2.492     2.469
    63   1 H        0.926     0.042     2.427     2.436
    64   1 H        0.924     0.065     2.142     2.289
    65   1 H        0.923     0.058     2.226     2.333
    66   1 H        0.926     0.056     2.248     2.345
    67   1 H        0.926     0.040     2.452     2.449
    68   1 H        0.926     0.031     2.579     2.511
    69   1 H        0.926     0.030     2.588     2.516
    70   1 H        0.926     0.031     2.567     2.506
    71   1 H        0.926     0.036     2.497     2.471
    72   1 H        0.926     0.032     2.553     2.498
    73   1 H        0.925     0.019     2.755     2.596
    74   1 H        0.926     0.034     2.536     2.490
    75   1 H        0.926     0.036     2.507     2.476
    76   1 H        0.926     0.039     2.460     2.453
    77   1 H        0.926     0.047     2.361     2.403
    78   1 H        0.926     0.038     2.470     2.458
    79   1 H        0.926     0.042     2.425     2.435
    80   1 H        0.926     0.047     2.362     2.403
    81   1 H        0.926     0.051     2.312     2.378
    82   1 H        0.922     0.030     2.584     2.514
    83   1 H        0.805     0.329     0.640     1.257
    84   1 H        0.925     0.028     2.612     2.527
    85   1 H        0.926     0.035     2.518     2.482
    86   1 H        0.926     0.039     2.468     2.457
    87   1 H        0.926     0.045     2.380     2.412
    88   1 H        0.926     0.051     2.304     2.374
    89   1 H        0.926     0.034     2.534     2.489
    90   1 H        0.926     0.032     2.564     2.504
    91   1 H        0.926     0.034     2.531     2.488
    92   1 H        0.926     0.037     2.484     2.465

Wiberg/Mayer (AO) data.
largest (>0.10) Wiberg bond orders for each atom

     #   Z sym  total        # sym  WBO       # sym  WBO       # sym  WBO
 ---------------------------------------------------------------------------
     1   6 C    3.992 --     2 C    1.565    10 C    1.293    57 H    0.967
     2   6 C    3.992 --     1 C    1.565     3 C    1.275    58 H    0.968
                             9 C    0.114
     3   6 C    3.990 --     4 C    1.282     2 C    1.275     8 C    1.251
     4   6 C    3.992 --     5 C    1.556     3 C    1.282    59 H    0.968
                             7 C    0.118
     5   6 C    3.990 --     4 C    1.556     6 C    1.321    60 H    0.971
     6   6 C    3.992 --     7 C    1.557     5 C    1.321    61 H    0.971
     7   6 C    3.989 --     6 C    1.557     8 C    1.279    62 H    0.968
                             4 C    0.118
     8   6 C    3.990 --     9 C    1.281     7 C    1.279     3 C    1.251
     9   6 C    3.989 --    10 C    1.528     8 C    1.281    63 H    0.965
                             2 C    0.114
    10   6 C    3.985 --     9 C    1.528     1 C    1.293    11 C    0.987
    11   6 C    3.957 --    10 C    0.987    12 C    0.958    64 H    0.955
                            42 N    0.950
    12   6 C    3.956 --    13 C    0.986    11 C    0.958    65 H    0.954
                            23 N    0.951
    13   6 C    3.984 --    14 C    1.525    22 C    1.297    12 C    0.986
    14   6 C    3.989 --    13 C    1.525    15 C    1.283    66 H    0.958
                            21 C    0.116
    15   6 C    3.991 --    14 C    1.283    16 C    1.277    20 C    1.251
    16   6 C    3.990 --    17 C    1.559    15 C    1.277    67 H    0.968
                            19 C    0.118
    17   6 C    3.992 --    16 C    1.559    18 C    1.320    68 H    0.971
    18   6 C    3.990 --    19 C    1.557    17 C    1.320    69 H    0.971
    19   6 C    3.992 --    18 C    1.557    20 C    1.281    70 H    0.968
                            16 C    0.118
    20   6 C    3.990 --    19 C    1.281    21 C    1.278    15 C    1.251
    21   6 C    3.991 --    22 C    1.561    20 C    1.278    71 H    0.968
                            14 C    0.116
    22   6 C    3.990 --    21 C    1.561    13 C    1.297    72 H    0.968
    23   7 N    3.461 --    24 C    1.203    38 C    0.990    12 C    0.951
                            37 O    0.189
    24   6 C    3.945 --    37 O    1.690    23 N    1.203    25 C    0.960
    25   6 C    3.986 --    36 C    1.409    26 C    1.357    24 C    0.960
                            34 C    0.105
    26   6 C    3.987 --    33 C    1.391    25 C    1.357    27 C    1.042
                            35 C    0.104
    27   6 C    3.989 --    32 C    1.389    28 C    1.380    26 C    1.042
                            30 C    0.105
    28   6 C    3.991 --    29 C    1.451    27 C    1.380    73 H    0.967
                            31 C    0.108
    29   6 C    3.992 --    28 C    1.451    30 C    1.433    74 H    0.970
                            32 C    0.108
    30   6 C    3.987 --    31 C    1.435    29 C    1.433    75 H    0.971
                            27 C    0.105
    31   6 C    3.991 --    32 C    1.448    30 C    1.435    76 H    0.970
                            28 C    0.108
    32   6 C    3.991 --    31 C    1.448    27 C    1.389    77 H    0.966
                            29 C    0.108
    33   6 C    3.991 --    34 C    1.449    26 C    1.391    78 H    0.968
                            36 C    0.107
    34   6 C    3.991 --    33 C    1.449    35 C    1.431    79 H    0.970
                            25 C    0.105
    35   6 C    3.986 --    36 C    1.440    34 C    1.431    80 H    0.969
                            26 C    0.104
    36   6 C    3.989 --    35 C    1.440    25 C    1.409    81 H    0.968
                            33 C    0.107
    37   8 O    2.023 --    24 C    1.690    23 N    0.189
    38   6 C    3.973 --    23 N    0.990    42 N    0.990    82 H    0.929
                            39 C    0.899
    39   6 C    3.921 --    41 O    1.805    40 O    1.141    38 C    0.899
    40   8 O    2.223 --    39 C    1.141    83 H    0.858    41 O    0.169
    41   8 O    2.103 --    39 C    1.805    40 O    0.169
    42   7 N    3.461 --    43 C    1.205    38 C    0.990    11 C    0.950
                            56 O    0.191
    43   6 C    3.944 --    56 O    1.699    42 N    1.205    44 C    0.954
    44   6 C    3.986 --    45 C    1.404    49 C    1.367    43 C    0.954
                            47 C    0.105
    45   6 C    3.990 --    46 C    1.443    44 C    1.404    84 H    0.968
                            48 C    0.109
    46   6 C    3.987 --    45 C    1.443    47 C    1.424    85 H    0.970
                            49 C    0.104
    47   6 C    3.991 --    48 C    1.457    46 C    1.424    86 H    0.970
                            44 C    0.105
    48   6 C    3.990 --    47 C    1.457    49 C    1.384    87 H    0.968
                            45 C    0.109
    49   6 C    3.986 --    48 C    1.384    44 C    1.367    50 C    1.039
                            46 C    0.104
    50   6 C    3.989 --    51 C    1.394    55 C    1.389    49 C    1.039
                            53 C    0.106
    51   6 C    3.990 --    52 C    1.446    50 C    1.394    88 H    0.966
                            54 C    0.110
    52   6 C    3.992 --    51 C    1.446    53 C    1.438    89 H    0.971
                            55 C    0.110
    53   6 C    3.988 --    52 C    1.438    54 C    1.435    90 H    0.971
                            50 C    0.106
    54   6 C    3.992 --    55 C    1.450    53 C    1.435    91 H    0.970
                            51 C    0.110
    55   6 C    3.991 --    54 C    1.450    50 C    1.389    92 H    0.968
                            52 C    0.110
    56   8 O    2.028 --    43 C    1.699    42 N    0.191
    57   1 H    0.999 --     1 C    0.967
    58   1 H    0.998 --     2 C    0.968
    59   1 H    0.998 --     4 C    0.968
    60   1 H    0.998 --     5 C    0.971
    61   1 H    0.998 --     6 C    0.971
    62   1 H    0.998 --     7 C    0.968
    63   1 H    0.998 --     9 C    0.965
    64   1 H    0.995 --    11 C    0.955
    65   1 H    0.996 --    12 C    0.954
    66   1 H    0.996 --    14 C    0.958
    67   1 H    0.998 --    16 C    0.968
    68   1 H    0.999 --    17 C    0.971
    69   1 H    0.999 --    18 C    0.971
    70   1 H    0.999 --    19 C    0.968
    71   1 H    0.998 --    21 C    0.968
    72   1 H    0.998 --    22 C    0.968
    73   1 H    1.000 --    28 C    0.967
    74   1 H    0.998 --    29 C    0.970
    75   1 H    0.998 --    30 C    0.971
    76   1 H    0.998 --    31 C    0.970
    77   1 H    0.998 --    32 C    0.966
    78   1 H    0.998 --    33 C    0.968
    79   1 H    0.997 --    34 C    0.970
    80   1 H    0.997 --    35 C    0.969
    81   1 H    0.997 --    36 C    0.968
    82   1 H    0.999 --    38 C    0.929
    83   1 H    0.892 --    40 O    0.858
    84   1 H    0.999 --    45 C    0.968
    85   1 H    0.998 --    46 C    0.970
    86   1 H    0.997 --    47 C    0.970
    87   1 H    0.997 --    48 C    0.968
    88   1 H    0.997 --    51 C    0.966
    89   1 H    0.998 --    52 C    0.971
    90   1 H    0.999 --    53 C    0.971
    91   1 H    0.998 --    54 C    0.970
    92   1 H    0.999 --    55 C    0.968
 ---------------------------------------------------------------------------

molecular dipole:
                 x           y           z       tot (Debye)
 q only:       -0.231       0.885       0.799
   full:       -0.440       1.341       1.218       4.738

           -------------------------------------------------
          | TOTAL ENERGY             -147.578537414788 Eh   |
          | GRADIENT NORM               0.000355151743 Eh/Î± |
          | HOMO-LUMO GAP               2.694733727371 eV   |
           -------------------------------------------------

 * finished run on 2022/03/16 at 23:03:24.934
