   * xtb version 6.3.3 (4ae9cef) compiled by 'conda@95abc7406d43' on 2020-10-14
          program call               : xtb acid_284.xyz --opt --chrg 0 --uhf 0 --gfn 2
          number of atoms            :                    90
          number of electrons        :                   250
          charge                     :                     0
          spin                       :                   0.0

   ID    Z sym.   atoms
    1    6 C      1-22, 24-33, 35, 36, 40-49
    2    7 N      23, 39
    3    8 O      34, 37, 38, 50
    4    1 H      51-90

          :  Hamiltonian                  GFN2-xTB          :
 * total energy  :  -136.7707110 Eh     change       -0.5159592E-08 Eh
 * total energy  :  -136.7888598 Eh     change       -0.1814883E-01 Eh
 * total energy  :  -136.7945338 Eh     change       -0.5673998E-02 Eh
 * total energy  :  -136.7966187 Eh     change       -0.2084853E-02 Eh
 * total energy  :  -136.7983616 Eh     change       -0.1742948E-02 Eh
 * total energy  :  -136.7994186 Eh     change       -0.1057005E-02 Eh
 * total energy  :  -136.8000873 Eh     change       -0.6686677E-03 Eh
 * total energy  :  -136.8005378 Eh     change       -0.4504886E-03 Eh
 * total energy  :  -136.8005302 Eh     change        0.7618927E-05 Eh
 * total energy  :  -136.8008483 Eh     change       -0.3180974E-03 Eh
 * total energy  :  -136.8087001 Eh     change       -0.1181704E-04 Eh
 * total energy  :  -136.8087079 Eh     change       -0.7833807E-05 Eh
 * total energy  :  -136.8087143 Eh     change       -0.6399007E-05 Eh
 * total energy  :  -136.8087225 Eh     change       -0.8173230E-05 Eh
 * total energy  :  -136.8087322 Eh     change       -0.9709809E-05 Eh
 * total energy  :  -136.8087405 Eh     change       -0.8320479E-05 Eh
 * total energy  :  -136.8087488 Eh     change       -0.8336673E-05 Eh
 * total energy  :  -136.8087576 Eh     change       -0.8714959E-05 Eh
 * total energy  :  -136.8087611 Eh     change       -0.3547721E-05 Eh
   *** GEOMETRY OPTIMIZATION CONVERGED AFTER 107 ITERATIONS ***

 final structure:
================
90
 xtb: 6.3.3 (4ae9cef)
C         2.69587939384107   -1.92010832345009    3.30024819019171
C         1.65428489740347   -1.48481177757333    4.06837188448649
C         0.52199330901938   -0.93115911441129    3.45519228835307
C         0.45427859584525   -0.81022874184967    2.09504396082629
C         1.51685311896273   -1.23747173722503    1.26815430906181
C         2.65591075865039   -1.81597798421948    1.89411702337238
C         3.72692740668404   -2.28323812430792    1.10601361231236
C         3.67935465705235   -2.18763782521182   -0.25444813926625
C         2.57448349071591   -1.59477863092210   -0.87468668836880
C         1.51345236503091   -1.11314582460563   -0.14806253467120
C         0.36725997628846   -0.48506474929512   -0.89796088047296
C        -0.95613827825399   -1.30535056237146   -0.80678210254119
C        -1.29747450422089   -1.95706764010471   -2.12785276355159
C        -2.23461016940388   -1.39745594829866   -2.95734228160232
C        -2.53025488688333   -1.95486044079581   -4.20897744919864
C        -1.87510676263455   -3.07380152941308   -4.63265851833190
C        -0.91542212702570   -3.69499816217622   -3.80680600454756
C        -0.62376658335941   -3.14419531336084   -2.52820092915428
C         0.31617420317830   -3.81785489106052   -1.71783782431224
C         0.95018676036801   -4.94705944693650   -2.15685156086209
C         0.67772181666698   -5.47205416385104   -3.42750495105663
C        -0.24248567575392   -4.86035756749509   -4.23000358356098
N        -1.94681850172641   -0.33597206006335   -0.36655949032124
C        -3.09158861460674   -0.74466108309313    0.25199354514431
C        -3.95659669239056    0.36232037792791    0.75584505273550
C        -5.08371626099207    0.74355780173501    0.04390358407403
C        -5.89076031882542    1.75935695282174    0.52211526981030
C        -5.60060750614723    2.40582471516420    1.71639891077215
C        -6.49153798715667    3.51251339368591    2.22372569298325
C        -5.70310668618005    4.81193325320684    2.40058656854508
C        -7.16651219533249    3.10174232960713    3.53490115684166
C        -4.47904312163570    2.00205138360745    2.43183105561612
C        -3.66203158023086    0.99344794142405    1.95898282754918
O        -3.35734757238641   -1.92182187303284    0.36300136348673
C        -1.43382112960298    1.00493050900233   -0.46707664154414
C        -1.88177915511728    1.68454059236184   -1.77599083324790
O        -0.87154645993971    1.87669999729978   -2.62115626769839
O        -3.01350539259678    2.00279445276003   -2.01083156574024
N        -0.00522513700535    0.83463691291749   -0.41281223262271
C         0.77162949650523    1.80086062583609    0.14715634947461
C         2.24263434071801    1.59279025315267    0.06213523095943
C         3.00429475349042    1.54644552479041    1.22293003756894
C         4.37332883220733    1.38658107021608    1.14832712910969
C         5.01697667010697    1.30044997290474   -0.08087379527774
C         6.51347875870785    1.13148699107520   -0.16628000992619
C         7.22986859765100    2.33942945416258    0.44175382144743
C         6.95380131082409   -0.16322066396768    0.51950223657075
C         4.24972404137645    1.38698762269212   -1.23577691130178
C         2.87636955855280    1.52858843903095   -1.17149664077595
O         0.27079341009035    2.78201989296979    0.66231949492502
H         3.57191667640798   -2.35709469061274    3.75791778199010
H         1.69184689230186   -1.56787297971384    5.14438227341030
H        -0.30323201136941   -0.59899587562938    4.06760844853640
H        -0.43114203204919   -0.38100478801938    1.65821547149865
H         4.58091350364196   -2.72234088143827    1.60106416781880
H         4.48909633032014   -2.55869032825365   -0.86468972495657
H         2.56124791429602   -1.51635108699520   -1.95212328551993
H         0.64878486431047   -0.40926478396662   -1.95839525871476
H        -0.89782573119075   -2.08105021110686   -0.03444566184205
H        -2.77596815123791   -0.51691135847279   -2.64734107948917
H        -3.27846290549051   -1.48490151804836   -4.82985215214030
H        -2.08663241010064   -3.50652488320145   -5.59980585456097
H         0.53953938262302   -3.44792632372702   -0.73064654330688
H         1.66484333127250   -5.44385510100501   -1.51718156903193
H         1.19003037734320   -6.36315528178273   -3.75906817814579
H        -0.47489696325525   -5.26214004962972   -5.20603259477947
H        -5.32235333623261    0.24832909922890   -0.88475964039880
H        -6.76222096167737    2.05372433717777   -0.04504573944137
H        -7.27445186039897    3.68791472076670    1.47729489554789
H        -5.20039025539668    5.07822504553212    1.47311173360088
H        -6.37341363630075    5.62266078861558    2.67770808125407
H        -4.95195487448412    4.70835485103837    3.17982034496726
H        -7.85052006831986    3.88017494881513    3.86597765983673
H        -7.72920001095843    2.18078353972091    3.39854855344448
H        -6.42740253495275    2.93925542468336    4.31551919662856
H        -4.23346519708611    2.47995174501299    3.36834870412146
H        -2.79635804749757    0.68830655297441    2.53108104452150
H        -1.77805007434047    1.65035827361416    0.35448212904402
H        -1.18004700100747    2.33076295084543   -3.42279690814119
H         2.51331055196490    1.62120513056774    2.18173503031230
H         4.94534734561277    1.33464525319274    2.06232757416125
H         6.79056426518803    1.06834647364018   -1.22457625350728
H         7.00466156218827    2.42901599474434    1.50135352274960
H         6.91496898215095    3.25515746488336   -0.05359519920428
H         8.30659360639734    2.23543323753895    0.32662353522916
H         6.43462814447096   -1.01436399584296    0.08556358515498
H         8.02507259623316   -0.30749817443046    0.39713334317149
H         6.73056234894073   -0.13260199852632    1.58278389958302
H         4.73426141306142    1.34150646714209   -2.20108351297709
H         2.29294075410617    1.60079672941654   -2.07796981672349

          :  Hamiltonian                  GFN2-xTB          :
         :: total energy            -136.808761103250 Eh    ::
         :: gradient norm              0.000824937144 Eh/a0 ::
         :: HOMO-LUMO gap              2.905520160228 eV    ::
         :: SCC energy              -139.034782035108 Eh    ::
         :: -> dispersion             -0.132844895465 Eh    ::
         :: repulsion energy           2.221516094796 Eh    ::

    * Orbital Energies and Occupations

         #    Occupation            Energy/Eh            Energy/eV
      -------------------------------------------------------------
         1        2.0000           -0.7698301             -20.9481
       ...           ...                  ...                  ...
       113        2.0000           -0.4164654             -11.3326
       114        2.0000           -0.4150032             -11.2928
       115        2.0000           -0.4078165             -11.0973
       116        2.0000           -0.4053959             -11.0314
       117        2.0000           -0.4046383             -11.0108
       118        2.0000           -0.4032040             -10.9717
       119        2.0000           -0.4021337             -10.9426
       120        2.0000           -0.3968075             -10.7977
       121        2.0000           -0.3953986             -10.7593
       122        2.0000           -0.3937957             -10.7157
       123        2.0000           -0.3879247             -10.5560
       124        2.0000           -0.3866336             -10.5208
       125        2.0000           -0.3803497             -10.3498 (HOMO)
       126                         -0.2735738              -7.4443 (LUMO)
       127                         -0.2645014              -7.1974
       128                         -0.2594606              -7.0603
       129                         -0.2458733              -6.6906
       130                         -0.2392872              -6.5113
       131                         -0.2331664              -6.3448
       132                         -0.2287254              -6.2239
       133                         -0.2268123              -6.1719
       134                         -0.2202789              -5.9941
       135                         -0.2096820              -5.7057
       136                         -0.2035727              -5.5395
       ...                                ...                  ...
       240                          0.6884033              18.7324
      -------------------------------------------------------------
                  HL-Gap            0.1067759 Eh            2.9055 eV

     #   Z          covCN         q      C6AA      Î±(0)
     1   6 C        2.921    -0.033    28.824     8.804
     2   6 C        2.915    -0.027    28.687     8.783
     3   6 C        2.917    -0.026    28.644     8.776
     4   6 C        2.917    -0.034    28.846     8.807
     5   6 C        2.984     0.009    27.818     8.652
     6   6 C        2.988     0.014    27.681     8.630
     7   6 C        2.921    -0.035    28.861     8.810
     8   6 C        2.914    -0.029    28.724     8.788
     9   6 C        2.924    -0.034    28.838     8.806
    10   6 C        2.966    -0.006    28.176     8.707
    11   6 C        3.820     0.040    19.887     6.346
    12   6 C        3.824     0.045    19.804     6.333
    13   6 C        2.966    -0.001    28.061     8.689
    14   6 C        2.921    -0.032    28.805     8.801
    15   6 C        2.914    -0.029    28.734     8.790
    16   6 C        2.920    -0.036    28.901     8.816
    17   6 C        2.988     0.015    27.661     8.627
    18   6 C        2.985     0.008    27.830     8.654
    19   6 C        2.917    -0.036    28.896     8.815
    20   6 C        2.917    -0.028    28.711     8.787
    21   6 C        2.915    -0.029    28.725     8.789
    22   6 C        2.921    -0.034    28.850     8.808
    23   7 N        2.764    -0.122    23.660     7.224
    24   6 C        2.762     0.274    22.360     7.744
    25   6 C        2.978    -0.021    28.534     8.762
    26   6 C        2.921    -0.018    28.459     8.748
    27   6 C        2.926    -0.032    28.808     8.802
    28   6 C        2.973     0.015    27.670     8.628
    29   6 C        3.855    -0.014    20.794     6.485
    30   6 C        3.756    -0.104    22.533     6.768
    31   6 C        3.756    -0.103    22.521     6.766
    32   6 C        2.925    -0.032    28.788     8.799
    33   6 C        2.921    -0.031    28.772     8.796
    34   8 O        0.859    -0.419    22.059     6.297
    35   6 C        3.772     0.094    19.051     6.220
    36   6 C        2.688     0.354    20.983     7.497
    37   8 O        1.659    -0.358    20.059     6.046
    38   8 O        0.856    -0.388    21.446     6.209
    39   7 N        2.763    -0.112    23.443     7.191
    40   6 C        2.765     0.273    22.391     7.749
    41   6 C        2.977    -0.016    28.414     8.744
    42   6 C        2.922    -0.022    28.554     8.763
    43   6 C        2.925    -0.032    28.795     8.800
    44   6 C        2.973     0.014    27.689     8.631
    45   6 C        3.855    -0.014    20.793     6.485
    46   6 C        3.756    -0.104    22.534     6.768
    47   6 C        3.756    -0.104    22.532     6.768
    48   6 C        2.926    -0.037    28.926     8.820
    49   6 C        2.921    -0.030    28.748     8.793
    50   8 O        0.859    -0.437    22.424     6.349
    51   1 H        0.926     0.035     2.513     2.479
    52   1 H        0.926     0.036     2.505     2.475
    53   1 H        0.926     0.036     2.507     2.476
    54   1 H        0.926     0.033     2.543     2.494
    55   1 H        0.926     0.039     2.468     2.457
    56   1 H        0.926     0.035     2.521     2.483
    57   1 H        0.926     0.031     2.576     2.510
    58   1 H        0.923     0.048     2.342     2.393
    59   1 H        0.924     0.073     2.056     2.242
    60   1 H        0.926     0.031     2.566     2.505
    61   1 H        0.926     0.036     2.501     2.473
    62   1 H        0.926     0.036     2.498     2.471
    63   1 H        0.926     0.029     2.604     2.524
    64   1 H        0.926     0.032     2.562     2.503
    65   1 H        0.926     0.033     2.539     2.492
    66   1 H        0.926     0.035     2.516     2.481
    67   1 H        0.926     0.042     2.422     2.434
    68   1 H        0.926     0.038     2.473     2.459
    69   1 H        0.924     0.034     2.537     2.491
    70   1 H        0.925     0.036     2.500     2.472
    71   1 H        0.925     0.037     2.490     2.467
    72   1 H        0.925     0.039     2.460     2.453
    73   1 H        0.925     0.038     2.481     2.463
    74   1 H        0.925     0.035     2.523     2.484
    75   1 H        0.925     0.038     2.470     2.458
    76   1 H        0.926     0.040     2.453     2.449
    77   1 H        0.925     0.028     2.611     2.527
    78   1 H        0.923     0.095     1.832     2.117
    79   1 H        0.804     0.341     0.609     1.226
    80   1 H        0.926     0.040     2.447     2.446
    81   1 H        0.926     0.039     2.458     2.452
    82   1 H        0.924     0.033     2.544     2.494
    83   1 H        0.925     0.040     2.453     2.449
    84   1 H        0.925     0.036     2.509     2.477
    85   1 H        0.925     0.039     2.462     2.454
    86   1 H        0.925     0.034     2.531     2.488
    87   1 H        0.925     0.039     2.461     2.453
    88   1 H        0.925     0.038     2.473     2.459
    89   1 H        0.926     0.034     2.525     2.485
    90   1 H        0.926     0.033     2.538     2.491

Wiberg/Mayer (AO) data.
largest (>0.10) Wiberg bond orders for each atom

     #   Z sym  total        # sym  WBO       # sym  WBO       # sym  WBO
 ---------------------------------------------------------------------------
     1   6 C    3.991 --     2 C    1.556     6 C    1.280    51 H    0.968
                             4 C    0.118
     2   6 C    3.992 --     1 C    1.556     3 C    1.323    52 H    0.971
     3   6 C    3.992 --     4 C    1.553     2 C    1.323    53 H    0.971
     4   6 C    3.992 --     3 C    1.553     5 C    1.284    54 H    0.964
                             1 C    0.118
     5   6 C    3.989 --     4 C    1.284     6 C    1.252    10 C    1.252
     6   6 C    3.990 --     1 C    1.280     7 C    1.279     5 C    1.252
     7   6 C    3.989 --     8 C    1.551     6 C    1.279    55 H    0.968
                            10 C    0.115
     8   6 C    3.992 --     7 C    1.551     9 C    1.328    56 H    0.969
     9   6 C    3.990 --    10 C    1.517     8 C    1.328    57 H    0.967
    10   6 C    3.984 --     9 C    1.517     5 C    1.252    11 C    0.995
                             7 C    0.115
    11   6 C    3.966 --    10 C    0.995    39 N    0.964    58 H    0.953
                            12 C    0.942
    12   6 C    3.962 --    13 C    0.988    23 N    0.965    59 H    0.945
                            11 C    0.942
    13   6 C    3.985 --    14 C    1.531    18 C    1.248    12 C    0.988
                            16 C    0.114
    14   6 C    3.990 --    13 C    1.531    15 C    1.321    60 H    0.964
    15   6 C    3.992 --    16 C    1.558    14 C    1.321    61 H    0.970
    16   6 C    3.990 --    15 C    1.558    17 C    1.276    62 H    0.968
                            13 C    0.114
    17   6 C    3.990 --    22 C    1.281    16 C    1.276    18 C    1.255
    18   6 C    3.989 --    19 C    1.286    17 C    1.255    13 C    1.248
    19   6 C    3.992 --    20 C    1.552    18 C    1.286    63 H    0.962
                            22 C    0.118
    20   6 C    3.992 --    19 C    1.552    21 C    1.324    64 H    0.971
    21   6 C    3.992 --    22 C    1.555    20 C    1.324    65 H    0.971
    22   6 C    3.991 --    21 C    1.555    17 C    1.281    66 H    0.968
                            19 C    0.118
    23   7 N    3.458 --    24 C    1.189    35 C    0.984    12 C    0.965
                            34 O    0.187
    24   6 C    3.940 --    34 O    1.704    23 N    1.189    25 C    0.962
    25   6 C    3.986 --    26 C    1.409    33 C    1.396    24 C    0.962
                            28 C    0.107
    26   6 C    3.990 --    27 C    1.442    25 C    1.409    67 H    0.969
                            32 C    0.110
    27   6 C    3.991 --    26 C    1.442    28 C    1.416    68 H    0.967
                            33 C    0.108
    28   6 C    3.987 --    27 C    1.416    32 C    1.405    29 C    0.999
                            25 C    0.107
    29   6 C    3.996 --    28 C    0.999    30 C    0.998    31 C    0.996
                            69 H    0.968
    30   6 C    3.996 --    29 C    0.998    70 H    0.987    71 H    0.986
                            72 H    0.985
    31   6 C    3.996 --    29 C    0.996    74 H    0.988    75 H    0.986
                            73 H    0.986
    32   6 C    3.991 --    33 C    1.452    28 C    1.405    76 H    0.966
                            26 C    0.110
    33   6 C    3.991 --    32 C    1.452    25 C    1.396    77 H    0.969
                            27 C    0.108
    34   8 O    2.023 --    24 C    1.704    23 N    0.187
    35   6 C    3.967 --    39 N    0.989    23 N    0.984    78 H    0.927
                            36 C    0.911
    36   6 C    3.917 --    38 O    1.779    37 O    1.155    35 C    0.911
    37   8 O    2.222 --    36 C    1.155    79 H    0.858    38 O    0.182
    38   8 O    2.061 --    36 C    1.779    37 O    0.182
    39   7 N    3.466 --    40 C    1.202    35 C    0.989    11 C    0.964
                            50 O    0.187
    40   6 C    3.943 --    50 O    1.678    39 N    1.202    41 C    0.974
    41   6 C    3.986 --    49 C    1.399    42 C    1.396    40 C    0.974
                            44 C    0.106
    42   6 C    3.990 --    43 C    1.455    41 C    1.396    80 H    0.969
                            48 C    0.106
    43   6 C    3.991 --    42 C    1.455    44 C    1.405    81 H    0.966
                            49 C    0.108
    44   6 C    3.987 --    48 C    1.411    43 C    1.405    45 C    1.000
                            41 C    0.106
    45   6 C    3.996 --    44 C    1.000    47 C    0.997    46 C    0.996
                            82 H    0.968
    46   6 C    3.995 --    45 C    0.996    84 H    0.987    85 H    0.985
                            83 H    0.985
    47   6 C    3.996 --    45 C    0.997    86 H    0.986    87 H    0.985
                            88 H    0.985
    48   6 C    3.991 --    49 C    1.448    44 C    1.411    89 H    0.967
                            42 C    0.106
    49   6 C    3.991 --    48 C    1.448    41 C    1.399    90 H    0.969
                            43 C    0.108
    50   8 O    2.005 --    40 C    1.678    39 N    0.187
    51   1 H    0.998 --     1 C    0.968
    52   1 H    0.998 --     2 C    0.971
    53   1 H    0.998 --     3 C    0.971
    54   1 H    0.998 --     4 C    0.964
    55   1 H    0.997 --     7 C    0.968
    56   1 H    0.998 --     8 C    0.969
    57   1 H    0.999 --     9 C    0.967
    58   1 H    0.997 --    11 C    0.953
    59   1 H    0.994 --    12 C    0.945
    60   1 H    0.999 --    14 C    0.964
    61   1 H    0.998 --    15 C    0.970
    62   1 H    0.998 --    16 C    0.968
    63   1 H    0.999 --    19 C    0.962
    64   1 H    0.999 --    20 C    0.971
    65   1 H    0.998 --    21 C    0.971
    66   1 H    0.998 --    22 C    0.968
    67   1 H    0.998 --    26 C    0.969
    68   1 H    0.998 --    27 C    0.967
    69   1 H    0.999 --    29 C    0.968
    70   1 H    0.999 --    30 C    0.987
    71   1 H    0.998 --    30 C    0.986
    72   1 H    0.998 --    30 C    0.985
    73   1 H    0.998 --    31 C    0.986
    74   1 H    0.999 --    31 C    0.988
    75   1 H    0.999 --    31 C    0.986
    76   1 H    0.998 --    32 C    0.966
    77   1 H    0.999 --    33 C    0.969
    78   1 H    0.990 --    35 C    0.927
    79   1 H    0.883 --    37 O    0.858
    80   1 H    0.998 --    42 C    0.969
    81   1 H    0.998 --    43 C    0.966
    82   1 H    0.999 --    45 C    0.968
    83   1 H    0.998 --    46 C    0.985
    84   1 H    0.999 --    46 C    0.987
    85   1 H    0.998 --    46 C    0.985
    86   1 H    0.999 --    47 C    0.986
    87   1 H    0.998 --    47 C    0.985
    88   1 H    0.999 --    47 C    0.985
    89   1 H    0.998 --    48 C    0.967
    90   1 H    0.999 --    49 C    0.969
 ---------------------------------------------------------------------------

molecular dipole:
                 x           y           z       tot (Debye)
 q only:        1.889      -0.262      -0.623
   full:        1.933      -0.090      -0.794       5.317

           -------------------------------------------------
          | TOTAL ENERGY             -136.808761103250 Eh   |
          | GRADIENT NORM               0.000824937144 Eh/Î± |
          | HOMO-LUMO GAP               2.905520160228 eV   |
           -------------------------------------------------

 * finished run on 2022/03/16 at 23:22:21.832
