   * xtb version 6.3.3 (4ae9cef) compiled by 'conda@95abc7406d43' on 2020-10-14
          program call               : xtb acid_309.xyz --opt --chrg 0 --uhf 0 --gfn 2
          number of atoms            :                    86
          number of electrons        :                   250
          charge                     :                     0
          spin                       :                   0.0

   ID    Z sym.   atoms
    1    6 C      1-22, 24-32, 35, 36, 40-48
    2    7 N      23, 39
    3   16 S      33, 49
    4    8 O      34, 37, 38, 50
    5    1 H      51-86

          :  Hamiltonian                  GFN2-xTB          :
 * total energy  :  -136.9584019 Eh     change       -0.4700922E-08 Eh
 * total energy  :  -136.9769863 Eh     change       -0.1858442E-01 Eh
 * total energy  :  -136.9823422 Eh     change       -0.5355886E-02 Eh
 * total energy  :  -136.9842214 Eh     change       -0.1879178E-02 Eh
 * total energy  :  -136.9859525 Eh     change       -0.1731100E-02 Eh
 * total energy  :  -136.9871292 Eh     change       -0.1176717E-02 Eh
 * total energy  :  -136.9881488 Eh     change       -0.1019580E-02 Eh
 * total energy  :  -136.9891466 Eh     change       -0.9978663E-03 Eh
 * total energy  :  -136.9900845 Eh     change       -0.9379092E-03 Eh
 * total energy  :  -136.9910070 Eh     change       -0.9224702E-03 Eh
 * total energy  :  -137.0077306 Eh     change       -0.9337985E-05 Eh
 * total energy  :  -137.0077398 Eh     change       -0.9201080E-05 Eh
 * total energy  :  -137.0077495 Eh     change       -0.9671460E-05 Eh
 * total energy  :  -137.0077590 Eh     change       -0.9495262E-05 Eh
 * total energy  :  -137.0077695 Eh     change       -0.1049230E-04 Eh
 * total energy  :  -137.0077813 Eh     change       -0.1179680E-04 Eh
 * total energy  :  -137.0077918 Eh     change       -0.1047132E-04 Eh
 * total energy  :  -137.0078007 Eh     change       -0.8917811E-05 Eh
 * total energy  :  -137.0078048 Eh     change       -0.4107686E-05 Eh
   *** GEOMETRY OPTIMIZATION CONVERGED AFTER 68 ITERATIONS ***

 final structure:
================
86
 xtb: 6.3.3 (4ae9cef)
C         0.70842634161523    5.81927559170048   -1.97941903903046
C        -0.02899534304349    6.22835622197019   -0.90586633348176
C        -0.34920338516704    5.31195837345931    0.10515606516855
C         0.06834663192798    4.01250789064962    0.02744800492492
C         0.82660209187838    3.54872099662230   -1.07086205430050
C         1.14882554903068    4.48382671548870   -2.09426481816225
C         1.89534890659442    4.06600855970050   -3.21496363531403
C         2.29601795411185    2.76716324623500   -3.33594748061560
C         1.97088970210849    1.83580989546613   -2.34193771247208
C         1.27097816245187    2.20713247947025   -1.22159586599467
C         0.91322692227402    1.15999461793202   -0.19189098822832
C        -0.40781347563780    0.45224861462230   -0.58358296484567
C        -1.58555911433577    1.03751521466046    0.15203690303885
C        -2.41305479110727    1.88526500222927   -0.54320495737115
C        -3.54379317332680    2.45574947811058    0.05169747040407
C        -3.86449995252034    2.14331533683056    1.34110346454620
C        -3.02815913643036    1.30365998580003    2.10394740791794
C        -1.83978418062916    0.77700940462013    1.52568952206850
C        -0.98512343355251    0.01366137171938    2.35213113778620
C        -1.31736964715695   -0.26706858474790    3.64795635791027
C        -2.51887343563565    0.20382366834719    4.19493010184832
C        -3.34649745047687    0.98505091050445    3.44078612931186
N        -0.14049079444624   -0.96257204846317   -0.36492922725051
C        -0.99385913689947   -1.98012304680442   -0.10790581132732
C        -2.42511534239250   -1.69029454612847   -0.12099758763924
C        -3.17271442699658   -1.02421290098948   -1.04860460502196
C        -4.53104295047140   -0.91342254722162   -0.68334437890725
C        -5.58550099390392   -0.21041267968736   -1.47863379232065
C        -6.77267954329175    0.13890369972917   -0.58309330812767
C        -7.21229975479997   -1.08631921567770    0.21476341432299
C        -6.11942983418794   -1.49696963990777    1.20361837150732
C        -4.79927401938277   -1.50710334808084    0.51614773804912
S        -3.39679862510156   -2.24548255297435    1.20346251060141
O        -0.55184717431523   -3.10524235430200    0.13738530612584
C         1.28897774563067   -1.21608725728654   -0.25638109421739
C         1.82246724119072   -1.98202757489704   -1.50535031383583
O         1.44233728663149   -3.24113911243190   -1.55974278784097
O         2.51978153954390   -1.45940045678926   -2.32620225380170
N         1.88110875864906    0.07865565833925   -0.09483046749540
C         3.19900431836303    0.35817871808565    0.12921361703237
C         4.10662875951207   -0.80482682248600    0.15561829659460
C         4.08718727972258   -1.94157124666794    0.91052053494040
C         5.18489960060105   -2.79520892070420    0.65741391685393
C         6.02322714909420   -2.29470466521440   -0.29473837715320
C         7.25643653445890   -2.96845324932098   -0.78878548796137
C         7.22372194717230   -4.44543900683717   -0.39102892576311
C         6.85257138937712   -4.58718136447211    1.08332256360204
C         5.41663369517814   -4.11983873406170    1.31602588358466
S         5.49839808685495   -0.75183191006540   -0.87132596547439
O         3.58128122888746    1.49974488877859    0.27854758697030
H         0.96741476620359    6.51418016507520   -2.76573245360048
H        -0.36491472701787    7.25178711808096   -0.82602264781263
H        -0.93066959648950    5.63936604999011    0.95482778560230
H        -0.19862745947109    3.33947290534431    0.82712277835930
H         2.13891452277239    4.79404584990760   -3.97553434806796
H         2.86455909625283    2.44109532896902   -4.19364168760760
H         2.29552803674933    0.81356780409958   -2.46594700495039
H         0.83217473959579    1.62710328426442    0.79627806699527
H        -0.56376847209096    0.60241372062766   -1.66209478332001
H        -2.19488719325233    2.11276982732384   -1.57675649425088
H        -4.16535673272581    3.12286283487003   -0.52605482027643
H        -4.75426413092925    2.54553814318647    1.80377365614949
H        -0.04479842526782   -0.34621729365888    1.96887186407960
H        -0.65031608583315   -0.85585037419787    4.25958871375394
H        -2.77287530937863   -0.04199640164385    5.21499464287879
H        -4.26143675265398    1.38033642372254    3.85880712070007
H        -2.77334128776354   -0.64020488430667   -1.96997392735085
H        -5.91578935745515   -0.86158638894301   -2.29411179513019
H        -5.16505651118449    0.69215560838426   -1.92683621326083
H        -6.47985389952194    0.93244019659166    0.10741420264980
H        -7.59939248141092    0.50603401715914   -1.19309970707428
H        -8.13447507570806   -0.87436201230914    0.75760014047569
H        -7.40750976093420   -1.91081466513434   -0.47357570912865
H        -6.33519121355783   -2.47822771914753    1.63145632303910
H        -6.08071192406053   -0.78225086037320    2.03284407594811
H         1.46033729678936   -1.86668205494844    0.61929475587555
H         0.76668650708915   -3.45789265418165   -0.85816181816804
H         3.34492908331538   -2.15852622813832    1.65972758689557
H         8.13573190554218   -2.48541566684956   -0.34937173880416
H         7.33516208496629   -2.86284098940107   -1.87267978158554
H         8.19826923655854   -4.89788584674943   -0.58090182308083
H         6.48257372061516   -4.96779951497075   -0.99895393711831
H         6.95688516197408   -5.62650772434956    1.39972693933906
H         7.53412726274642   -3.98110528509755    1.68394079107290
H         5.20852420753678   -4.04427527326186    2.38602198462319
H         4.71787006035437   -4.85132919475692    0.89672819098019

          :  Hamiltonian                  GFN2-xTB          :
         :: total energy            -137.007804798655 Eh    ::
         :: gradient norm              0.000317768044 Eh/a0 ::
         :: HOMO-LUMO gap              2.485508386419 eV    ::
         :: SCC energy              -139.073725038898 Eh    ::
         :: -> dispersion             -0.136853482178 Eh    ::
         :: repulsion energy           2.061609350474 Eh    ::

    * Orbital Energies and Occupations

         #    Occupation            Energy/Eh            Energy/eV
      -------------------------------------------------------------
         1        2.0000           -0.7505787             -20.4243
       ...           ...                  ...                  ...
       113        2.0000           -0.4216006             -11.4723
       114        2.0000           -0.4189380             -11.3999
       115        2.0000           -0.4141560             -11.2698
       116        2.0000           -0.4099633             -11.1557
       117        2.0000           -0.4068029             -11.0697
       118        2.0000           -0.3980095             -10.8304
       119        2.0000           -0.3962150             -10.7816
       120        2.0000           -0.3960309             -10.7765
       121        2.0000           -0.3924851             -10.6801
       122        2.0000           -0.3894467             -10.5974
       123        2.0000           -0.3835825             -10.4378
       124        2.0000           -0.3746861             -10.1957
       125        2.0000           -0.3716565             -10.1133 (HOMO)
       126                         -0.2803157              -7.6278 (LUMO)
       127                         -0.2774040              -7.5485
       128                         -0.2584507              -7.0328
       129                         -0.2486568              -6.7663
       130                         -0.2469924              -6.7210
       131                         -0.2465295              -6.7084
       132                         -0.2303609              -6.2684
       133                         -0.2258552              -6.1458
       134                         -0.2120121              -5.7691
       135                         -0.2088087              -5.6820
       136                         -0.2066057              -5.6220
       ...                                ...                  ...
       246                          0.6957442              18.9322
      -------------------------------------------------------------
                  HL-Gap            0.0913408 Eh            2.4855 eV

     #   Z          covCN         q      C6AA      Î±(0)
     1   6 C        2.921    -0.034    28.843     8.807
     2   6 C        2.915    -0.030    28.761     8.794
     3   6 C        2.917    -0.030    28.746     8.792
     4   6 C        2.917    -0.035    28.873     8.811
     5   6 C        2.983     0.010    27.794     8.648
     6   6 C        2.989     0.016    27.650     8.626
     7   6 C        2.920    -0.035    28.882     8.813
     8   6 C        2.915    -0.026    28.652     8.777
     9   6 C        2.921    -0.032    28.799     8.800
    10   6 C        2.968     0.002    27.981     8.677
    11   6 C        3.822     0.053    19.676     6.312
    12   6 C        3.818     0.044    19.831     6.338
    13   6 C        2.966    -0.006    28.171     8.706
    14   6 C        2.925    -0.033    28.823     8.804
    15   6 C        2.914    -0.028    28.689     8.783
    16   6 C        2.921    -0.034    28.852     8.808
    17   6 C        2.988     0.015    27.666     8.628
    18   6 C        2.984     0.008    27.828     8.653
    19   6 C        2.917    -0.035    28.860     8.809
    20   6 C        2.917    -0.025    28.629     8.774
    21   6 C        2.915    -0.026    28.653     8.778
    22   6 C        2.921    -0.033    28.810     8.802
    23   7 N        2.757    -0.117    23.540     7.206
    24   6 C        2.800     0.270    22.451     7.762
    25   6 C        2.993    -0.018    28.439     8.748
    26   6 C        3.106    -0.052    29.134     8.844
    27   6 C        3.157    -0.010    27.940     8.642
    28   6 C        3.808    -0.057    21.593     6.615
    29   6 C        3.807    -0.059    21.623     6.620
    30   6 C        3.808    -0.058    21.611     6.618
    31   6 C        3.824    -0.058    21.593     6.612
    32   6 C        2.999     0.018    27.602     8.618
    33  16 S        2.337    -0.000   141.074    19.991
    34   8 O        0.860    -0.472    23.177     6.455
    35   6 C        3.759     0.085    19.221     6.250
    36   6 C        2.684     0.350    21.052     7.509
    37   8 O        1.655    -0.368    20.231     6.072
    38   8 O        0.856    -0.365    20.997     6.144
    39   7 N        2.759    -0.124    23.701     7.231
    40   6 C        2.799     0.276    22.338     7.743
    41   6 C        2.990    -0.023    28.581     8.770
    42   6 C        3.112    -0.062    29.371     8.878
    43   6 C        3.157    -0.012    27.998     8.652
    44   6 C        2.999     0.016    27.642     8.624
    45   6 C        3.823    -0.058    21.603     6.614
    46   6 C        3.808    -0.057    21.597     6.615
    47   6 C        3.807    -0.058    21.608     6.617
    48   6 C        3.808    -0.056    21.566     6.611
    49  16 S        2.348     0.014   140.492    19.949
    50   8 O        0.859    -0.419    22.063     6.298
    51   1 H        0.926     0.034     2.527     2.486
    52   1 H        0.926     0.031     2.570     2.507
    53   1 H        0.926     0.028     2.609     2.526
    54   1 H        0.926     0.021     2.714     2.576
    55   1 H        0.926     0.036     2.507     2.476
    56   1 H        0.926     0.041     2.440     2.443
    57   1 H        0.926     0.058     2.224     2.332
    58   1 H        0.924     0.058     2.221     2.330
    59   1 H        0.923     0.049     2.336     2.390
    60   1 H        0.926     0.031     2.567     2.506
    61   1 H        0.926     0.038     2.473     2.459
    62   1 H        0.926     0.037     2.489     2.467
    63   1 H        0.926     0.029     2.607     2.525
    64   1 H        0.926     0.038     2.479     2.462
    65   1 H        0.926     0.038     2.477     2.461
    66   1 H        0.926     0.035     2.515     2.480
    67   1 H        0.926     0.038     2.474     2.460
    68   1 H        0.924     0.047     2.352     2.398
    69   1 H        0.924     0.042     2.421     2.433
    70   1 H        0.924     0.038     2.476     2.461
    71   1 H        0.924     0.038     2.482     2.464
    72   1 H        0.924     0.039     2.462     2.454
    73   1 H        0.924     0.042     2.419     2.432
    74   1 H        0.924     0.051     2.304     2.374
    75   1 H        0.924     0.050     2.317     2.381
    76   1 H        0.923     0.061     2.182     2.310
    77   1 H        0.800     0.365     0.555     1.171
    78   1 H        0.926     0.024     2.675     2.558
    79   1 H        0.924     0.049     2.328     2.386
    80   1 H        0.924     0.050     2.317     2.381
    81   1 H        0.924     0.035     2.511     2.478
    82   1 H        0.924     0.042     2.428     2.437
    83   1 H        0.924     0.033     2.541     2.493
    84   1 H        0.924     0.037     2.485     2.465
    85   1 H        0.924     0.040     2.451     2.448
    86   1 H        0.924     0.043     2.408     2.427

Wiberg/Mayer (AO) data.
largest (>0.10) Wiberg bond orders for each atom

     #   Z sym  total        # sym  WBO       # sym  WBO       # sym  WBO
 ---------------------------------------------------------------------------
     1   6 C    3.991 --     2 C    1.556     6 C    1.280    51 H    0.968
                             4 C    0.118
     2   6 C    3.992 --     1 C    1.556     3 C    1.323    52 H    0.971
     3   6 C    3.992 --     4 C    1.554     2 C    1.323    53 H    0.971
     4   6 C    3.992 --     3 C    1.554     5 C    1.284    54 H    0.962
                             1 C    0.118
     5   6 C    3.989 --     4 C    1.284    10 C    1.253     6 C    1.252
     6   6 C    3.990 --     1 C    1.280     7 C    1.279     5 C    1.252
     7   6 C    3.990 --     8 C    1.555     6 C    1.279    55 H    0.968
                            10 C    0.114
     8   6 C    3.992 --     7 C    1.555     9 C    1.325    56 H    0.970
     9   6 C    3.988 --    10 C    1.526     8 C    1.325    57 H    0.960
    10   6 C    3.982 --     9 C    1.526     5 C    1.253    11 C    0.986
                             7 C    0.114
    11   6 C    3.962 --    10 C    0.986    39 N    0.961    58 H    0.947
                            12 C    0.946
    12   6 C    3.960 --    13 C    0.993    23 N    0.958    59 H    0.951
                            11 C    0.946
    13   6 C    3.983 --    14 C    1.515    18 C    1.253    12 C    0.993
                            16 C    0.114
    14   6 C    3.989 --    13 C    1.515    15 C    1.329    60 H    0.967
    15   6 C    3.991 --    16 C    1.550    14 C    1.329    61 H    0.970
    16   6 C    3.990 --    15 C    1.550    17 C    1.280    62 H    0.967
                            13 C    0.114
    17   6 C    3.990 --    22 C    1.280    16 C    1.280    18 C    1.251
    18   6 C    3.989 --    19 C    1.283    13 C    1.253    17 C    1.251
    19   6 C    3.992 --    20 C    1.554    18 C    1.283    63 H    0.966
                            22 C    0.118
    20   6 C    3.991 --    19 C    1.554    21 C    1.322    64 H    0.971
    21   6 C    3.991 --    22 C    1.557    20 C    1.322    65 H    0.970
    22   6 C    3.991 --    21 C    1.557    17 C    1.280    66 H    0.968
                            19 C    0.118
    23   7 N    3.489 --    24 C    1.243    35 C    0.967    12 C    0.958
                            34 O    0.177
    24   6 C    3.947 --    34 O    1.565    23 N    1.243    25 C    1.034
    25   6 C    3.944 --    26 C    1.547    33 S    1.138    24 C    1.034
                            32 C    0.105
    26   6 C    3.985 --    25 C    1.547    27 C    1.269    67 H    0.963
                            33 S    0.104
    27   6 C    3.983 --    32 C    1.546    26 C    1.269    28 C    1.008
    28   6 C    3.997 --    27 C    1.008    29 C    1.006    69 H    0.968
                            68 H    0.960
    29   6 C    3.997 --    30 C    1.009    28 C    1.006    71 H    0.977
                            70 H    0.977
    30   6 C    3.996 --    29 C    1.009    31 C    1.000    73 H    0.978
                            72 H    0.977
    31   6 C    3.995 --    32 C    1.027    30 C    1.000    74 H    0.965
                            75 H    0.956
    32   6 C    3.948 --    27 C    1.546    33 S    1.173    31 C    1.027
                            25 C    0.105
    33  16 S    2.618 --    32 C    1.173    25 C    1.138    26 C    0.104
    34   8 O    1.988 --    24 C    1.565    23 N    0.177
    35   6 C    3.959 --    39 N    1.001    23 N    0.967    76 H    0.933
                            36 C    0.889
    36   6 C    3.930 --    38 O    1.776    37 O    1.203    35 C    0.889
    37   8 O    2.237 --    36 C    1.203    77 H    0.771    38 O    0.182
    38   8 O    2.082 --    36 C    1.776    37 O    0.182
    39   7 N    3.447 --    40 C    1.178    35 C    1.001    11 C    0.961
                            50 O    0.184
    40   6 C    3.948 --    50 O    1.685    39 N    1.178    41 C    1.002
    41   6 C    3.946 --    42 C    1.564    49 S    1.153    40 C    1.002
                            44 C    0.105
    42   6 C    3.983 --    41 C    1.564    43 C    1.261    78 H    0.962
                            49 S    0.102
    43   6 C    3.983 --    44 C    1.553    42 C    1.261    48 C    1.008
    44   6 C    3.948 --    43 C    1.553    49 S    1.175    45 C    1.025
                            41 C    0.105
    45   6 C    3.996 --    44 C    1.025    46 C    1.001    80 H    0.966
                            79 H    0.957
    46   6 C    3.997 --    47 C    1.009    45 C    1.001    82 H    0.978
                            81 H    0.977
    47   6 C    3.997 --    46 C    1.009    48 C    1.006    84 H    0.978
                            83 H    0.978
    48   6 C    3.998 --    43 C    1.008    47 C    1.006    85 H    0.969
                            86 H    0.962
    49  16 S    2.629 --    44 C    1.175    41 C    1.153    42 C    0.102
    50   8 O    2.021 --    40 C    1.685    39 N    0.184
    51   1 H    0.998 --     1 C    0.968
    52   1 H    0.998 --     2 C    0.971
    53   1 H    0.999 --     3 C    0.971
    54   1 H    0.999 --     4 C    0.962
    55   1 H    0.998 --     7 C    0.968
    56   1 H    0.997 --     8 C    0.970
    57   1 H    0.996 --     9 C    0.960
    58   1 H    0.996 --    11 C    0.947
    59   1 H    0.997 --    12 C    0.951
    60   1 H    0.998 --    14 C    0.967
    61   1 H    0.997 --    15 C    0.970
    62   1 H    0.998 --    16 C    0.967
    63   1 H    0.999 --    19 C    0.966
    64   1 H    0.998 --    20 C    0.971
    65   1 H    0.998 --    21 C    0.970
    66   1 H    0.998 --    22 C    0.968
    67   1 H    0.998 --    26 C    0.963
    68   1 H    0.997 --    28 C    0.960
    69   1 H    0.998 --    28 C    0.968
    70   1 H    0.999 --    29 C    0.977
    71   1 H    0.998 --    29 C    0.977
    72   1 H    0.998 --    30 C    0.977
    73   1 H    0.998 --    30 C    0.978
    74   1 H    0.997 --    31 C    0.965
    75   1 H    0.996 --    31 C    0.956
    76   1 H    0.995 --    35 C    0.933
    77   1 H    0.867 --    37 O    0.771
    78   1 H    0.999 --    42 C    0.962
    79   1 H    0.996 --    45 C    0.957
    80   1 H    0.997 --    45 C    0.966
    81   1 H    0.998 --    46 C    0.977
    82   1 H    0.998 --    46 C    0.978
    83   1 H    0.998 --    47 C    0.978
    84   1 H    0.999 --    47 C    0.978
    85   1 H    0.998 --    48 C    0.969
    86   1 H    0.998 --    48 C    0.962
 ---------------------------------------------------------------------------

molecular dipole:
                 x           y           z       tot (Debye)
 q only:       -2.551       0.140       0.605
   full:       -2.907       0.037       0.844       7.695

           -------------------------------------------------
          | TOTAL ENERGY             -137.007804798655 Eh   |
          | GRADIENT NORM               0.000317768044 Eh/Î± |
          | HOMO-LUMO GAP               2.485508386419 eV   |
           -------------------------------------------------

 * finished run on 2022/03/16 at 23:39:25.485
