   * xtb version 6.3.3 (4ae9cef) compiled by 'conda@95abc7406d43' on 2020-10-14
          program call               : xtb acid_280.xyz --opt --chrg 0 --uhf 0 --gfn 2
          number of atoms            :                    90
          number of electrons        :                   250
          charge                     :                     0
          spin                       :                   0.0

   ID    Z sym.   atoms
    1    6 C      1-22, 24-33, 35, 36, 40-49
    2    7 N      23, 39
    3    8 O      34, 37, 38, 50
    4    1 H      51-90

          :  Hamiltonian                  GFN2-xTB          :
 * total energy  :  -136.7737460 Eh     change       -0.4954472E-08 Eh
 * total energy  :  -136.7903846 Eh     change       -0.1663858E-01 Eh
 * total energy  :  -136.7953737 Eh     change       -0.4989053E-02 Eh
 * total energy  :  -136.7966729 Eh     change       -0.1299235E-02 Eh
 * total energy  :  -136.7973974 Eh     change       -0.7244895E-03 Eh
 * total energy  :  -136.7976674 Eh     change       -0.2699996E-03 Eh
 * total energy  :  -136.7979185 Eh     change       -0.2511343E-03 Eh
 * total energy  :  -136.7982174 Eh     change       -0.2989123E-03 Eh
 * total energy  :  -136.7985418 Eh     change       -0.3243568E-03 Eh
 * total energy  :  -136.7988944 Eh     change       -0.3526169E-03 Eh
 * total energy  :  -136.8071287 Eh     change       -0.4945911E-04 Eh
 * total energy  :  -136.8071758 Eh     change       -0.4716977E-04 Eh
 * total energy  :  -136.8072095 Eh     change       -0.3365827E-04 Eh
 * total energy  :  -136.8072300 Eh     change       -0.2047526E-04 Eh
 * total energy  :  -136.8072418 Eh     change       -0.1184648E-04 Eh
 * total energy  :  -136.8072173 Eh     change        0.2455592E-04 Eh
 * total energy  :  -136.8072462 Eh     change       -0.2892466E-04 Eh
 * total energy  :  -136.8072546 Eh     change       -0.8451305E-05 Eh
 * total energy  :  -136.8072596 Eh     change       -0.4927229E-05 Eh
   *** GEOMETRY OPTIMIZATION CONVERGED AFTER 122 ITERATIONS ***

 final structure:
================
90
 xtb: 6.3.3 (4ae9cef)
C        -0.96098700496763   -3.36438674690166    2.37689711826507
C        -1.09154127360947   -3.82560584250154    3.65756273075885
C         0.03751738246652   -4.15984166983602    4.43160311130831
C        -0.06770558879445   -4.63510436729232    5.75567924120503
C         1.05180154983796   -4.94840205309374    6.47367556056777
C         2.32652969660209   -4.80035361735789    5.90220747081505
C         2.46168160224680   -4.34205907799616    4.62226331752645
C         1.32552482387450   -4.01019463424240    3.85357594583462
C         1.42806414515970   -3.53445522605051    2.53286818132225
C         0.31343574485621   -3.21511835757584    1.79689198360457
C         0.52912582138442   -2.63832123747317    0.41731315443996
C        -0.71409862649510   -2.54462125834044   -0.49237320435486
C        -0.33741863050787   -2.72693553182202   -1.94281694698497
C        -0.57076236489180   -3.92017029860668   -2.57298511739467
C        -0.19701498633496   -4.12215944113906   -3.91622726760913
C        -0.43437134569345   -5.34176136152291   -4.58413211422797
C        -0.06295855448420   -5.50637145697551   -5.88882194405579
C         0.56356323304441   -4.46105841282673   -6.58586105352937
C         0.80677370153028   -3.26722873933647   -5.96676084768609
C         0.43443178276799   -3.06534267048602   -4.62191390322702
C         0.66265438319107   -1.84639124898686   -3.95142804424696
C         0.28741440643437   -1.68166136862615   -2.64966817512164
N        -1.19956327914676   -1.19235791594113   -0.23741831990795
C        -2.33871484941321   -0.70451428702523   -0.79690465717821
C        -2.50795394114683    0.77161952273306   -0.61677430913881
C        -3.43887773409886    1.29467491228355    0.26851149957931
C        -3.55920641423796    2.66419553683158    0.41628082088551
C        -2.77088135788573    3.53935318910561   -0.32247070161163
C        -2.89189962007785    5.03400974638896   -0.15449029448496
C        -2.49535227476204    5.44749177067925    1.26454082609570
C        -4.30706037620625    5.51139709714933   -0.48512051581056
C        -1.86017366017855    3.00444775022992   -1.22489584691937
C        -1.72383746801035    1.63686212203347   -1.37169727690834
O        -3.10369977875374   -1.40954841170803   -1.41672638923726
C        -0.28239806373207   -0.47259645574749    0.61743021072475
C        -0.82895229445054   -0.40628676169351    2.05839353611349
O         0.14777205936470   -0.27247915229662    2.95240808381738
O        -1.99251808080361   -0.42711795478636    2.33983936872525
N         0.92874942192075   -1.23650291364117    0.54471189440575
C         2.13463725084409   -0.80253187011970    0.06706879172128
C         2.25997087435657    0.67482693591754   -0.08879533164311
C         2.62634182737327    1.17839431732792   -1.33153198185059
C         2.71057241255276    2.54399694067078   -1.52920591748257
C         2.45724858962517    3.43573067232707   -0.49393613494154
C         2.56415478298603    4.92278521344763   -0.72272608343641
C         3.76439152631867    5.48946987506285    0.03959696357217
C         1.27728151564393    5.64471578336922   -0.31957246514615
C         2.13087588009859    2.92052839668644    0.75592701994318
C         2.02641263284316    1.55802426325976    0.96018876505237
O         3.02192773157757   -1.57996466011229   -0.21220736293688
H        -1.84940019450917   -3.10749722522128    1.82129022753081
H        -2.07366760037584   -3.93585415041793    4.09433008314226
H        -1.05104939470490   -4.74841345211874    6.18968568347859
H         0.96544372146034   -5.31359957238200    7.48658785700931
H         3.19929377852250   -5.05409356155780    6.48582208392314
H         3.43904154961875   -4.22649221588726    4.17666363646579
H         2.40887055818651   -3.41253447536096    2.09572676359707
H         1.34822079262127   -3.16934276323720   -0.07884342864200
H        -1.47827835325135   -3.28160347319242   -0.23207211581995
H        -1.05419476471804   -4.72832128419157   -2.04230165879235
H        -0.91781301893561   -6.14303028350974   -4.04381141280565
H        -0.24882580038315   -6.44246583753264   -6.39494127928201
H         0.85053077247030   -4.60961847913365   -7.61668121818273
H         1.28785082820554   -2.45907635508210   -6.49945466990881
H         1.14004443605898   -1.03916144886013   -4.48902088340916
H         0.46524463424907   -0.73794547705109   -2.15432665691214
H        -4.05296293301470    0.62512641559876    0.84973286889759
H        -4.28129024909616    3.05294403450091    1.11840342499694
H        -2.19929480630848    5.51387214751446   -0.85528903365600
H        -2.52038100688373    6.53051344785691    1.36179405146250
H        -1.48905866696559    5.10200235559875    1.49152071429360
H        -3.17747830764923    5.02053636901570    1.99531915870885
H        -5.02835651718430    5.10462823771961    0.21882408065565
H        -4.35722522743552    6.59701343321802   -0.43836650094089
H        -4.58865365902208    5.19391460162785   -1.48659040888818
H        -1.24914187572740    3.66325898157921   -1.82612332008685
H        -1.01646565430831    1.24002141086319   -2.08687863276396
H        -0.13649410130112    0.56543618856643    0.28752324743464
H        -0.21111565355933   -0.24983547984579    3.85488327557526
H         2.83587673444016    0.49171844454498   -2.13849042726376
H         2.98123143415989    2.92321047595124   -2.50437819321206
H         2.72900308840890    5.09145466664344   -1.79272986443341
H         3.86305859741374    6.55541954602215   -0.15280909822914
H         3.64381797474717    5.34190349640726    1.11003762554686
H         4.68057611569216    4.99379607768357   -0.27330475067323
H         0.42013010115682    5.20189926998155   -0.82110223453451
H         1.11473107088446    5.58343419228571    0.75332930249205
H         1.33563487393403    6.69548080616795   -0.59418807045965
H         1.95254131807986    3.58889069804018    1.58483066977209
H         1.77909819473327    1.17133719372692    1.93742271481219

          :  Hamiltonian                  GFN2-xTB          :
         :: total energy            -136.807259567278 Eh    ::
         :: gradient norm              0.000360635225 Eh/a0 ::
         :: HOMO-LUMO gap              2.897509742810 eV    ::
         :: SCC energy              -139.033530254367 Eh    ::
         :: -> dispersion             -0.124833331639 Eh    ::
         :: repulsion energy           2.222540217911 Eh    ::

    * Orbital Energies and Occupations

         #    Occupation            Energy/Eh            Energy/eV
      -------------------------------------------------------------
         1        2.0000           -0.7740658             -21.0634
       ...           ...                  ...                  ...
       113        2.0000           -0.4184381             -11.3863
       114        2.0000           -0.4140578             -11.2671
       115        2.0000           -0.4129196             -11.2361
       116        2.0000           -0.4098245             -11.1519
       117        2.0000           -0.4087652             -11.1231
       118        2.0000           -0.4068956             -11.0722
       119        2.0000           -0.4020794             -10.9411
       120        2.0000           -0.3996457             -10.8749
       121        2.0000           -0.3970498             -10.8043
       122        2.0000           -0.3923444             -10.6762
       123        2.0000           -0.3871469             -10.5348
       124        2.0000           -0.3842403             -10.4557
       125        2.0000           -0.3767141             -10.2509 (HOMO)
       126                         -0.2702326              -7.3534 (LUMO)
       127                         -0.2595066              -7.0615
       128                         -0.2587886              -7.0420
       129                         -0.2526893              -6.8760
       130                         -0.2366496              -6.4396
       131                         -0.2360631              -6.4236
       132                         -0.2346104              -6.3841
       133                         -0.2281047              -6.2070
       134                         -0.2276267              -6.1940
       135                         -0.2064524              -5.6179
       136                         -0.2044068              -5.5622
       ...                                ...                  ...
       240                          0.6991156              19.0239
      -------------------------------------------------------------
                  HL-Gap            0.1064815 Eh            2.8975 eV

     #   Z          covCN         q      C6AA      Î±(0)
     1   6 C        2.917    -0.040    28.987     8.829
     2   6 C        2.918    -0.036    28.907     8.817
     3   6 C        2.987     0.011    27.770     8.644
     4   6 C        2.918    -0.036    28.884     8.813
     5   6 C        2.916    -0.029    28.732     8.790
     6   6 C        2.916    -0.029    28.726     8.789
     7   6 C        2.918    -0.034    28.845     8.807
     8   6 C        2.986     0.014    27.693     8.632
     9   6 C        2.926    -0.039    28.979     8.828
    10   6 C        2.968    -0.003    28.099     8.695
    11   6 C        3.854     0.036    19.942     6.351
    12   6 C        3.827     0.041    19.861     6.341
    13   6 C        2.970     0.006    27.895     8.663
    14   6 C        2.924    -0.038    28.939     8.822
    15   6 C        2.987     0.017    27.617     8.620
    16   6 C        2.918    -0.033    28.825     8.804
    17   6 C        2.916    -0.029    28.716     8.787
    18   6 C        2.916    -0.029    28.728     8.789
    19   6 C        2.918    -0.033    28.831     8.805
    20   6 C        2.988     0.014    27.681     8.630
    21   6 C        2.917    -0.032    28.804     8.801
    22   6 C        2.919    -0.028    28.703     8.786
    23   7 N        2.770    -0.122    23.647     7.222
    24   6 C        2.760     0.277    22.317     7.736
    25   6 C        2.978    -0.022    28.543     8.764
    26   6 C        2.920    -0.023    28.584     8.767
    27   6 C        2.925    -0.032    28.809     8.802
    28   6 C        2.972     0.012    27.754     8.641
    29   6 C        3.855    -0.014    20.780     6.483
    30   6 C        3.756    -0.103    22.521     6.766
    31   6 C        3.756    -0.104    22.539     6.769
    32   6 C        2.925    -0.039    28.965     8.826
    33   6 C        2.922    -0.034    28.858     8.809
    34   8 O        0.859    -0.416    22.010     6.290
    35   6 C        3.783     0.091    19.087     6.223
    36   6 C        2.688     0.351    21.035     7.506
    37   8 O        1.659    -0.362    20.124     6.056
    38   8 O        0.856    -0.383    21.339     6.193
    39   7 N        2.771    -0.117    23.539     7.206
    40   6 C        2.762     0.274    22.369     7.745
    41   6 C        2.976    -0.023    28.566     8.767
    42   6 C        2.923    -0.023    28.578     8.767
    43   6 C        2.925    -0.036    28.902     8.816
    44   6 C        2.972     0.016    27.660     8.627
    45   6 C        3.855    -0.014    20.793     6.485
    46   6 C        3.756    -0.103    22.525     6.767
    47   6 C        3.755    -0.102    22.498     6.763
    48   6 C        2.924    -0.033    28.829     8.805
    49   6 C        2.920    -0.038    28.949     8.823
    50   8 O        0.859    -0.418    22.047     6.295
    51   1 H        0.926     0.041     2.431     2.438
    52   1 H        0.926     0.039     2.465     2.455
    53   1 H        0.926     0.033     2.539     2.492
    54   1 H        0.926     0.032     2.552     2.498
    55   1 H        0.926     0.033     2.541     2.493
    56   1 H        0.926     0.038     2.482     2.464
    57   1 H        0.926     0.048     2.340     2.392
    58   1 H        0.924     0.081     1.968     2.194
    59   1 H        0.924     0.067     2.123     2.278
    60   1 H        0.926     0.036     2.500     2.473
    61   1 H        0.926     0.034     2.526     2.485
    62   1 H        0.926     0.032     2.557     2.501
    63   1 H        0.926     0.032     2.565     2.504
    64   1 H        0.926     0.032     2.552     2.498
    65   1 H        0.926     0.034     2.536     2.490
    66   1 H        0.926     0.019     2.752     2.594
    67   1 H        0.926     0.054     2.272     2.357
    68   1 H        0.926     0.041     2.435     2.440
    69   1 H        0.924     0.031     2.568     2.506
    70   1 H        0.925     0.039     2.465     2.455
    71   1 H        0.925     0.031     2.572     2.508
    72   1 H        0.925     0.039     2.459     2.452
    73   1 H        0.925     0.040     2.449     2.447
    74   1 H        0.925     0.038     2.475     2.460
    75   1 H        0.925     0.036     2.501     2.473
    76   1 H        0.926     0.029     2.601     2.522
    77   1 H        0.925     0.027     2.636     2.539
    78   1 H        0.923     0.071     2.077     2.254
    79   1 H        0.804     0.342     0.607     1.223
    80   1 H        0.926     0.047     2.356     2.400
    81   1 H        0.926     0.038     2.479     2.462
    82   1 H        0.924     0.034     2.524     2.485
    83   1 H        0.925     0.040     2.448     2.447
    84   1 H        0.925     0.038     2.469     2.457
    85   1 H        0.925     0.036     2.501     2.473
    86   1 H        0.925     0.034     2.529     2.487
    87   1 H        0.925     0.037     2.495     2.470
    88   1 H        0.925     0.039     2.464     2.455
    89   1 H        0.926     0.037     2.489     2.467
    90   1 H        0.926     0.041     2.439     2.442

Wiberg/Mayer (AO) data.
largest (>0.10) Wiberg bond orders for each atom

     #   Z sym  total        # sym  WBO       # sym  WBO       # sym  WBO
 ---------------------------------------------------------------------------
     1   6 C    3.991 --     2 C    1.552    10 C    1.302    51 H    0.963
     2   6 C    3.991 --     1 C    1.552     3 C    1.283    52 H    0.968
                             9 C    0.117
     3   6 C    3.990 --     2 C    1.283     4 C    1.278     8 C    1.248
     4   6 C    3.992 --     5 C    1.560     3 C    1.278    53 H    0.968
                             7 C    0.119
     5   6 C    3.990 --     4 C    1.560     6 C    1.317    54 H    0.971
     6   6 C    3.992 --     7 C    1.562     5 C    1.317    55 H    0.971
     7   6 C    3.990 --     6 C    1.562     8 C    1.275    56 H    0.968
                             4 C    0.119
     8   6 C    3.990 --     9 C    1.290     7 C    1.275     3 C    1.248
     9   6 C    3.989 --    10 C    1.517     8 C    1.290    57 H    0.965
                             2 C    0.117
    10   6 C    3.984 --     9 C    1.517     1 C    1.302    11 C    0.985
    11   6 C    3.957 --    10 C    0.985    12 C    0.960    58 H    0.950
                            39 N    0.949
    12   6 C    3.963 --    13 C    0.987    11 C    0.960    23 N    0.958
                            59 H    0.950
    13   6 C    3.986 --    14 C    1.525    22 C    1.296    12 C    0.987
    14   6 C    3.989 --    13 C    1.525    15 C    1.283    60 H    0.966
                            21 C    0.115
    15   6 C    3.990 --    14 C    1.283    16 C    1.278    20 C    1.251
    16   6 C    3.990 --    17 C    1.558    15 C    1.278    61 H    0.968
                            19 C    0.118
    17   6 C    3.992 --    16 C    1.558    18 C    1.320    62 H    0.971
    18   6 C    3.990 --    19 C    1.557    17 C    1.320    63 H    0.971
    19   6 C    3.992 --    18 C    1.557    20 C    1.281    64 H    0.968
                            16 C    0.118
    20   6 C    3.990 --    19 C    1.281    21 C    1.277    15 C    1.251
    21   6 C    3.992 --    22 C    1.563    20 C    1.277    65 H    0.968
                            14 C    0.115
    22   6 C    3.992 --    21 C    1.563    13 C    1.296    66 H    0.965
    23   7 N    3.454 --    24 C    1.200    35 C    0.982    12 C    0.958
                            34 O    0.189
    24   6 C    3.944 --    34 O    1.704    23 N    1.200    25 C    0.957
    25   6 C    3.987 --    26 C    1.407    33 C    1.399    24 C    0.957
                            28 C    0.107
    26   6 C    3.989 --    27 C    1.448    25 C    1.407    67 H    0.968
                            32 C    0.108
    27   6 C    3.991 --    26 C    1.448    28 C    1.410    68 H    0.966
                            33 C    0.110
    28   6 C    3.987 --    32 C    1.411    27 C    1.410    29 C    0.999
                            25 C    0.107
    29   6 C    3.996 --    28 C    0.999    31 C    0.998    30 C    0.996
                            69 H    0.967
    30   6 C    3.996 --    29 C    0.996    71 H    0.987    70 H    0.986
                            72 H    0.985
    31   6 C    3.996 --    29 C    0.998    75 H    0.987    74 H    0.986
                            73 H    0.985
    32   6 C    3.991 --    33 C    1.446    28 C    1.411    76 H    0.966
                            26 C    0.108
    33   6 C    3.991 --    32 C    1.446    25 C    1.399    77 H    0.968
                            27 C    0.110
    34   8 O    2.023 --    24 C    1.704    23 N    0.189
    35   6 C    3.976 --    39 N    1.000    23 N    0.982    78 H    0.920
                            36 C    0.914
    36   6 C    3.919 --    38 O    1.783    37 O    1.150    35 C    0.914
    37   8 O    2.217 --    36 C    1.150    79 H    0.856    38 O    0.180
    38   8 O    2.064 --    36 C    1.783    37 O    0.180
    39   7 N    3.448 --    40 C    1.182    35 C    1.000    11 C    0.949
                            50 O    0.182
    40   6 C    3.942 --    50 O    1.700    39 N    1.182    41 C    0.976
    41   6 C    3.986 --    42 C    1.399    49 C    1.389    40 C    0.976
                            44 C    0.105
    42   6 C    3.989 --    43 C    1.447    41 C    1.399    80 H    0.968
                            48 C    0.108
    43   6 C    3.990 --    42 C    1.447    44 C    1.412    81 H    0.967
                            49 C    0.107
    44   6 C    3.986 --    43 C    1.412    48 C    1.404    45 C    1.000
                            41 C    0.105
    45   6 C    3.995 --    44 C    1.000    47 C    0.999    46 C    0.994
                            82 H    0.968
    46   6 C    3.995 --    45 C    0.994    85 H    0.987    84 H    0.986
                            83 H    0.985
    47   6 C    3.995 --    45 C    0.999    88 H    0.986    87 H    0.984
                            86 H    0.984
    48   6 C    3.991 --    49 C    1.455    44 C    1.404    89 H    0.966
                            42 C    0.108
    49   6 C    3.991 --    48 C    1.455    41 C    1.389    90 H    0.966
                            43 C    0.107
    50   8 O    2.023 --    40 C    1.700    39 N    0.182
    51   1 H    0.998 --     1 C    0.963
    52   1 H    0.998 --     2 C    0.968
    53   1 H    0.998 --     4 C    0.968
    54   1 H    0.998 --     5 C    0.971
    55   1 H    0.998 --     6 C    0.971
    56   1 H    0.998 --     7 C    0.968
    57   1 H    0.997 --     9 C    0.965
    58   1 H    0.992 --    11 C    0.950
    59   1 H    0.995 --    12 C    0.950
    60   1 H    0.998 --    14 C    0.966
    61   1 H    0.998 --    16 C    0.968
    62   1 H    0.999 --    17 C    0.971
    63   1 H    0.999 --    18 C    0.971
    64   1 H    0.998 --    19 C    0.968
    65   1 H    0.998 --    21 C    0.968
    66   1 H    0.999 --    22 C    0.965
    67   1 H    0.997 --    26 C    0.968
    68   1 H    0.998 --    27 C    0.966
    69   1 H    0.999 --    29 C    0.967
    70   1 H    0.998 --    30 C    0.986
    71   1 H    0.999 --    30 C    0.987
    72   1 H    0.998 --    30 C    0.985
    73   1 H    0.998 --    31 C    0.985
    74   1 H    0.998 --    31 C    0.986
    75   1 H    0.999 --    31 C    0.987
    76   1 H    0.998 --    32 C    0.966
    77   1 H    0.999 --    33 C    0.968
    78   1 H    0.995 --    35 C    0.920
    79   1 H    0.882 --    37 O    0.856
    80   1 H    0.997 --    42 C    0.968
    81   1 H    0.998 --    43 C    0.967
    82   1 H    0.998 --    45 C    0.968
    83   1 H    0.997 --    46 C    0.985
    84   1 H    0.999 --    46 C    0.986
    85   1 H    0.999 --    46 C    0.987
    86   1 H    0.999 --    47 C    0.984
    87   1 H    0.999 --    47 C    0.984
    88   1 H    0.998 --    47 C    0.986
    89   1 H    0.998 --    48 C    0.966
    90   1 H    0.998 --    49 C    0.966
 ---------------------------------------------------------------------------

molecular dipole:
                 x           y           z       tot (Debye)
 q only:        0.597       1.353       1.130
   full:        0.620       1.654       1.331       5.621

           -------------------------------------------------
          | TOTAL ENERGY             -136.807259567278 Eh   |
          | GRADIENT NORM               0.000360635225 Eh/Î± |
          | HOMO-LUMO GAP               2.897509742810 eV   |
           -------------------------------------------------

 * finished run on 2022/03/16 at 23:19:19.648
