   * xtb version 6.3.3 (4ae9cef) compiled by 'conda@95abc7406d43' on 2020-10-14
          program call               : xtb acid_211.xyz --opt --chrg 0 --uhf 0 --gfn 2
          number of atoms            :                    84
          number of electrons        :                   238
          charge                     :                     0
          spin                       :                   0.0

   ID    Z sym.   atoms
    1    6 C      1-22, 24-32, 34, 35, 39-47
    2    7 N      23, 38
    3    8 O      33, 36, 37, 48
    4    1 H      49-84

          :  Hamiltonian                  GFN2-xTB          :
 * total energy  :  -130.4428341 Eh     change       -0.8061846E-08 Eh
 * total energy  :  -130.4609506 Eh     change       -0.1811650E-01 Eh
 * total energy  :  -130.4667030 Eh     change       -0.5752421E-02 Eh
 * total energy  :  -130.4687230 Eh     change       -0.2019936E-02 Eh
 * total energy  :  -130.4701466 Eh     change       -0.1423675E-02 Eh
 * total energy  :  -130.4707282 Eh     change       -0.5815665E-03 Eh
 * total energy  :  -130.4711105 Eh     change       -0.3823109E-03 Eh
 * total energy  :  -130.4714685 Eh     change       -0.3580332E-03 Eh
 * total energy  :  -130.4718377 Eh     change       -0.3692059E-03 Eh
 * total energy  :  -130.4722055 Eh     change       -0.3677595E-03 Eh
 * total energy  :  -130.4791972 Eh     change       -0.1030709E-04 Eh
 * total energy  :  -130.4792060 Eh     change       -0.8795353E-05 Eh
 * total energy  :  -130.4792154 Eh     change       -0.9423201E-05 Eh
 * total energy  :  -130.4792254 Eh     change       -0.9968427E-05 Eh
 * total energy  :  -130.4792343 Eh     change       -0.8919238E-05 Eh
 * total energy  :  -130.4792418 Eh     change       -0.7549182E-05 Eh
 * total energy  :  -130.4792492 Eh     change       -0.7331987E-05 Eh
 * total energy  :  -130.4792551 Eh     change       -0.5955315E-05 Eh
 * total energy  :  -130.4792598 Eh     change       -0.4725340E-05 Eh
   *** GEOMETRY OPTIMIZATION CONVERGED AFTER 119 ITERATIONS ***

 final structure:
================
84
 xtb: 6.3.3 (4ae9cef)
C        -2.75664311419017    2.93867283378131   -0.46718264344817
C        -3.93684457938945    3.28302459285180    0.12702627015697
C        -4.39374883239669    2.60561130850710    1.27627915014510
C        -5.60987029436093    2.93144209076329    1.91176936847775
C        -6.02109422214801    2.25053997586265    3.02307091445817
C        -5.23692426917714    1.21140655656928    3.54943497098166
C        -4.05386519327820    0.87151644408405    2.95649213730823
C        -3.60049535429240    1.55692550660500    1.80994966194502
C        -2.38701557284017    1.22614947963428    1.17582133700967
C        -1.96818116609106    1.89846594342096    0.05668441046005
C        -0.69349752543519    1.49711431680631   -0.64493691054174
C         0.53692330888692    1.50273683795412    0.26378661315267
C         1.80511056947678    2.02459188673984   -0.36905470502699
C         2.71702712167653    2.69747699512597    0.40200801067107
C         3.96541997367322    3.09092470174743   -0.11907447840911
C         4.92254159023980    3.76608554670554    0.66662021681782
C         6.13070239463549    4.12340401681002    0.13757997838077
C         6.43634634911573    3.82548623959515   -1.20013323542872
C         5.53009900927934    3.17169633308165   -1.98688831567951
C         4.27615453447235    2.78640161633425   -1.46974848493112
C         3.31904479445136    2.10039010896546   -2.24542995995503
C         2.11998117071313    1.72424785503649   -1.71034163638521
N         0.73604700745338    0.08708530738004    0.57886775983296
C         1.48799551185446   -0.27761746893070    1.65098502499941
C         1.84180671278188   -1.72704718377415    1.71333202349710
C         2.87644320522144   -2.22587379430314    0.91919718377325
C         3.69863900881634   -1.31728999592921    0.04815439091506
C         4.73936985961184   -0.57047409556622    0.88651370820071
C         3.18337762586906   -3.57629380451694    1.01401254029348
C         2.49595180843185   -4.40860486292511    1.87854913861794
C         1.50207126869432   -3.89493109934098    2.69286794024040
C         1.18303176705976   -2.55209190858517    2.61576337114257
O         1.83810563698553    0.53236898540977    2.48417172734759
C         0.19853899942832   -0.75280342210170   -0.46173694468759
C        -0.39080022816632   -2.06416760628792    0.08895349257917
O        -1.32630630028682   -1.84822855945647    1.00737653200770
O        -0.03974835543171   -3.15408603432314   -0.26611014634067
N        -0.78299271982262    0.10487648859083   -1.09023253172325
C        -1.72377466962126   -0.24051137267387   -2.00720134880707
C        -1.84550006582901   -1.70676300208024   -2.26496009865063
C        -0.94320542045081   -2.34168051278861   -3.10759106450789
C        -1.06354391664256   -3.69457472228421   -3.36217490576569
C        -2.09174320246853   -4.41251075452827   -2.77689928925808
C        -3.00042371051819   -3.77584019957071   -1.95167309212975
C        -2.89852332756173   -2.41675958056427   -1.68500291611739
C        -3.91189380924422   -1.72775840664458   -0.81410143194890
C        -5.00610981732152   -1.07918257162426   -1.66464676971307
O        -2.40617373291578    0.60031202864286   -2.55522873722707
H        -2.42311092401750    3.45144153643311   -1.35647369544828
H        -4.54302140845545    4.07824547127873   -0.28218087425996
H        -6.21051296221408    3.73147825054778    1.50288195713025
H        -6.95281064114629    2.50649660072971    3.50612527510039
H        -5.57853784414776    0.68447965623329    4.42851788220854
H        -3.44438147515708    0.07364579897909    3.35686153249211
H        -1.79372416635223    0.42232406969218    1.58658667022352
H        -0.55247253643230    2.14302937944952   -1.51884720166667
H         0.34821452801499    2.03576314565068    1.20046893399044
H         2.49363937894011    2.91248266965056    1.43622025645989
H         4.68162044627936    3.98931932409296    1.69561885471660
H         6.86143423572496    4.63769377248343    0.74450602480312
H         7.39606421145138    4.11705892203765   -1.60123729103856
H         5.76145227361884    2.93885793176041   -3.01664662626385
H         3.55371623386934    1.86758082210610   -3.27439553818289
H         1.40617487836296    1.19254825103443   -2.32299434070903
H         3.07117399938620   -0.57871776791437   -0.45362367925925
H         4.20534507967382   -1.90794191443155   -0.71780890647669
H         5.40488926464092   -1.27440365784971    1.38065230552251
H         5.33023132337463    0.08779136886945    0.25323858361780
H         4.24890034392813    0.03261260119847    1.64610405558322
H         3.97439024217292   -3.97965387204878    0.39850396231371
H         2.74468773916729   -5.45821886214769    1.92604058176946
H         0.97896424406873   -4.53672462477115    3.38608815174385
H         0.41506665526206   -2.13160905431806    3.24962045104135
H         0.97403707490157   -1.05975193192332   -1.19194072383865
H        -1.69032712523699   -2.68857365922962    1.33044201477793
H        -0.14671599229851   -1.77112133873599   -3.56371375196038
H        -0.35565990963364   -4.18726295061384   -4.01076775632944
H        -2.18678869421816   -5.47150301366119   -2.96521705022831
H        -3.80504910605346   -4.34069566822064   -1.50188146210961
H        -4.36643377969529   -2.45588366766599   -0.13710257041170
H        -3.43344314938837   -0.95139900713798   -0.21247356745567
H        -4.57323142611320   -0.31599868288173   -2.30567262819883
H        -5.49576968790057   -1.82420589585093   -2.28816297484115
H        -5.74981915332507   -0.61304404107835   -1.02225408160233

          :  Hamiltonian                  GFN2-xTB          :
         :: total energy            -130.479259832978 Eh    ::
         :: gradient norm              0.000361243084 Eh/a0 ::
         :: HOMO-LUMO gap              2.914007760920 eV    ::
         :: SCC energy              -132.611623828361 Eh    ::
         :: -> dispersion             -0.125015241190 Eh    ::
         :: repulsion energy           2.127489961140 Eh    ::

    * Orbital Energies and Occupations

         #    Occupation            Energy/Eh            Energy/eV
      -------------------------------------------------------------
         1        2.0000           -0.7752664             -21.0961
       ...           ...                  ...                  ...
       107        2.0000           -0.4155239             -11.3070
       108        2.0000           -0.4124978             -11.2246
       109        2.0000           -0.4103505             -11.1662
       110        2.0000           -0.4080151             -11.1027
       111        2.0000           -0.4055158             -11.0346
       112        2.0000           -0.4049111             -11.0182
       113        2.0000           -0.4035861             -10.9821
       114        2.0000           -0.4011077             -10.9147
       115        2.0000           -0.3977206             -10.8225
       116        2.0000           -0.3941654             -10.7258
       117        2.0000           -0.3913732             -10.6498
       118        2.0000           -0.3840005             -10.4492
       119        2.0000           -0.3789266             -10.3111 (HOMO)
       120                         -0.2718388              -7.3971 (LUMO)
       121                         -0.2656166              -7.2278
       122                         -0.2612618              -7.1093
       123                         -0.2395327              -6.5180
       124                         -0.2352407              -6.4012
       125                         -0.2327144              -6.3325
       126                         -0.2303242              -6.2674
       127                         -0.2296040              -6.2478
       128                         -0.2278203              -6.1993
       129                         -0.2159885              -5.8773
       130                         -0.2124425              -5.7809
       ...                                ...                  ...
       228                          0.6962100              18.9448
      -------------------------------------------------------------
                  HL-Gap            0.1070878 Eh            2.9140 eV

     #   Z          covCN         q      C6AA      Î±(0)
     1   6 C        2.919    -0.028    28.693     8.784
     2   6 C        2.918    -0.032    28.809     8.802
     3   6 C        2.987     0.014    27.697     8.633
     4   6 C        2.918    -0.034    28.846     8.807
     5   6 C        2.916    -0.030    28.746     8.792
     6   6 C        2.916    -0.030    28.750     8.793
     7   6 C        2.918    -0.035    28.869     8.811
     8   6 C        2.987     0.014    27.694     8.632
     9   6 C        2.923    -0.043    29.066     8.841
    10   6 C        2.970     0.005    27.912     8.666
    11   6 C        3.823     0.044    19.825     6.336
    12   6 C        3.829     0.040    19.879     6.344
    13   6 C        2.970    -0.004    28.114     8.697
    14   6 C        2.924    -0.035    28.884     8.813
    15   6 C        2.987     0.016    27.639     8.624
    16   6 C        2.918    -0.033    28.811     8.802
    17   6 C        2.916    -0.029    28.714     8.787
    18   6 C        2.916    -0.029    28.720     8.788
    19   6 C        2.918    -0.035    28.873     8.811
    20   6 C        2.987     0.013    27.723     8.637
    21   6 C        2.917    -0.036    28.884     8.813
    22   6 C        2.918    -0.039    28.960     8.825
    23   7 N        2.773    -0.115    23.513     7.202
    24   6 C        2.762     0.275    22.357     7.743
    25   6 C        2.982    -0.030    28.747     8.795
    26   6 C        2.972     0.016    27.661     8.627
    27   6 C        3.806    -0.054    21.546     6.608
    28   6 C        3.753    -0.098    22.432     6.754
    29   6 C        2.926    -0.031    28.771     8.796
    30   6 C        2.919    -0.024    28.601     8.770
    31   6 C        2.920    -0.030    28.759     8.794
    32   6 C        2.923    -0.028    28.706     8.786
    33   8 O        0.859    -0.424    22.159     6.311
    34   6 C        3.747     0.098    19.030     6.222
    35   6 C        2.687     0.353    21.000     7.499
    36   8 O        1.659    -0.354    19.980     6.034
    37   8 O        0.856    -0.392    21.518     6.219
    38   7 N        2.770    -0.119    23.586     7.213
    39   6 C        2.764     0.274    22.372     7.746
    40   6 C        2.982    -0.031    28.776     8.799
    41   6 C        2.922    -0.026    28.662     8.779
    42   6 C        2.920    -0.025    28.633     8.775
    43   6 C        2.919    -0.024    28.615     8.772
    44   6 C        2.925    -0.036    28.894     8.815
    45   6 C        2.972     0.014    27.687     8.631
    46   6 C        3.805    -0.054    21.546     6.608
    47   6 C        3.753    -0.101    22.487     6.762
    48   8 O        0.859    -0.423    22.147     6.310
    49   1 H        0.926     0.042     2.423     2.434
    50   1 H        0.926     0.038     2.472     2.459
    51   1 H        0.926     0.033     2.544     2.494
    52   1 H        0.926     0.031     2.575     2.509
    53   1 H        0.926     0.030     2.586     2.514
    54   1 H        0.926     0.031     2.578     2.511
    55   1 H        0.926     0.043     2.413     2.429
    56   1 H        0.924     0.065     2.136     2.286
    57   1 H        0.924     0.075     2.030     2.228
    58   1 H        0.926     0.053     2.282     2.362
    59   1 H        0.926     0.039     2.464     2.455
    60   1 H        0.926     0.033     2.538     2.491
    61   1 H        0.926     0.032     2.554     2.499
    62   1 H        0.926     0.033     2.551     2.498
    63   1 H        0.926     0.035     2.520     2.482
    64   1 H        0.926     0.027     2.624     2.533
    65   1 H        0.924     0.026     2.638     2.540
    66   1 H        0.924     0.039     2.468     2.457
    67   1 H        0.925     0.039     2.464     2.454
    68   1 H        0.925     0.035     2.510     2.477
    69   1 H        0.925     0.049     2.335     2.389
    70   1 H        0.926     0.040     2.444     2.445
    71   1 H        0.926     0.040     2.452     2.449
    72   1 H        0.926     0.036     2.498     2.472
    73   1 H        0.926     0.035     2.520     2.482
    74   1 H        0.922     0.052     2.296     2.370
    75   1 H        0.804     0.344     0.603     1.220
    76   1 H        0.926     0.029     2.598     2.520
    77   1 H        0.926     0.040     2.444     2.445
    78   1 H        0.926     0.039     2.464     2.455
    79   1 H        0.926     0.036     2.504     2.474
    80   1 H        0.924     0.030     2.580     2.512
    81   1 H        0.924     0.036     2.503     2.474
    82   1 H        0.925     0.060     2.195     2.317
    83   1 H        0.925     0.036     2.509     2.477
    84   1 H        0.925     0.035     2.513     2.479

Wiberg/Mayer (AO) data.
largest (>0.10) Wiberg bond orders for each atom

     #   Z sym  total        # sym  WBO       # sym  WBO       # sym  WBO
 ---------------------------------------------------------------------------
     1   6 C    3.990 --     2 C    1.559    10 C    1.299    49 H    0.967
     2   6 C    3.991 --     1 C    1.559     3 C    1.279    50 H    0.968
                             9 C    0.116
     3   6 C    3.990 --     4 C    1.280     2 C    1.279     8 C    1.250
     4   6 C    3.992 --     5 C    1.558     3 C    1.280    51 H    0.968
                             7 C    0.118
     5   6 C    3.990 --     4 C    1.558     6 C    1.319    52 H    0.971
     6   6 C    3.992 --     7 C    1.559     5 C    1.319    53 H    0.971
     7   6 C    3.991 --     6 C    1.559     8 C    1.278    54 H    0.968
                             4 C    0.118
     8   6 C    3.991 --     9 C    1.284     7 C    1.278     3 C    1.250
     9   6 C    3.990 --    10 C    1.524     8 C    1.284    55 H    0.962
                             2 C    0.116
    10   6 C    3.985 --     9 C    1.524     1 C    1.299    11 C    0.985
    11   6 C    3.959 --    10 C    0.985    12 C    0.971    56 H    0.953
                            38 N    0.946
    12   6 C    3.957 --    13 C    0.984    11 C    0.971    57 H    0.954
                            23 N    0.942
    13   6 C    3.984 --    14 C    1.525    22 C    1.295    12 C    0.984
    14   6 C    3.987 --    13 C    1.525    15 C    1.283    58 H    0.964
                            21 C    0.115
    15   6 C    3.990 --    14 C    1.283    16 C    1.278    20 C    1.251
    16   6 C    3.989 --    17 C    1.559    15 C    1.278    59 H    0.968
                            19 C    0.118
    17   6 C    3.992 --    16 C    1.559    18 C    1.320    60 H    0.971
    18   6 C    3.990 --    19 C    1.557    17 C    1.320    61 H    0.971
    19   6 C    3.992 --    18 C    1.557    20 C    1.281    62 H    0.968
                            16 C    0.118
    20   6 C    3.990 --    19 C    1.281    21 C    1.277    15 C    1.251
    21   6 C    3.992 --    22 C    1.561    20 C    1.277    63 H    0.968
                            14 C    0.115
    22   6 C    3.992 --    21 C    1.561    13 C    1.295    64 H    0.967
    23   7 N    3.459 --    24 C    1.204    34 C    0.989    12 C    0.942
                            33 O    0.188
    24   6 C    3.943 --    33 O    1.690    23 N    1.204    25 C    0.961
    25   6 C    3.987 --    32 C    1.406    26 C    1.372    24 C    0.961
                            30 C    0.107
    26   6 C    3.987 --    29 C    1.416    25 C    1.372    27 C    1.014
                            31 C    0.107
    27   6 C    3.997 --    26 C    1.014    28 C    0.999    66 H    0.976
                            65 H    0.965
    28   6 C    3.994 --    27 C    0.999    67 H    0.989    68 H    0.986
                            69 H    0.985
    29   6 C    3.991 --    30 C    1.443    26 C    1.416    70 H    0.967
                            32 C    0.108
    30   6 C    3.991 --    29 C    1.443    31 C    1.435    71 H    0.971
                            25 C    0.107
    31   6 C    3.991 --    32 C    1.442    30 C    1.435    72 H    0.970
                            26 C    0.107
    32   6 C    3.991 --    31 C    1.442    25 C    1.406    73 H    0.970
                            29 C    0.108
    33   8 O    2.016 --    24 C    1.690    23 N    0.188
    34   6 C    3.973 --    23 N    0.989    38 N    0.982    74 H    0.937
                            35 C    0.915
    35   6 C    3.923 --    37 O    1.772    36 O    1.154    34 C    0.915
    36   8 O    2.225 --    35 C    1.154    75 H    0.855    37 O    0.179
    37   8 O    2.057 --    35 C    1.772    36 O    0.179
    38   7 N    3.458 --    39 C    1.208    34 C    0.982    11 C    0.946
                            48 O    0.190
    39   6 C    3.944 --    48 O    1.689    38 N    1.208    40 C    0.959
    40   6 C    3.987 --    41 C    1.409    45 C    1.371    39 C    0.959
                            43 C    0.107
    41   6 C    3.991 --    42 C    1.443    40 C    1.409    76 H    0.970
                            44 C    0.109
    42   6 C    3.991 --    41 C    1.443    43 C    1.433    77 H    0.970
                            45 C    0.107
    43   6 C    3.991 --    44 C    1.446    42 C    1.433    78 H    0.971
                            40 C    0.107
    44   6 C    3.991 --    43 C    1.446    45 C    1.413    79 H    0.968
                            41 C    0.109
    45   6 C    3.987 --    44 C    1.413    40 C    1.371    46 C    1.014
                            42 C    0.107
    46   6 C    3.998 --    45 C    1.014    47 C    0.998    80 H    0.975
                            81 H    0.966
    47   6 C    3.993 --    46 C    0.998    83 H    0.989    84 H    0.986
                            82 H    0.982
    48   8 O    2.019 --    39 C    1.689    38 N    0.190
    49   1 H    0.998 --     1 C    0.967
    50   1 H    0.998 --     2 C    0.968
    51   1 H    0.998 --     4 C    0.968
    52   1 H    0.999 --     5 C    0.971
    53   1 H    0.999 --     6 C    0.971
    54   1 H    0.999 --     7 C    0.968
    55   1 H    0.998 --     9 C    0.962
    56   1 H    0.994 --    11 C    0.953
    57   1 H    0.993 --    12 C    0.954
    58   1 H    0.997 --    14 C    0.964
    59   1 H    0.998 --    16 C    0.968
    60   1 H    0.998 --    17 C    0.971
    61   1 H    0.999 --    18 C    0.971
    62   1 H    0.998 --    19 C    0.968
    63   1 H    0.998 --    21 C    0.968
    64   1 H    0.999 --    22 C    0.967
    65   1 H    0.999 --    27 C    0.965
    66   1 H    0.998 --    27 C    0.976
    67   1 H    0.998 --    28 C    0.989
    68   1 H    0.998 --    28 C    0.986
    69   1 H    0.998 --    28 C    0.985
    70   1 H    0.998 --    29 C    0.967
    71   1 H    0.998 --    30 C    0.971
    72   1 H    0.998 --    31 C    0.970
    73   1 H    0.998 --    32 C    0.970
    74   1 H    0.997 --    34 C    0.937
    75   1 H    0.882 --    36 O    0.855
    76   1 H    0.999 --    41 C    0.970
    77   1 H    0.997 --    42 C    0.970
    78   1 H    0.998 --    43 C    0.971
    79   1 H    0.998 --    44 C    0.968
    80   1 H    0.999 --    46 C    0.975
    81   1 H    0.998 --    46 C    0.966
    82   1 H    0.996 --    47 C    0.982
    83   1 H    0.999 --    47 C    0.989
    84   1 H    0.998 --    47 C    0.986
 ---------------------------------------------------------------------------

molecular dipole:
                 x           y           z       tot (Debye)
 q only:        0.144      -0.369       0.174
   full:        0.199      -0.757       0.117       2.013

           -------------------------------------------------
          | TOTAL ENERGY             -130.479259832978 Eh   |
          | GRADIENT NORM               0.000361243084 Eh/Î± |
          | HOMO-LUMO GAP               2.914007760920 eV   |
           -------------------------------------------------

 * finished run on 2022/03/16 at 22:35:45.561
