   * xtb version 6.3.3 (4ae9cef) compiled by 'conda@95abc7406d43' on 2020-10-14
          program call               : xtb acid_480.xyz --opt --chrg 0 --uhf 0 --gfn 2
          number of atoms            :                    68
          number of electrons        :                   222
          charge                     :                     0
          spin                       :                   0.0

   ID    Z sym.   atoms
    1    6 C      1-22, 24-29, 33, 34, 38-43
    2    7 N      23, 30, 37, 44
    3    8 O      31, 32, 35, 36, 45, 46
    4    1 H      47-68

          :  Hamiltonian                  GFN2-xTB          :
 * total energy  :  -124.3210880 Eh     change       -0.5741754E-08 Eh
 * total energy  :  -124.3363954 Eh     change       -0.1530743E-01 Eh
 * total energy  :  -124.3410337 Eh     change       -0.4638265E-02 Eh
 * total energy  :  -124.3426864 Eh     change       -0.1652709E-02 Eh
 * total energy  :  -124.3435929 Eh     change       -0.9065330E-03 Eh
 * total energy  :  -124.3441123 Eh     change       -0.5194020E-03 Eh
 * total energy  :  -124.3446548 Eh     change       -0.5424218E-03 Eh
 * total energy  :  -124.3452468 Eh     change       -0.5920836E-03 Eh
 * total energy  :  -124.3456633 Eh     change       -0.4164883E-03 Eh
 * total energy  :  -124.3459330 Eh     change       -0.2697143E-03 Eh
 * total energy  :  -124.3577282 Eh     change       -0.1184556E-04 Eh
 * total energy  :  -124.3577341 Eh     change       -0.5931712E-05 Eh
 * total energy  :  -124.3577403 Eh     change       -0.6163984E-05 Eh
 * total energy  :  -124.3577438 Eh     change       -0.3453221E-05 Eh
 * total energy  :  -124.3577473 Eh     change       -0.3569399E-05 Eh
 * total energy  :  -124.3577503 Eh     change       -0.2944630E-05 Eh
 * total energy  :  -124.3577413 Eh     change        0.8975144E-05 Eh
 * total energy  :  -124.3577520 Eh     change       -0.1073962E-04 Eh
 * total energy  :  -124.3577533 Eh     change       -0.1239248E-05 Eh
   *** GEOMETRY OPTIMIZATION CONVERGED AFTER 155 ITERATIONS ***

 final structure:
================
68
 xtb: 6.3.3 (4ae9cef)
C        -2.73481902463757   -1.06844618736214   -0.69922873208934
C        -3.74043209410565   -1.98633771379002   -0.78531669614970
C        -3.84058552852042   -3.03911855393323    0.14816393707006
C        -4.86412958266893   -4.00659993352310    0.08400464460283
C        -4.92823519400743   -5.01567331351182    1.00389791399490
C        -3.97207506704582   -5.10330826446474    2.02800872563203
C        -2.96775350875151   -4.18056301984199    2.11662296001144
C        -2.87504932580198   -3.12623423026042    1.18441663802327
C        -1.85448737119551   -2.15702607537923    1.25263869289925
C        -1.78322313798892   -1.14255837172752    0.33697401092532
C        -0.64504580328142   -0.16281774905908    0.37963384298685
C         0.36182710512070   -0.44289104363837   -0.75182890383339
C         1.43818432839932   -1.39484886006380   -0.30391346280665
C         2.46392816371131   -0.98299464353573    0.50552715311443
C         3.44376763128916   -1.89342884122360    0.94753403059169
C         4.51981275824376   -1.48759368790966    1.76475148294288
C         5.45821155547569   -2.39031732845345    2.17931414189941
C         5.36287383994939   -3.73860466141965    1.79845134875268
C         4.33044892683576   -4.16257825958326    1.00931906725150
C         3.34652797974765   -3.25606299075643    0.56318451344557
C         2.26797873250126   -3.65424144833372   -0.25350807930521
C         1.34037269311375   -2.74757145081385   -0.67903621179352
N         0.84072794988327    0.88740590382841   -1.10703542349462
C         1.92179053181691    1.03446604405897   -1.91649964543528
C         2.44485318835743    2.39931389711144   -2.11880598820646
C         3.62190454953354    2.74205153197820   -2.74314544353369
C         3.73370565558417    4.13913242073140   -2.65071241339588
C         2.61152613124504    4.56359426502502   -1.97566664711812
C         2.20361815191327    5.85354527324338   -1.60047194284994
N         1.86878227491216    6.90474609142355   -1.28835839807061
O         1.82674558988348    3.50629759973426   -1.65679244097387
O         2.46185643900783    0.08559796377249   -2.44899609165925
C         0.03513299990139    1.92737663549570   -0.52117117969327
C         0.85364137097802    2.69620297910283    0.56682206767658
O         0.43491657320307    3.92217809580430    0.85136216349009
O         1.76957165893715    2.18362627937548    1.13643533450381
N        -1.05025100749540    1.21652551320768    0.11864535516144
C        -2.16681721003102    1.71805410250950    0.71221175892909
C        -2.66192327591993    3.05105439967813    0.30524256147638
C        -3.86597454722575    3.59696472126292    0.68148523446040
C        -3.97874152842894    4.83099789594884    0.01752881396910
C        -2.83144700457508    4.96760405058386   -0.72709888919085
C        -2.43246156951800    5.99114413203333   -1.60233420317890
N        -2.12844743581749    6.82347067732815   -2.32885030187101
O        -2.02411471077553    3.88708744561402   -0.55063159551482
O        -2.82075954322152    1.06931502601045    1.50517493923545
H        -2.66788628087723   -0.26716373807435   -1.42243445827391
H        -4.47479997710848   -1.92053242612698   -1.57546304927965
H        -5.59780325048023   -3.93527681175552   -0.70643688191446
H        -5.71528776287971   -5.75349303483161    0.94998333428741
H        -4.03860462897633   -5.90752433349496    2.74599643051183
H        -2.22959543044729   -4.24273320607295    2.90307535157167
H        -1.12343354105988   -2.22592352499643    2.04532152462336
H        -0.13813763794217   -0.21814042645456    1.35223443905743
H        -0.15729126621740   -0.87169690778659   -1.62056644724663
H         2.54513053838067    0.05002887072793    0.81024547502646
H         4.58580277909847   -0.44838407352321    2.05300263392168
H         6.28170433130658   -2.07421406264704    2.80310096753219
H         6.11451843996102   -4.43771373814598    2.13524790245561
H         4.25335418437193   -5.19926238900797    0.71323723783486
H         2.19019092660819   -4.69220720607959   -0.54377133521756
H         0.51965681611174   -3.06053479020390   -1.30836907456185
H         4.30561150241453    2.05594127423038   -3.19806682708935
H         4.52330469989615    4.75998271630474   -3.02198845338206
H        -0.34008574168747    2.61868617096780   -1.28999584647418
H        -0.27538617984853    4.23919542069022    0.27064415836089
H        -4.56914186906388    3.14256347642918    1.34848293389609
H        -4.78775296005563    5.53046642361575    0.06857134141836

          :  Hamiltonian                  GFN2-xTB          :
         :: total energy            -124.357753275343 Eh    ::
         :: gradient norm              0.000825993441 Eh/a0 ::
         :: HOMO-LUMO gap              1.545595721470 eV    ::
         :: SCC energy              -126.302670620453 Eh    ::
         :: -> dispersion             -0.097994681748 Eh    ::
         :: repulsion energy           1.943461988195 Eh    ::

    * Orbital Energies and Occupations

         #    Occupation            Energy/Eh            Energy/eV
      -------------------------------------------------------------
         1        2.0000           -0.8049754             -21.9045
       ...           ...                  ...                  ...
        99        2.0000           -0.4326616             -11.7733
       100        2.0000           -0.4299761             -11.7002
       101        2.0000           -0.4283600             -11.6563
       102        2.0000           -0.4267327             -11.6120
       103        2.0000           -0.4231581             -11.5147
       104        2.0000           -0.4224213             -11.4947
       105        2.0000           -0.4195861             -11.4175
       106        2.0000           -0.4147682             -11.2864
       107        2.0000           -0.4120847             -11.2134
       108        2.0000           -0.4061700             -11.0524
       109        2.0000           -0.3987309             -10.8500
       110        2.0000           -0.3870158             -10.5312
       111        2.0000           -0.3784854             -10.2991 (HOMO)
       112                         -0.3216858              -8.7535 (LUMO)
       113                         -0.3068755              -8.3505
       114                         -0.2738289              -7.4513
       115                         -0.2683692              -7.3027
       116                         -0.2625069              -7.1432
       117                         -0.2603718              -7.0851
       118                         -0.2548713              -6.9354
       119                         -0.2515121              -6.8440
       120                         -0.2431465              -6.6164
       121                         -0.2390554              -6.5050
       122                         -0.2297321              -6.2513
       ...                                ...                  ...
       206                          1.1560845              31.4587
      -------------------------------------------------------------
                  HL-Gap            0.0567996 Eh            1.5456 eV

     #   Z          covCN         q      C6AA      Î±(0)
     1   6 C        2.919    -0.031    28.778     8.797
     2   6 C        2.917    -0.033    28.810     8.802
     3   6 C        2.988     0.015    27.665     8.628
     4   6 C        2.918    -0.033    28.832     8.805
     5   6 C        2.916    -0.028    28.706     8.786
     6   6 C        2.916    -0.028    28.693     8.784
     7   6 C        2.918    -0.032    28.808     8.802
     8   6 C        2.987     0.019    27.587     8.616
     9   6 C        2.923    -0.034    28.857     8.809
    10   6 C        2.970     0.013    27.729     8.637
    11   6 C        3.836     0.048    19.753     6.323
    12   6 C        3.830     0.046    19.775     6.327
    13   6 C        2.970     0.009    27.810     8.650
    14   6 C        2.922    -0.040    29.000     8.831
    15   6 C        2.988     0.017    27.613     8.620
    16   6 C        2.919    -0.033    28.824     8.804
    17   6 C        2.916    -0.029    28.724     8.789
    18   6 C        2.916    -0.029    28.726     8.789
    19   6 C        2.918    -0.034    28.849     8.808
    20   6 C        2.987     0.015    27.681     8.630
    21   6 C        2.918    -0.032    28.809     8.802
    22   6 C        2.919    -0.032    28.806     8.801
    23   7 N        2.763    -0.102    23.244     7.160
    24   6 C        2.758     0.264    22.545     7.775
    25   6 C        3.100     0.096    25.758     8.317
    26   6 C        3.018    -0.039    28.934     8.823
    27   6 C        3.008    -0.041    29.005     8.834
    28   6 C        3.107     0.130    25.025     8.196
    29   6 C        1.894     0.109    28.420     8.610
    30   7 N        0.911    -0.189    25.106     7.247
    31   8 O        1.727    -0.201    17.345     5.623
    32   8 O        0.860    -0.410    21.885     6.272
    33   6 C        3.754     0.079    19.321     6.268
    34   6 C        2.686     0.355    20.976     7.495
    35   8 O        1.659    -0.354    19.977     6.034
    36   8 O        0.856    -0.349    20.681     6.097
    37   7 N        2.763    -0.111    23.431     7.189
    38   6 C        2.757     0.261    22.596     7.784
    39   6 C        3.086     0.092    25.857     8.336
    40   6 C        3.017    -0.036    28.884     8.816
    41   6 C        3.005    -0.039    28.961     8.828
    42   6 C        3.094     0.127    25.108     8.212
    43   6 C        1.894     0.106    28.497     8.622
    44   7 N        0.911    -0.178    24.853     7.210
    45   8 O        1.726    -0.212    17.521     5.652
    46   8 O        0.860    -0.407    21.816     6.262
    47   1 H        0.925     0.023     2.693     2.566
    48   1 H        0.926     0.038     2.480     2.463
    49   1 H        0.926     0.034     2.524     2.484
    50   1 H        0.926     0.034     2.526     2.485
    51   1 H        0.926     0.035     2.517     2.481
    52   1 H        0.926     0.037     2.493     2.469
    53   1 H        0.926     0.039     2.467     2.456
    54   1 H        0.923     0.060     2.201     2.320
    55   1 H        0.923     0.058     2.226     2.333
    56   1 H        0.926     0.055     2.254     2.348
    57   1 H        0.926     0.039     2.459     2.452
    58   1 H        0.926     0.033     2.550     2.497
    59   1 H        0.926     0.032     2.561     2.502
    60   1 H        0.926     0.033     2.547     2.496
    61   1 H        0.926     0.038     2.477     2.461
    62   1 H        0.926     0.030     2.584     2.514
    63   1 H        0.927     0.079     1.985     2.203
    64   1 H        0.926     0.066     2.125     2.280
    65   1 H        0.923     0.064     2.154     2.295
    66   1 H        0.804     0.338     0.617     1.234
    67   1 H        0.926     0.084     1.938     2.177
    68   1 H        0.926     0.070     2.084     2.257

Wiberg/Mayer (AO) data.
largest (>0.10) Wiberg bond orders for each atom

     #   Z sym  total        # sym  WBO       # sym  WBO       # sym  WBO
 ---------------------------------------------------------------------------
     1   6 C    3.992 --     2 C    1.566    10 C    1.291    47 H    0.969
     2   6 C    3.992 --     1 C    1.566     3 C    1.275    48 H    0.968
                             9 C    0.113
     3   6 C    3.990 --     4 C    1.283     2 C    1.275     8 C    1.251
     4   6 C    3.992 --     5 C    1.555     3 C    1.283    49 H    0.968
                             7 C    0.118
     5   6 C    3.990 --     4 C    1.555     6 C    1.322    50 H    0.971
     6   6 C    3.992 --     7 C    1.557     5 C    1.322    51 H    0.971
     7   6 C    3.989 --     6 C    1.557     8 C    1.279    52 H    0.968
                             4 C    0.118
     8   6 C    3.990 --     9 C    1.281     7 C    1.279     3 C    1.251
     9   6 C    3.989 --    10 C    1.526     8 C    1.281    53 H    0.965
                             2 C    0.113
    10   6 C    3.983 --     9 C    1.526     1 C    1.291    11 C    0.992
    11   6 C    3.953 --    10 C    0.992    12 C    0.952    54 H    0.951
                            37 N    0.949
    12   6 C    3.954 --    13 C    0.988    11 C    0.952    23 N    0.952
                            55 H    0.951
    13   6 C    3.982 --    14 C    1.524    22 C    1.296    12 C    0.988
    14   6 C    3.988 --    13 C    1.524    15 C    1.283    56 H    0.959
                            21 C    0.116
    15   6 C    3.990 --    14 C    1.283    16 C    1.278    20 C    1.251
    16   6 C    3.990 --    17 C    1.559    15 C    1.278    57 H    0.968
                            19 C    0.118
    17   6 C    3.992 --    16 C    1.559    18 C    1.320    58 H    0.971
    18   6 C    3.990 --    19 C    1.557    17 C    1.320    59 H    0.971
    19   6 C    3.992 --    18 C    1.557    20 C    1.281    60 H    0.968
                            16 C    0.118
    20   6 C    3.990 --    19 C    1.281    21 C    1.278    15 C    1.251
    21   6 C    3.991 --    22 C    1.561    20 C    1.278    61 H    0.968
                            14 C    0.116
    22   6 C    3.990 --    21 C    1.561    13 C    1.296    62 H    0.968
    23   7 N    3.474 --    24 C    1.204    33 C    0.996    12 C    0.952
                            32 O    0.196
    24   6 C    3.960 --    32 O    1.659    23 N    1.204    25 C    1.011
    25   6 C    3.908 --    26 C    1.507    31 O    1.112    24 C    1.011
                            28 C    0.125
    26   6 C    3.983 --    25 C    1.507    27 C    1.348    63 H    0.969
    27   6 C    3.985 --    28 C    1.476    26 C    1.348    64 H    0.972
    28   6 C    3.906 --    27 C    1.476    29 C    1.109    31 O    1.084
                            25 C    0.125
    29   6 C    3.956 --    30 N    2.799    28 C    1.109
    30   7 N    3.003 --    29 C    2.799
    31   8 O    2.431 --    25 C    1.112    28 C    1.084
    32   8 O    2.012 --    24 C    1.659    23 N    0.196
    33   6 C    3.966 --    23 N    0.996    37 N    0.979    65 H    0.940
                            34 C    0.885
    34   6 C    3.923 --    36 O    1.798    35 O    1.162    33 C    0.885
    35   8 O    2.235 --    34 C    1.162    66 H    0.839    36 O    0.171
    36   8 O    2.097 --    34 C    1.798    35 O    0.171
    37   7 N    3.467 --    38 C    1.203    33 C    0.979    11 C    0.949
                            46 O    0.193
    38   6 C    3.960 --    46 O    1.658    37 N    1.203    39 C    1.009
    39   6 C    3.906 --    40 C    1.520    45 O    1.096    38 C    1.009
                            42 C    0.127
    40   6 C    3.982 --    39 C    1.520    41 C    1.338    67 H    0.968
    41   6 C    3.985 --    42 C    1.489    40 C    1.338    68 H    0.971
    42   6 C    3.906 --    41 C    1.489    43 C    1.108    45 O    1.071
                            39 C    0.127
    43   6 C    3.957 --    44 N    2.803    42 C    1.108
    44   7 N    3.007 --    43 C    2.803
    45   8 O    2.420 --    39 C    1.096    42 C    1.071
    46   8 O    2.020 --    38 C    1.658    37 N    0.193
    47   1 H    0.999 --     1 C    0.969
    48   1 H    0.998 --     2 C    0.968
    49   1 H    0.998 --     4 C    0.968
    50   1 H    0.998 --     5 C    0.971
    51   1 H    0.998 --     6 C    0.971
    52   1 H    0.998 --     7 C    0.968
    53   1 H    0.998 --     9 C    0.965
    54   1 H    0.994 --    11 C    0.951
    55   1 H    0.994 --    12 C    0.951
    56   1 H    0.996 --    14 C    0.959
    57   1 H    0.998 --    16 C    0.968
    58   1 H    0.998 --    17 C    0.971
    59   1 H    0.999 --    18 C    0.971
    60   1 H    0.998 --    19 C    0.968
    61   1 H    0.998 --    21 C    0.968
    62   1 H    0.999 --    22 C    0.968
    63   1 H    0.993 --    26 C    0.969
    64   1 H    0.995 --    27 C    0.972
    65   1 H    0.995 --    33 C    0.940
    66   1 H    0.886 --    35 O    0.839
    67   1 H    0.992 --    40 C    0.968
    68   1 H    0.995 --    41 C    0.971
 ---------------------------------------------------------------------------

molecular dipole:
                 x           y           z       tot (Debye)
 q only:       -0.990      -0.773      -0.276
   full:       -1.251      -0.924      -0.411       4.089

           -------------------------------------------------
          | TOTAL ENERGY             -124.357753275343 Eh   |
          | GRADIENT NORM               0.000825993441 Eh/Î± |
          | HOMO-LUMO GAP               1.545595721470 eV   |
           -------------------------------------------------

 * finished run on 2022/03/17 at 01:42:46.240
