   * xtb version 6.3.3 (4ae9cef) compiled by 'conda@95abc7406d43' on 2020-10-14
          program call               : xtb acid_79.xyz --opt --chrg 0 --uhf 0 --gfn 2
          number of atoms            :                    72
          number of electrons        :                   226
          charge                     :                     0
          spin                       :                   0.0

   ID    Z sym.   atoms
    1    6 C      1-22, 24-26, 28-31, 33, 34, 38-44
    2    7 N      23, 37
    3   35 Br     27, 45
    4    8 O      32, 35, 36, 46
    5    1 H      47-72

          :  Hamiltonian                  GFN2-xTB          :
 * total energy  :  -124.9355220 Eh     change       -0.1589058E-08 Eh
 * total energy  :  -124.9526419 Eh     change       -0.1711993E-01 Eh
 * total energy  :  -124.9577077 Eh     change       -0.5065744E-02 Eh
 * total energy  :  -124.9589715 Eh     change       -0.1263819E-02 Eh
 * total energy  :  -124.9597251 Eh     change       -0.7535817E-03 Eh
 * total energy  :  -124.9600624 Eh     change       -0.3373514E-03 Eh
 * total energy  :  -124.9603705 Eh     change       -0.3080858E-03 Eh
 * total energy  :  -124.9607158 Eh     change       -0.3452864E-03 Eh
 * total energy  :  -124.9611688 Eh     change       -0.4530022E-03 Eh
 * total energy  :  -124.9616708 Eh     change       -0.5019971E-03 Eh
 * total energy  :  -124.9690025 Eh     change       -0.8997429E-05 Eh
 * total energy  :  -124.9690090 Eh     change       -0.6492955E-05 Eh
 * total energy  :  -124.9690093 Eh     change       -0.2835637E-06 Eh
 * total energy  :  -124.9690144 Eh     change       -0.5076718E-05 Eh
 * total energy  :  -124.9690129 Eh     change        0.1470555E-05 Eh
 * total energy  :  -124.9690193 Eh     change       -0.6402955E-05 Eh
 * total energy  :  -124.9690119 Eh     change        0.7429388E-05 Eh
 * total energy  :  -124.9690205 Eh     change       -0.8640089E-05 Eh
 * total energy  :  -124.9690239 Eh     change       -0.3373280E-05 Eh
   *** GEOMETRY OPTIMIZATION CONVERGED AFTER 97 ITERATIONS ***

 final structure:
================
72
 xtb: 6.3.3 (4ae9cef)
C        -2.44984960700604    2.78930000773813    0.65901598888868
C        -3.24889501485950    3.25706376918752    1.66251054487841
C        -3.08626626629995    2.80623747923463    2.98883795421548
C        -3.89373597668059    3.26564687144430    4.04954509641286
C        -3.70866401481781    2.79530478582354    5.31923142165371
C        -2.71280441489647    1.84225380218660    5.58688910544924
C        -1.91164147804094    1.37860246943853    4.58192687262848
C        -2.07449978380206    1.85098096073321    3.26316952634087
C        -1.26158858164153    1.39216631138168    2.20887913664391
C        -1.43675233194216    1.84908748537305    0.92827835791858
C        -0.62751324814727    1.30146841554821   -0.22392058314715
C         0.85144860828103    1.04513819598893    0.09321884154087
C         1.76914290780831    1.48270522845866   -1.01969683986922
C         2.70891479576079    2.45391830301912   -0.80157806504444
C         3.55775607720321    2.89145059397942   -1.83747000335873
C         4.53084817816816    3.89205483573738   -1.63437836304988
C         5.33802306368325    4.29826358370967   -2.65946153873773
C         5.21008359764242    3.72361593874706   -3.93380705859410
C         4.27857922226448    2.74991364153565   -4.16159940592252
C         3.43073047251253    2.30866435250604   -3.12498754635732
C         2.45787406282931    1.30657556429373   -3.32115361939553
C         1.64712655011993    0.90556098208553   -2.29874134235938
N         0.90698711465471   -0.40055179035756    0.31154271452138
C         2.06371752852717   -0.97923804996990    0.71235227775690
C         2.00030279154853   -2.46752201527535    0.89725478325557
C         1.42316131187744   -3.04618560776654    2.01937973579420
Br        0.66280151443366   -1.93781775702741    3.36139902178904
C         1.39728801664568   -4.41821986208696    2.19040484434174
C         1.97060577791985   -5.22886280343145    1.22728289403967
C         2.58136837630040   -4.66905904068593    0.11729390105487
C         2.60389885397649   -3.29511148555484   -0.04222131391628
O         3.08007403751852   -0.34596768508981    0.89206914169293
C        -0.36884125145683   -1.04906159804918    0.08859954633112
C        -0.23221445613230   -2.32988960084834   -0.75203914197347
O         0.34944886911700   -2.10179021514430   -1.92436725246195
O        -0.59386338544015   -3.41513790422721   -0.38773667183546
N        -1.13337592478100   -0.02513163989461   -0.57599279559007
C        -2.21170009884061   -0.16575427607697   -1.38281173362103
C        -2.73884837412924   -1.56339599839749   -1.50924780039990
C        -2.63640933747281   -2.23261759178671   -2.72353880513536
C        -3.14812848186874   -3.50953165971558   -2.86668363814445
C        -3.78860720250409   -4.12155580508732   -1.80177532533988
C        -3.93576526315556   -3.45348024082496   -0.59952472207076
C        -3.41625836660111   -2.17820947527323   -0.46248662274187
Br       -3.66116304572358   -1.25500808653805    1.18953740417755
O        -2.71425135292437    0.76980243304591   -1.96599434176136
H        -2.59358486658145    3.12371642217744   -0.35729015533469
H        -4.02438935742020    3.97865391946337    1.45006801803913
H        -4.66247849084647    3.99544739918157    3.83882425147086
H        -4.33026801711646    3.15171795267233    6.12779386003716
H        -2.58693221850564    1.47829648303363    6.59580081361262
H        -1.14674496845675    0.64041424213006    4.77616951630095
H        -0.49752172239561    0.66857893162816    2.44944372318644
H        -0.74626533727421    1.94763821376100   -1.09928949583088
H         1.15296463672527    1.55059864938750    1.01728359502228
H         2.81634829805544    2.89512255301211    0.17851242729113
H         4.62596627958526    4.32963894426616   -0.65122866837162
H         6.08154248847295    5.06495345565684   -2.49768612776922
H         5.85572879552870    4.05842590685339   -4.73258092236327
H         4.17689820643676    2.30445901341177   -5.14118966992680
H         2.36225771547483    0.86092142518157   -4.30129521074305
H         0.90710412591329    0.13750672939248   -2.46353984085085
H         0.93352512195292   -4.84387403680331    3.06679592903757
H         1.94579732872238   -6.30040836538869    1.35153146481713
H         3.04250393403121   -5.30365821613582   -0.62411319958939
H         3.08427346759255   -2.84305189855075   -0.89792388171294
H        -0.83803574781246   -1.34193505304315    1.04724888363656
H         0.44158736067833   -2.92260543923183   -2.43525701934235
H        -2.14316003785165   -1.73808088796283   -3.54767621721798
H        -3.05070355673800   -4.02541299296371   -3.80980826573547
H        -4.18547877495573   -5.11938644030216   -1.90746239988539
H        -4.44947913283534   -3.91435173290227    0.22946301176169

          :  Hamiltonian                  GFN2-xTB          :
         :: total energy            -124.969023901964 Eh    ::
         :: gradient norm              0.000497222270 Eh/a0 ::
         :: HOMO-LUMO gap              2.305112932001 eV    ::
         :: SCC energy              -126.891291602530 Eh    ::
         :: -> dispersion             -0.116835034388 Eh    ::
         :: repulsion energy           1.918796044471 Eh    ::

    * Orbital Energies and Occupations

         #    Occupation            Energy/Eh            Energy/eV
      -------------------------------------------------------------
         1        2.0000           -0.8464171             -23.0322
       ...           ...                  ...                  ...
       101        2.0000           -0.4193217             -11.4103
       102        2.0000           -0.4167823             -11.3412
       103        2.0000           -0.4142031             -11.2710
       104        2.0000           -0.4125177             -11.2252
       105        2.0000           -0.4114801             -11.1969
       106        2.0000           -0.4104748             -11.1696
       107        2.0000           -0.4083582             -11.1120
       108        2.0000           -0.4063808             -11.0582
       109        2.0000           -0.4047967             -11.0151
       110        2.0000           -0.3986141             -10.8468
       111        2.0000           -0.3952304             -10.7548
       112        2.0000           -0.3804019             -10.3513
       113        2.0000           -0.3752252             -10.2104 (HOMO)
       114                         -0.2905139              -7.9053 (LUMO)
       115                         -0.2650627              -7.2127
       116                         -0.2620705              -7.1313
       117                         -0.2591558              -7.0520
       118                         -0.2590235              -7.0484
       119                         -0.2575472              -7.0082
       120                         -0.2568390              -6.9889
       121                         -0.2345719              -6.3830
       122                         -0.2309530              -6.2846
       123                         -0.2277815              -6.1983
       124                         -0.2254360              -6.1344
       ...                                ...                  ...
       220                          0.7020632              19.1041
      -------------------------------------------------------------
                  HL-Gap            0.0847113 Eh            2.3051 eV

     #   Z          covCN         q      C6AA      Î±(0)
     1   6 C        2.919    -0.033    28.829     8.805
     2   6 C        2.917    -0.032    28.805     8.801
     3   6 C        2.987     0.015    27.667     8.628
     4   6 C        2.918    -0.034    28.850     8.808
     5   6 C        2.916    -0.028    28.707     8.786
     6   6 C        2.916    -0.028    28.702     8.785
     7   6 C        2.919    -0.034    28.840     8.806
     8   6 C        2.988     0.017    27.634     8.623
     9   6 C        2.923    -0.043    29.059     8.840
    10   6 C        2.970    -0.003    28.090     8.694
    11   6 C        3.830     0.039    19.898     6.347
    12   6 C        3.823     0.041    19.862     6.342
    13   6 C        2.969     0.006    27.895     8.663
    14   6 C        2.923    -0.034    28.837     8.806
    15   6 C        2.987     0.017    27.619     8.621
    16   6 C        2.919    -0.032    28.809     8.802
    17   6 C        2.916    -0.029    28.717     8.788
    18   6 C        2.916    -0.029    28.725     8.789
    19   6 C        2.918    -0.034    28.857     8.809
    20   6 C        2.987     0.014    27.704     8.634
    21   6 C        2.917    -0.035    28.872     8.811
    22   6 C        2.919    -0.037    28.920     8.819
    23   7 N        2.769    -0.108    23.361     7.179
    24   6 C        2.766     0.277    22.319     7.737
    25   6 C        3.046    -0.026    28.614     8.773
    26   6 C        2.920     0.079    26.235     8.399
    27  35 Br       1.078    -0.150   189.199    22.178
    28   6 C        2.999    -0.027    28.653     8.781
    29   6 C        2.923    -0.021    28.536     8.760
    30   6 C        2.918    -0.027    28.672     8.781
    31   6 C        2.927    -0.026    28.640     8.776
    32   8 O        0.859    -0.411    21.899     6.274
    33   6 C        3.751     0.094    19.080     6.229
    34   6 C        2.687     0.353    21.003     7.500
    35   8 O        1.659    -0.355    19.997     6.037
    36   8 O        0.856    -0.401    21.699     6.245
    37   7 N        2.771    -0.104    23.272     7.165
    38   6 C        2.764     0.277    22.316     7.736
    39   6 C        3.038    -0.027    28.634     8.777
    40   6 C        2.926    -0.025    28.631     8.775
    41   6 C        2.918    -0.029    28.716     8.787
    42   6 C        2.923    -0.021    28.530     8.759
    43   6 C        2.994    -0.026    28.646     8.780
    44   6 C        2.918     0.081    26.188     8.392
    45  35 Br       1.064    -0.155   189.334    22.186
    46   8 O        0.859    -0.413    21.932     6.279
    47   1 H        0.926     0.046     2.370     2.407
    48   1 H        0.926     0.039     2.467     2.456
    49   1 H        0.926     0.033     2.540     2.492
    50   1 H        0.926     0.032     2.557     2.500
    51   1 H        0.926     0.034     2.527     2.486
    52   1 H        0.926     0.043     2.413     2.429
    53   1 H        0.926     0.041     2.432     2.439
    54   1 H        0.924     0.077     2.007     2.216
    55   1 H        0.924     0.070     2.088     2.259
    56   1 H        0.926     0.042     2.422     2.434
    57   1 H        0.926     0.036     2.497     2.471
    58   1 H        0.926     0.033     2.549     2.497
    59   1 H        0.926     0.032     2.565     2.504
    60   1 H        0.926     0.031     2.566     2.505
    61   1 H        0.926     0.033     2.548     2.496
    62   1 H        0.926     0.038     2.482     2.464
    63   1 H        0.926     0.063     2.169     2.303
    64   1 H        0.926     0.052     2.292     2.368
    65   1 H        0.926     0.047     2.352     2.399
    66   1 H        0.926     0.047     2.353     2.399
    67   1 H        0.922     0.076     2.023     2.224
    68   1 H        0.804     0.342     0.607     1.223
    69   1 H        0.926     0.051     2.307     2.375
    70   1 H        0.926     0.049     2.338     2.391
    71   1 H        0.926     0.054     2.274     2.358
    72   1 H        0.926     0.066     2.132     2.283

Wiberg/Mayer (AO) data.
largest (>0.10) Wiberg bond orders for each atom

     #   Z sym  total        # sym  WBO       # sym  WBO       # sym  WBO
 ---------------------------------------------------------------------------
     1   6 C    3.989 --     2 C    1.561    10 C    1.296    47 H    0.967
     2   6 C    3.991 --     1 C    1.561     3 C    1.278    48 H    0.968
                             9 C    0.115
     3   6 C    3.989 --     4 C    1.280     2 C    1.278     8 C    1.251
     4   6 C    3.992 --     5 C    1.558     3 C    1.280    49 H    0.968
                             7 C    0.119
     5   6 C    3.990 --     4 C    1.558     6 C    1.320    50 H    0.971
     6   6 C    3.992 --     7 C    1.559     5 C    1.320    51 H    0.971
     7   6 C    3.989 --     6 C    1.559     8 C    1.277    52 H    0.967
                             4 C    0.119
     8   6 C    3.990 --     9 C    1.282     7 C    1.277     3 C    1.251
     9   6 C    3.990 --    10 C    1.526     8 C    1.282    53 H    0.960
                             2 C    0.115
    10   6 C    3.983 --     9 C    1.526     1 C    1.296    11 C    0.982
    11   6 C    3.952 --    10 C    0.982    12 C    0.966    54 H    0.954
                            37 N    0.941
    12   6 C    3.957 --    13 C    0.987    11 C    0.966    55 H    0.952
                            23 N    0.946
    13   6 C    3.985 --    14 C    1.527    22 C    1.295    12 C    0.987
    14   6 C    3.989 --    13 C    1.527    15 C    1.282    56 H    0.965
                            21 C    0.114
    15   6 C    3.990 --    14 C    1.282    16 C    1.278    20 C    1.251
    16   6 C    3.989 --    17 C    1.558    15 C    1.278    57 H    0.968
                            19 C    0.118
    17   6 C    3.992 --    16 C    1.558    18 C    1.321    58 H    0.971
    18   6 C    3.990 --    19 C    1.556    17 C    1.321    59 H    0.971
    19   6 C    3.992 --    18 C    1.556    20 C    1.282    60 H    0.968
                            16 C    0.118
    20   6 C    3.990 --    19 C    1.282    21 C    1.276    15 C    1.251
    21   6 C    3.992 --    22 C    1.564    20 C    1.276    61 H    0.968
                            14 C    0.114
    22   6 C    3.991 --    21 C    1.564    13 C    1.295    62 H    0.965
    23   7 N    3.474 --    24 C    1.222    33 C    0.979    12 C    0.946
                            32 O    0.199
    24   6 C    3.952 --    32 O    1.696    23 N    1.222    25 C    0.950
    25   6 C    3.987 --    31 C    1.399    26 C    1.383    24 C    0.950
                            29 C    0.107
    26   6 C    3.943 --    28 C    1.415    25 C    1.383    27 Br   0.981
                            30 C    0.100
    27  35 Br   1.136 --    26 C    0.981
    28   6 C    3.989 --    29 C    1.438    26 C    1.415    63 H    0.967
                            31 C    0.109
    29   6 C    3.990 --    28 C    1.438    30 C    1.433    64 H    0.968
                            25 C    0.107
    30   6 C    3.991 --    31 C    1.443    29 C    1.433    65 H    0.969
                            26 C    0.100
    31   6 C    3.990 --    30 C    1.443    25 C    1.399    66 H    0.968
                            28 C    0.109
    32   8 O    2.034 --    24 C    1.696    23 N    0.199
    33   6 C    3.969 --    37 N    0.988    23 N    0.979    67 H    0.931
                            34 C    0.919
    34   6 C    3.919 --    36 O    1.765    35 O    1.156    33 C    0.919
    35   8 O    2.226 --    34 C    1.156    68 H    0.856    36 O    0.179
    36   8 O    2.048 --    34 C    1.765    35 O    0.179
    37   7 N    3.477 --    38 C    1.220    33 C    0.988    11 C    0.941
                            46 O    0.197
    38   6 C    3.951 --    46 O    1.692    37 N    1.220    39 C    0.954
    39   6 C    3.987 --    40 C    1.398    44 C    1.376    38 C    0.954
                            42 C    0.106
    40   6 C    3.989 --    41 C    1.444    39 C    1.398    69 H    0.967
                            43 C    0.108
    41   6 C    3.991 --    40 C    1.444    42 C    1.432    70 H    0.969
    42   6 C    3.990 --    43 C    1.438    41 C    1.432    71 H    0.968
                            39 C    0.106
    43   6 C    3.988 --    42 C    1.438    44 C    1.413    72 H    0.966
                            40 C    0.108
    44   6 C    3.942 --    43 C    1.413    39 C    1.376    45 Br   0.987
    45  35 Br   1.142 --    44 C    0.987
    46   8 O    2.030 --    38 C    1.692    37 N    0.197
    47   1 H    0.997 --     1 C    0.967
    48   1 H    0.997 --     2 C    0.968
    49   1 H    0.998 --     4 C    0.968
    50   1 H    0.999 --     5 C    0.971
    51   1 H    0.998 --     6 C    0.971
    52   1 H    0.998 --     7 C    0.967
    53   1 H    0.998 --     9 C    0.960
    54   1 H    0.993 --    11 C    0.954
    55   1 H    0.994 --    12 C    0.952
    56   1 H    0.998 --    14 C    0.965
    57   1 H    0.998 --    16 C    0.968
    58   1 H    0.998 --    17 C    0.971
    59   1 H    0.999 --    18 C    0.971
    60   1 H    0.999 --    19 C    0.968
    61   1 H    0.998 --    21 C    0.968
    62   1 H    0.998 --    22 C    0.965
    63   1 H    0.995 --    28 C    0.967
    64   1 H    0.997 --    29 C    0.968
    65   1 H    0.996 --    30 C    0.969
    66   1 H    0.998 --    31 C    0.968
    67   1 H    0.994 --    33 C    0.931
    68   1 H    0.883 --    35 O    0.856
    69   1 H    0.997 --    40 C    0.967
    70   1 H    0.996 --    41 C    0.969
    71   1 H    0.997 --    42 C    0.968
    72   1 H    0.995 --    43 C    0.966
 ---------------------------------------------------------------------------

molecular dipole:
                 x           y           z       tot (Debye)
 q only:        0.155      -1.094      -0.921
   full:        0.425      -2.059      -1.756       6.963

           -------------------------------------------------
          | TOTAL ENERGY             -124.969023901964 Eh   |
          | GRADIENT NORM               0.000497222270 Eh/Î± |
          | HOMO-LUMO GAP               2.305112932001 eV   |
           -------------------------------------------------

 * finished run on 2022/03/17 at 02:05:44.785
