   * xtb version 6.3.3 (4ae9cef) compiled by 'conda@95abc7406d43' on 2020-10-14
          program call               : xtb acid_41.xyz --opt --chrg 0 --uhf 0 --gfn 2
          number of atoms            :                    68
          number of electrons        :                   202
          charge                     :                     0
          spin                       :                   0.0

   ID    Z sym.   atoms
    1    6 C      1, 3-16, 18, 20-26, 28, 29, 33-39
    2    8 O      2, 17, 27, 30, 31, 40
    3    7 N      19, 32
    4    1 H      41-68

          :  Hamiltonian                  GFN2-xTB          :
 * total energy  :  -113.0412399 Eh     change       -0.6874785E-09 Eh
 * total energy  :  -113.0546781 Eh     change       -0.1343821E-01 Eh
 * total energy  :  -113.0587393 Eh     change       -0.4061195E-02 Eh
 * total energy  :  -113.0602993 Eh     change       -0.1559996E-02 Eh
 * total energy  :  -113.0613444 Eh     change       -0.1045084E-02 Eh
 * total energy  :  -113.0620353 Eh     change       -0.6908983E-03 Eh
 * total energy  :  -113.0625800 Eh     change       -0.5447882E-03 Eh
 * total energy  :  -113.0631030 Eh     change       -0.5229357E-03 Eh
 * total energy  :  -113.0631376 Eh     change       -0.3460658E-04 Eh
 * total energy  :  -113.0636483 Eh     change       -0.5106914E-03 Eh
 * total energy  :  -113.0701252 Eh     change       -0.1333208E-04 Eh
 * total energy  :  -113.0701376 Eh     change       -0.1243022E-04 Eh
 * total energy  :  -113.0701470 Eh     change       -0.9420592E-05 Eh
 * total energy  :  -113.0701550 Eh     change       -0.7961887E-05 Eh
 * total energy  :  -113.0701638 Eh     change       -0.8878147E-05 Eh
 * total energy  :  -113.0701732 Eh     change       -0.9379892E-05 Eh
 * total energy  :  -113.0701816 Eh     change       -0.8343658E-05 Eh
 * total energy  :  -113.0701885 Eh     change       -0.6926330E-05 Eh
 * total energy  :  -113.0701899 Eh     change       -0.1406689E-05 Eh
   *** GEOMETRY OPTIMIZATION CONVERGED AFTER 64 ITERATIONS ***

 final structure:
================
68
 xtb: 6.3.3 (4ae9cef)
C        -2.24236054752433   -2.68249569992499    1.72080997913657
O        -1.18134222272896   -2.89124457571295    2.55008922174499
C        -1.34239222081751   -3.75061037965063    3.65304984649259
C        -3.44296428053996   -3.37792101559340    1.80657508078982
C        -4.47070196667363   -3.11321207795971    0.91837157123521
C        -4.31776471788564   -2.15194586732581   -0.06175657910759
C        -3.12622920454276   -1.45359535149612   -0.14935939076791
C        -2.08179827167616   -1.70835791070029    0.72461764495932
C        -0.80875656404098   -0.91168607280091    0.64164355645913
C         0.04698339000818   -1.20355345638928   -0.60923800127386
C         1.00074023506959   -2.35914820534992   -0.64923590015568
C         1.21586285932633   -3.23453774993742    0.39609278489896
C         2.09985581884043   -4.29301903041967    0.25225352443132
C         2.77149831125923   -4.47123781831853   -0.93965881312695
C         2.56429201561145   -3.60415451724950   -2.00186629826646
C         1.67748071144695   -2.55006046018792   -1.86629939623929
O         1.39283197623356   -1.63619323143217   -2.85434647727566
C         2.05550125900342   -1.76366094727460   -4.09170603688133
N         0.70550747895750    0.09555493595226   -0.85358258810790
C         1.98631058373780    0.38324418261762   -0.43204042766948
C         2.30640505514593    1.84537220548899   -0.43241750412309
C         2.12457993285614    2.64665246667941   -1.55564990842548
C         2.43020571305502    3.99452487012106   -1.49821713671567
C         2.91048173011999    4.55031050813744   -0.32373288428592
C         3.10977842369460    3.75185440814000    0.78969547904816
C         2.81808838795821    2.40103449904615    0.73461846260397
O         2.79876396184672   -0.45583919697924   -0.12324208397389
C        -0.38100123781549    1.02912060432833   -0.68086427286794
C        -1.24139528159653    1.06603884298869   -1.97262382371582
O        -0.62360958460020    0.60485240701270   -3.05444478432445
O        -2.34582400043876    1.52316043732746   -2.00467569776434
N        -1.08411568809223    0.52558912607258    0.48277450112889
C        -1.35550488536642    1.27123915288965    1.59630555672630
C        -1.26229464781172    2.74940727025101    1.39849090543775
C        -2.08615441095234    3.42553750218007    0.50544524613612
C        -1.95187391876171    4.79428722911986    0.35026048280570
C        -0.99573371149283    5.48941189644017    1.07252780010111
C        -0.18055079733785    4.81798420303048    1.96882383080037
C        -0.31888938053751    3.45267875274405    2.14035665386180
O        -1.62325694275016    0.75321713792865    2.65797342457870
H        -2.15599376414045   -3.41724210219021    4.30309096413865
H        -1.52272407848596   -4.78305951963513    3.33554405643800
H        -0.40224263211926   -3.70314802025190    4.20081407706122
H        -3.59008220825797   -4.12644333946063    2.56888925415291
H        -5.39734607158536   -3.66114295464183    1.00406714724305
H        -5.12153714569156   -1.93600688369707   -0.74830386167422
H        -3.01982142952294   -0.67866384294768   -0.89347251239337
H        -0.23667914251762   -1.05129141171840    1.56549784720583
H        -0.65790838021500   -1.35427778399316   -1.44239361676689
H         0.69099158101934   -3.09408106304921    1.32587410264092
H         2.26490995872052   -4.97042079853689    1.07594588450032
H         3.46797623060762   -5.28820840648598   -1.05599640491386
H         3.10401908558468   -3.76089922831632   -2.92212120191712
H         3.13767275207261   -1.65425334604328   -3.97554199281416
H         1.83235656741083   -2.72284899017614   -4.56790960694003
H         1.67468801868513   -0.95756225377232   -4.71823962655773
H         1.75492421429348    2.21514896515174   -2.47510660304281
H         2.28956135492371    4.61240480946617   -2.37229861523255
H         3.13741703832336    5.60484930060535   -0.28065734232226
H         3.49563117440001    4.18087806048306    1.70205995613724
H         2.97592651360151    1.76565716701670    1.59314569451627
H        -0.04036298039117    2.05699552380762   -0.50674202418444
H         0.20754124138134    0.13107318035045   -2.83841880948828
H        -2.82164608357516    2.88018819982673   -0.06505145166798
H        -2.59558624612113    5.31806968174400   -0.34017875889889
H        -0.88999425404674    6.55638885609193    0.94208142613548
H         0.56180064047941    5.35849431087268    2.53697752412698
H         0.30585668495840    2.92080381572242    2.84262394621455

          :  Hamiltonian                  GFN2-xTB          :
         :: total energy            -113.070189900426 Eh    ::
         :: gradient norm              0.000924130320 Eh/a0 ::
         :: HOMO-LUMO gap              3.151702264192 eV    ::
         :: SCC energy              -114.720082513720 Eh    ::
         :: -> dispersion             -0.096377077892 Eh    ::
         :: repulsion energy           1.646167824117 Eh    ::

    * Orbital Energies and Occupations

         #    Occupation            Energy/Eh            Energy/eV
      -------------------------------------------------------------
         1        2.0000           -0.7621967             -20.7404
       ...           ...                  ...                  ...
        89        2.0000           -0.4272526             -11.6261
        90        2.0000           -0.4260203             -11.5926
        91        2.0000           -0.4236218             -11.5273
        92        2.0000           -0.4214370             -11.4679
        93        2.0000           -0.4157080             -11.3120
        94        2.0000           -0.4131586             -11.2426
        95        2.0000           -0.4122826             -11.2188
        96        2.0000           -0.4040303             -10.9942
        97        2.0000           -0.3994159             -10.8687
        98        2.0000           -0.3985814             -10.8460
        99        2.0000           -0.3889199             -10.5830
       100        2.0000           -0.3830321             -10.4228
       101        2.0000           -0.3793782             -10.3234 (HOMO)
       102                         -0.2635553              -7.1717 (LUMO)
       103                         -0.2555030              -6.9526
       104                         -0.2444467              -6.6517
       105                         -0.2440812              -6.6418
       106                         -0.2309421              -6.2843
       107                         -0.2291499              -6.2355
       108                         -0.2273788              -6.1873
       109                         -0.2193903              -5.9699
       110                         -0.2157069              -5.8697
       111                         -0.2140046              -5.8234
       112                         -0.2026453              -5.5143
       ...                                ...                  ...
       188                          0.6708819              18.2556
      -------------------------------------------------------------
                  HL-Gap            0.1158229 Eh            3.1517 eV

     #   Z          covCN         q      C6AA      Î±(0)
     1   6 C        2.867     0.144    24.873     8.175
     2   8 O        1.705    -0.269    18.457     5.800
     3   6 C        3.643     0.038    20.275     6.473
     4   6 C        2.918    -0.065    29.614     8.924
     5   6 C        2.921    -0.031    28.768     8.796
     6   6 C        2.917    -0.039    28.977     8.827
     7   6 C        2.925    -0.035    28.861     8.810
     8   6 C        2.971    -0.016    28.409     8.743
     9   6 C        3.827     0.045    19.802     6.332
    10   6 C        3.879     0.047    19.737     6.316
    11   6 C        2.971    -0.004    28.125     8.699
    12   6 C        2.921    -0.034    28.853     8.809
    13   6 C        2.919    -0.036    28.885     8.813
    14   6 C        2.921    -0.029    28.735     8.791
    15   6 C        2.917    -0.061    29.517     8.909
    16   6 C        2.871     0.142    24.911     8.182
    17   8 O        1.704    -0.295    18.912     5.872
    18   6 C        3.642     0.036    20.323     6.482
    19   7 N        2.763    -0.153    24.299     7.321
    20   6 C        2.760     0.278    22.290     7.732
    21   6 C        2.976    -0.021    28.531     8.762
    22   6 C        2.921    -0.033    28.833     8.806
    23   6 C        2.919    -0.027    28.676     8.781
    24   6 C        2.920    -0.025    28.624     8.774
    25   6 C        2.919    -0.024    28.610     8.771
    26   6 C        2.925    -0.020    28.512     8.757
    27   8 O        0.858    -0.400    21.674     6.242
    28   6 C        3.814     0.074    19.338     6.259
    29   6 C        2.686     0.348    21.095     7.516
    30   8 O        1.658    -0.362    20.127     6.056
    31   8 O        0.856    -0.356    20.831     6.119
    32   7 N        2.766    -0.135    23.917     7.263
    33   6 C        2.765     0.273    22.386     7.748
    34   6 C        2.976    -0.020    28.509     8.758
    35   6 C        2.920    -0.033    28.820     8.804
    36   6 C        2.920    -0.027    28.674     8.781
    37   6 C        2.920    -0.028    28.710     8.787
    38   6 C        2.919    -0.029    28.724     8.789
    39   6 C        2.924    -0.025    28.634     8.775
    40   8 O        0.859    -0.412    21.922     6.277
    41   1 H        0.924     0.047     2.353     2.399
    42   1 H        0.924     0.040     2.453     2.449
    43   1 H        0.925     0.063     2.159     2.298
    44   1 H        0.926     0.040     2.442     2.444
    45   1 H        0.926     0.039     2.467     2.456
    46   1 H        0.926     0.041     2.435     2.440
    47   1 H        0.926     0.044     2.400     2.423
    48   1 H        0.924     0.075     2.027     2.227
    49   1 H        0.923     0.054     2.266     2.354
    50   1 H        0.926     0.063     2.160     2.298
    51   1 H        0.926     0.041     2.441     2.443
    52   1 H        0.926     0.040     2.453     2.449
    53   1 H        0.926     0.040     2.450     2.448
    54   1 H        0.924     0.046     2.365     2.405
    55   1 H        0.924     0.046     2.374     2.410
    56   1 H        0.925     0.060     2.199     2.319
    57   1 H        0.926     0.032     2.552     2.498
    58   1 H        0.926     0.042     2.422     2.434
    59   1 H        0.926     0.042     2.421     2.433
    60   1 H        0.926     0.044     2.394     2.420
    61   1 H        0.926     0.049     2.331     2.388
    62   1 H        0.924     0.066     2.127     2.281
    63   1 H        0.803     0.351     0.585     1.202
    64   1 H        0.926     0.060     2.199     2.319
    65   1 H        0.926     0.042     2.420     2.433
    66   1 H        0.926     0.037     2.494     2.470
    67   1 H        0.926     0.036     2.498     2.472
    68   1 H        0.926     0.040     2.455     2.450

Wiberg/Mayer (AO) data.
largest (>0.10) Wiberg bond orders for each atom

     #   Z sym  total        # sym  WBO       # sym  WBO       # sym  WBO
 ---------------------------------------------------------------------------
     1   6 C    3.935 --     4 C    1.379     8 C    1.326     2 O    1.061
     2   8 O    2.238 --     1 C    1.061     3 C    0.981
     3   6 C    3.943 --     2 O    0.981    43 H    0.979    41 H    0.977
                            42 H    0.976
     4   6 C    3.987 --     5 C    1.438     1 C    1.379    44 H    0.965
                             7 C    0.103
     5   6 C    3.990 --     6 C    1.442     4 C    1.438    45 H    0.971
                             8 C    0.106
     6   6 C    3.991 --     5 C    1.442     7 C    1.428    46 H    0.971
     7   6 C    3.990 --     8 C    1.435     6 C    1.428    47 H    0.965
                             4 C    0.103
     8   6 C    3.982 --     7 C    1.435     1 C    1.326     9 C    0.995
                             5 C    0.106
     9   6 C    3.961 --     8 C    0.995    10 C    0.959    48 H    0.950
                            32 N    0.948
    10   6 C    3.961 --    11 C    1.000     9 C    0.959    49 H    0.942
                            19 N    0.941
    11   6 C    3.982 --    12 C    1.446    16 C    1.317    10 C    1.000
                            14 C    0.107
    12   6 C    3.987 --    11 C    1.446    13 C    1.415    50 H    0.958
                            15 C    0.101
    13   6 C    3.991 --    14 C    1.456    12 C    1.415    51 H    0.971
    14   6 C    3.991 --    13 C    1.456    15 C    1.420    52 H    0.971
                            11 C    0.107
    15   6 C    3.987 --    14 C    1.420    16 C    1.404    53 H    0.965
                            12 C    0.101
    16   6 C    3.930 --    15 C    1.404    11 C    1.317    17 O    1.035
    17   8 O    2.208 --    16 C    1.035    18 C    0.981
    18   6 C    3.943 --    17 O    0.981    56 H    0.979    54 H    0.977
                            55 H    0.977
    19   7 N    3.414 --    20 C    1.156    28 C    0.985    10 C    0.941
                            27 O    0.172
    20   6 C    3.943 --    27 O    1.733    19 N    1.156    21 C    0.970
    21   6 C    3.987 --    26 C    1.402    22 C    1.394    20 C    0.970
                            24 C    0.108
    22   6 C    3.992 --    23 C    1.448    21 C    1.394    57 H    0.969
                            25 C    0.111
    23   6 C    3.992 --    22 C    1.448    24 C    1.435    58 H    0.970
                            26 C    0.110
    24   6 C    3.991 --    25 C    1.440    23 C    1.435    59 H    0.971
                            21 C    0.108
    25   6 C    3.991 --    26 C    1.443    24 C    1.440    60 H    0.969
                            22 C    0.111
    26   6 C    3.990 --    25 C    1.443    21 C    1.402    61 H    0.969
                            23 C    0.110
    27   8 O    2.049 --    20 C    1.733    19 N    0.172
    28   6 C    3.967 --    19 N    0.985    32 N    0.979    62 H    0.925
                            29 C    0.907
    29   6 C    3.928 --    31 O    1.791    30 O    1.167    28 C    0.907
    30   8 O    2.227 --    29 C    1.167    63 H    0.820    31 O    0.174
    31   8 O    2.084 --    29 C    1.791    30 O    0.174
    32   7 N    3.433 --    33 C    1.186    28 C    0.979     9 C    0.948
                            40 O    0.183
    33   6 C    3.945 --    40 O    1.709    32 N    1.186    34 C    0.968
    34   6 C    3.987 --    39 C    1.401    35 C    1.400    33 C    0.968
                            37 C    0.109
    35   6 C    3.989 --    36 C    1.444    34 C    1.400    64 H    0.965
                            38 C    0.112
    36   6 C    3.992 --    35 C    1.444    37 C    1.439    65 H    0.970
                            39 C    0.111
    37   6 C    3.992 --    36 C    1.439    38 C    1.438    66 H    0.971
                            34 C    0.109
    38   6 C    3.992 --    39 C    1.444    37 C    1.438    67 H    0.970
                            35 C    0.112
    39   6 C    3.991 --    38 C    1.444    34 C    1.401    68 H    0.969
                            36 C    0.111
    40   8 O    2.030 --    33 C    1.709    32 N    0.183
    41   1 H    0.998 --     3 C    0.977
    42   1 H    0.998 --     3 C    0.976
    43   1 H    0.995 --     3 C    0.979
    44   1 H    0.998 --     4 C    0.965
    45   1 H    0.998 --     5 C    0.971
    46   1 H    0.998 --     6 C    0.971
    47   1 H    0.997 --     7 C    0.965
    48   1 H    0.994 --     9 C    0.950
    49   1 H    0.996 --    10 C    0.942
    50   1 H    0.995 --    12 C    0.958
    51   1 H    0.998 --    13 C    0.971
    52   1 H    0.998 --    14 C    0.971
    53   1 H    0.998 --    15 C    0.965
    54   1 H    0.998 --    18 C    0.977
    55   1 H    0.998 --    18 C    0.977
    56   1 H    0.996 --    18 C    0.979
    57   1 H    0.999 --    22 C    0.969
    58   1 H    0.998 --    23 C    0.970
    59   1 H    0.998 --    24 C    0.971
    60   1 H    0.998 --    25 C    0.969
    61   1 H    0.998 --    26 C    0.969
    62   1 H    0.995 --    28 C    0.925
    63   1 H    0.876 --    30 O    0.820
    64   1 H    0.996 --    35 C    0.965
    65   1 H    0.998 --    36 C    0.970
    66   1 H    0.998 --    37 C    0.971
    67   1 H    0.998 --    38 C    0.970
    68   1 H    0.998 --    39 C    0.969
 ---------------------------------------------------------------------------

molecular dipole:
                 x           y           z       tot (Debye)
 q only:        0.872      -0.381      -0.807
   full:        1.212      -0.281      -0.789       3.745

           -------------------------------------------------
          | TOTAL ENERGY             -113.070189900426 Eh   |
          | GRADIENT NORM               0.000924130320 Eh/Î± |
          | HOMO-LUMO GAP               3.151702264192 eV   |
           -------------------------------------------------

 * finished run on 2022/03/17 at 00:50:45.505
