   * xtb version 6.3.3 (4ae9cef) compiled by 'conda@95abc7406d43' on 2020-10-14
          program call               : xtb acid_152.xyz --opt --chrg 0 --uhf 0 --gfn 2
          number of atoms            :                    66
          number of electrons        :                   218
          charge                     :                     0
          spin                       :                   0.0

   ID    Z sym.   atoms
    1    6 C      1-22, 24-26, 28, 29, 32, 33, 37-39, 41, 42
    2    7 N      23, 36
    3   35 Br     27, 40
    4    8 O      30, 31, 34, 35, 43, 44
    5    1 H      45-66

          :  Hamiltonian                  GFN2-xTB          :
 * total energy  :  -122.4698184 Eh     change       -0.1296840E-08 Eh
 * total energy  :  -122.4850778 Eh     change       -0.1525942E-01 Eh
 * total energy  :  -122.4901260 Eh     change       -0.5048155E-02 Eh
 * total energy  :  -122.4915591 Eh     change       -0.1433099E-02 Eh
 * total energy  :  -122.4923401 Eh     change       -0.7810403E-03 Eh
 * total energy  :  -122.4927035 Eh     change       -0.3633210E-03 Eh
 * total energy  :  -122.4930504 Eh     change       -0.3469041E-03 Eh
 * total energy  :  -122.4932460 Eh     change       -0.1956589E-03 Eh
 * total energy  :  -122.4933865 Eh     change       -0.1404856E-03 Eh
 * total energy  :  -122.4934862 Eh     change       -0.9969371E-04 Eh
 * total energy  :  -122.4938981 Eh     change       -0.3351621E-04 Eh
 * total energy  :  -122.4939282 Eh     change       -0.3012418E-04 Eh
 * total energy  :  -122.4939571 Eh     change       -0.2888569E-04 Eh
 * total energy  :  -122.4939840 Eh     change       -0.2691999E-04 Eh
 * total energy  :  -122.4940073 Eh     change       -0.2327326E-04 Eh
 * total energy  :  -122.4940246 Eh     change       -0.1733191E-04 Eh
 * total energy  :  -122.4940325 Eh     change       -0.7854846E-05 Eh
 * total energy  :  -122.4940379 Eh     change       -0.5413178E-05 Eh
 * total energy  :  -122.4940417 Eh     change       -0.3855883E-05 Eh
   *** GEOMETRY OPTIMIZATION CONVERGED AFTER 24 ITERATIONS ***

 final structure:
================
66
 xtb: 6.3.3 (4ae9cef)
C         2.21338202909264   -0.89525623613094   -1.52754253371164
C         3.20656165285198   -0.64353462836404   -2.42901736513885
C         3.92380679300258    0.57062228882673   -2.39235235178906
C         4.95534601521689    0.86244884983529   -3.30829745495474
C         5.63359417395791    2.04711177016527   -3.23995143047099
C         5.31213883740425    2.99288172216332   -2.25352695901493
C         4.31619235920433    2.74013311515266   -1.35240162379368
C         3.59701069108259    1.52746384937405   -1.39613185890282
C         2.56787039931126    1.23662594881541   -0.47776238063473
C         1.88682472254440    0.05145192739427   -0.53643163878800
C         0.76989040362023   -0.25408785018581    0.42886426327671
C        -0.60419439405762   -0.28075357576683   -0.27762377252631
C        -1.52638368982045    0.78247980515489    0.27013721432412
C        -1.46720166599436    2.04885974751926   -0.25198076572146
C        -2.27894463347611    3.08301812973338    0.25238909698998
C        -2.23073749016721    4.39435501332349   -0.26675379351904
C        -3.03256557342826    5.37526919575289    0.24477889607838
C        -3.91959670916722    5.09165654890918    1.29604495045054
C        -3.99046931711340    3.83147543758709    1.81967630664388
C        -3.17502988476913    2.79666388787471    1.31574918149521
C        -3.21364567964312    1.48709340422300    1.83547500451388
C        -2.40815937728073    0.50587791478951    1.33060398679451
N        -1.09047174579551   -1.63055416658319   -0.07115189045278
C        -2.12489879363805   -2.24494165895820   -0.67756123081632
C        -2.90897010815058   -1.53270925405983   -1.67739433146772
C        -4.00903377762204   -2.01279425526237   -2.36480988463640
Br       -4.76878529726207   -3.70667817290272   -2.24366482486537
C        -4.45910629596886   -0.96417525209764   -3.19850321209866
C        -3.61077683712272    0.07423930220907   -2.96105496546307
O        -2.68157173730434   -0.25432232573673   -2.05898980529850
O        -2.42036224237699   -3.40796027902050   -0.38170030669205
C        -0.25542164349773   -2.38604816111965    0.84645802359274
C        -0.96428519561788   -2.61731609982263    2.22617050443998
O        -1.97771113949060   -3.45190035722393    2.18537576170337
O        -0.58067212805445   -2.07072645579504    3.21986547263164
N         0.92250855993328   -1.58739199110249    0.99470378963467
C         1.92694839812814   -1.77163353927713    1.90186871958087
C         2.01955690775559   -3.07679117919443    2.56255415382853
C         2.83138142707101   -3.41604581203992    3.62171816615626
Br        4.07393135367379   -2.32841475493073    4.47296777771901
C         2.54487725883533   -4.76291330330198    3.94821305686879
C         1.58426988280172   -5.14909476255478    3.06743514842137
O         1.26212934639535   -4.15048680060484    2.23071257240365
O         2.73920224416689   -0.89494681126353    2.12164963263056
H         1.67344320515959   -1.83157753289283   -1.55984097747177
H         3.45931570669780   -1.37483357866147   -3.18354601814949
H         5.20168384049797    0.13045735692195   -4.06437441369215
H         6.42414760320496    2.26368301973551   -3.94341145941777
H         5.86157110357784    3.92185937126675   -2.21285442324181
H         4.06662348512662    3.46198787287602   -0.58844853424397
H         2.32955240863648    1.96100474669705    0.28715201041249
H         0.78031872314449    0.48405103095075    1.24111699024291
H        -0.45837432105537   -0.11015432635541   -1.35136740149232
H        -0.78492844500919    2.26675381552506   -1.06212190446080
H        -1.54436805826106    4.60699623116093   -1.07393484520163
H        -2.98933306664772    6.37783512103594   -0.15448622542383
H        -4.54425662870543    5.88060247727985    1.68799755726993
H        -4.66948556646345    3.60884170401567    2.62999214054936
H        -3.88888337642381    1.26800636989175    2.64935280082521
H        -2.44709244551031   -0.48679029113939    1.75340641618599
H        -5.29350723728176   -0.99764435326526   -3.86711883442768
H        -3.57075371844907    1.06804442169029   -3.36155181418112
H        -0.04000067786179   -3.37562500547135    0.40818804037438
H        -2.21603811829846   -3.71511279187053    1.25110218831799
H         2.99608265568027   -5.33823165090151    4.72919935396417
H         1.06585382900709   -6.07840318399371    2.93674105384506

          :  Hamiltonian                  GFN2-xTB          :
         :: total energy            -122.494041749156 Eh    ::
         :: gradient norm              0.000958564311 Eh/a0 ::
         :: HOMO-LUMO gap              2.224474194949 eV    ::
         :: SCC energy              -124.195177884766 Eh    ::
         :: -> dispersion             -0.098367112938 Eh    ::
         :: repulsion energy           1.699355952246 Eh    ::

    * Orbital Energies and Occupations

         #    Occupation            Energy/Eh            Energy/eV
      -------------------------------------------------------------
         1        2.0000           -0.8523621             -23.1940
       ...           ...                  ...                  ...
        97        2.0000           -0.4289932             -11.6735
        98        2.0000           -0.4269060             -11.6167
        99        2.0000           -0.4239137             -11.5353
       100        2.0000           -0.4229219             -11.5083
       101        2.0000           -0.4205687             -11.4443
       102        2.0000           -0.4195951             -11.4178
       103        2.0000           -0.4176665             -11.3653
       104        2.0000           -0.4092964             -11.1375
       105        2.0000           -0.4045876             -11.0094
       106        2.0000           -0.3992345             -10.8637
       107        2.0000           -0.3969709             -10.8021
       108        2.0000           -0.3953508             -10.7580
       109        2.0000           -0.3876028             -10.5472 (HOMO)
       110                         -0.3058549              -8.3227 (LUMO)
       111                         -0.2786754              -7.5831
       112                         -0.2778992              -7.5620
       113                         -0.2690684              -7.3217
       114                         -0.2532547              -6.8914
       115                         -0.2474713              -6.7340
       116                         -0.2391760              -6.5083
       117                         -0.2328863              -6.3372
       118                         -0.2176377              -5.9222
       119                         -0.2096030              -5.7036
       120                         -0.2066071              -5.6221
       ...                                ...                  ...
       208                          0.6881200              18.7247
      -------------------------------------------------------------
                  HL-Gap            0.0817479 Eh            2.2245 eV

     #   Z          covCN         q      C6AA      Î±(0)
     1   6 C        2.919    -0.036    28.888     8.814
     2   6 C        2.917    -0.034    28.850     8.808
     3   6 C        2.988     0.014    27.692     8.632
     4   6 C        2.918    -0.034    28.841     8.807
     5   6 C        2.916    -0.028    28.700     8.785
     6   6 C        2.916    -0.028    28.691     8.784
     7   6 C        2.918    -0.032    28.804     8.801
     8   6 C        2.987     0.018    27.610     8.619
     9   6 C        2.922    -0.034    28.835     8.806
    10   6 C        2.971     0.004    27.925     8.668
    11   6 C        3.830     0.049    19.730     6.320
    12   6 C        3.816     0.038    19.927     6.353
    13   6 C        2.969    -0.002    28.070     8.690
    14   6 C        2.924    -0.043    29.062     8.841
    15   6 C        2.987     0.015    27.665     8.628
    16   6 C        2.918    -0.035    28.866     8.810
    17   6 C        2.916    -0.027    28.681     8.782
    18   6 C        2.916    -0.027    28.688     8.783
    19   6 C        2.918    -0.032    28.809     8.802
    20   6 C        2.987     0.014    27.691     8.632
    21   6 C        2.918    -0.031    28.774     8.796
    22   6 C        2.918    -0.033    28.818     8.803
    23   7 N        2.760    -0.098    23.159     7.147
    24   6 C        2.763     0.259    22.637     7.792
    25   6 C        3.133     0.078    26.055     8.356
    26   6 C        3.027     0.072    26.365     8.422
    27  35 Br       1.007    -0.093   187.566    22.082
    28   6 C        3.035    -0.065    29.585     8.921
    29   6 C        3.071     0.084    26.059     8.370
    30   8 O        1.730    -0.172    16.898     5.550
    31   8 O        0.862    -0.464    22.992     6.429
    32   6 C        3.757     0.083    19.252     6.256
    33   6 C        2.683     0.356    20.957     7.492
    34   8 O        1.654    -0.366    20.211     6.069
    35   8 O        0.856    -0.369    21.080     6.156
    36   7 N        2.761    -0.113    23.473     7.196
    37   6 C        2.764     0.272    22.405     7.752
    38   6 C        3.133     0.081    25.989     8.345
    39   6 C        3.028     0.073    26.345     8.419
    40  35 Br       1.011    -0.099   187.719    22.091
    41   6 C        3.034    -0.064    29.550     8.916
    42   6 C        3.066     0.083    26.080     8.374
    43   8 O        1.730    -0.194    17.238     5.606
    44   8 O        0.861    -0.409    21.857     6.268
    45   1 H        0.925     0.025     2.661     2.551
    46   1 H        0.926     0.036     2.496     2.471
    47   1 H        0.926     0.034     2.532     2.488
    48   1 H        0.926     0.034     2.529     2.487
    49   1 H        0.926     0.035     2.515     2.480
    50   1 H        0.926     0.038     2.476     2.461
    51   1 H        0.926     0.044     2.399     2.422
    52   1 H        0.924     0.068     2.103     2.268
    53   1 H        0.924     0.063     2.169     2.303
    54   1 H        0.925     0.033     2.546     2.495
    55   1 H        0.926     0.034     2.526     2.485
    56   1 H        0.926     0.036     2.501     2.473
    57   1 H        0.926     0.037     2.491     2.468
    58   1 H        0.926     0.038     2.469     2.457
    59   1 H        0.926     0.045     2.386     2.416
    60   1 H        0.926     0.030     2.585     2.514
    61   1 H        0.927     0.076     2.016     2.220
    62   1 H        0.926     0.076     2.021     2.223
    63   1 H        0.923     0.073     2.049     2.239
    64   1 H        0.800     0.369     0.547     1.162
    65   1 H        0.927     0.073     2.054     2.241
    66   1 H        0.926     0.072     2.067     2.248

Wiberg/Mayer (AO) data.
largest (>0.10) Wiberg bond orders for each atom

     #   Z sym  total        # sym  WBO       # sym  WBO       # sym  WBO
 ---------------------------------------------------------------------------
     1   6 C    3.991 --     2 C    1.565    10 C    1.293    45 H    0.969
     2   6 C    3.992 --     1 C    1.565     3 C    1.275    46 H    0.968
                             9 C    0.114
     3   6 C    3.990 --     4 C    1.282     2 C    1.275     8 C    1.252
     4   6 C    3.992 --     5 C    1.556     3 C    1.282    47 H    0.968
                             7 C    0.118
     5   6 C    3.990 --     4 C    1.556     6 C    1.321    48 H    0.971
     6   6 C    3.992 --     7 C    1.557     5 C    1.321    49 H    0.971
     7   6 C    3.989 --     6 C    1.557     8 C    1.279    50 H    0.968
                             4 C    0.118
     8   6 C    3.990 --     9 C    1.281     7 C    1.279     3 C    1.252
     9   6 C    3.988 --    10 C    1.529     8 C    1.281    51 H    0.965
                             2 C    0.114
    10   6 C    3.983 --     9 C    1.529     1 C    1.293    11 C    0.986
    11   6 C    3.957 --    10 C    0.986    36 N    0.958    52 H    0.953
                            12 C    0.951
    12   6 C    3.956 --    13 C    0.982    23 N    0.965    11 C    0.951
                            53 H    0.948
    13   6 C    3.984 --    14 C    1.517    22 C    1.303    12 C    0.982
    14   6 C    3.989 --    13 C    1.517    15 C    1.288    54 H    0.966
                            21 C    0.117
    15   6 C    3.990 --    14 C    1.288    16 C    1.276    20 C    1.249
    16   6 C    3.990 --    17 C    1.560    15 C    1.276    55 H    0.968
                            19 C    0.119
    17   6 C    3.992 --    16 C    1.560    18 C    1.318    56 H    0.971
    18   6 C    3.990 --    19 C    1.559    17 C    1.318    57 H    0.971
    19   6 C    3.991 --    18 C    1.559    20 C    1.279    58 H    0.968
                            16 C    0.119
    20   6 C    3.990 --    21 C    1.282    19 C    1.279    15 C    1.249
    21   6 C    3.991 --    22 C    1.555    20 C    1.282    59 H    0.967
                            14 C    0.117
    22   6 C    3.991 --    21 C    1.555    13 C    1.303    60 H    0.966
    23   7 N    3.514 --    24 C    1.253    32 C    0.970    12 C    0.965
                            31 O    0.179
    24   6 C    3.962 --    31 O    1.537    23 N    1.253    25 C    1.059
    25   6 C    3.902 --    26 C    1.453    30 O    1.094    24 C    1.059
                            29 C    0.129
    26   6 C    3.944 --    25 C    1.453    28 C    1.292    27 Br   1.041
    27  35 Br   1.212 --    26 C    1.041
    28   6 C    3.979 --    29 C    1.580    26 C    1.292    61 H    0.970
    29   6 C    3.908 --    28 C    1.580    30 O    1.155    62 H    0.962
                            25 C    0.129
    30   8 O    2.457 --    29 C    1.155    25 C    1.094
    31   8 O    1.994 --    24 C    1.537    23 N    0.179
    32   6 C    3.956 --    36 N    1.004    23 N    0.970    63 H    0.936
                            33 C    0.877
    33   6 C    3.927 --    35 O    1.776    34 O    1.209    32 C    0.877
    34   8 O    2.239 --    33 C    1.209    64 H    0.765    35 O    0.182
    35   8 O    2.085 --    33 C    1.776    34 O    0.182
    36   7 N    3.447 --    37 C    1.175    32 C    1.004    11 C    0.958
                            44 O    0.180
    37   6 C    3.962 --    44 O    1.658    36 N    1.175    38 C    1.033
    38   6 C    3.902 --    39 C    1.480    43 O    1.092    37 C    1.033
                            42 C    0.133
    39   6 C    3.945 --    38 C    1.480    41 C    1.279    40 Br   1.031
    40  35 Br   1.190 --    39 C    1.031
    41   6 C    3.980 --    42 C    1.597    39 C    1.279    65 H    0.971
    42   6 C    3.906 --    41 C    1.597    43 O    1.137    66 H    0.963
                            38 C    0.133
    43   8 O    2.436 --    42 C    1.137    38 C    1.092
    44   8 O    2.022 --    37 C    1.658    36 N    0.180
    45   1 H    0.999 --     1 C    0.969
    46   1 H    0.998 --     2 C    0.968
    47   1 H    0.998 --     4 C    0.968
    48   1 H    0.998 --     5 C    0.971
    49   1 H    0.998 --     6 C    0.971
    50   1 H    0.998 --     7 C    0.968
    51   1 H    0.998 --     9 C    0.965
    52   1 H    0.994 --    11 C    0.953
    53   1 H    0.995 --    12 C    0.948
    54   1 H    0.998 --    14 C    0.966
    55   1 H    0.998 --    16 C    0.968
    56   1 H    0.998 --    17 C    0.971
    57   1 H    0.998 --    18 C    0.971
    58   1 H    0.998 --    19 C    0.968
    59   1 H    0.997 --    21 C    0.967
    60   1 H    0.999 --    22 C    0.966
    61   1 H    0.994 --    28 C    0.970
    62   1 H    0.994 --    29 C    0.962
    63   1 H    0.993 --    32 C    0.936
    64   1 H    0.864 --    34 O    0.765
    65   1 H    0.994 --    41 C    0.971
    66   1 H    0.994 --    42 C    0.963
 ---------------------------------------------------------------------------

molecular dipole:
                 x           y           z       tot (Debye)
 q only:       -0.928       1.242      -2.397
   full:       -1.277       1.285      -3.015       8.940

           -------------------------------------------------
          | TOTAL ENERGY             -122.494041749156 Eh   |
          | GRADIENT NORM               0.000958564311 Eh/Î± |
          | HOMO-LUMO GAP               2.224474194949 eV   |
           -------------------------------------------------

 * finished run on 2022/03/16 at 21:53:47.109
