   * xtb version 6.3.3 (4ae9cef) compiled by 'conda@95abc7406d43' on 2020-10-14
          program call               : xtb acid_382.xyz --opt --chrg 0 --uhf 0 --gfn 2
          number of atoms            :                    72
          number of electrons        :                   254
          charge                     :                     0
          spin                       :                   0.0

   ID    Z sym.   atoms
    1    6 C      1-22, 24-27, 32, 33, 35, 36, 40-43, 48, 49
    2    7 N      23, 39
    3    9 F      28-30, 44-46
    4    8 O      31, 34, 37, 38, 47, 50
    5    1 H      51-72

          :  Hamiltonian                  GFN2-xTB          :
 * total energy  :  -146.9582948 Eh     change       -0.3783839E-08 Eh
 * total energy  :  -146.9767334 Eh     change       -0.1843863E-01 Eh
 * total energy  :  -146.9837130 Eh     change       -0.6979574E-02 Eh
 * total energy  :  -146.9867182 Eh     change       -0.3005205E-02 Eh
 * total energy  :  -146.9895743 Eh     change       -0.2856112E-02 Eh
 * total energy  :  -146.9917890 Eh     change       -0.2214724E-02 Eh
 * total energy  :  -146.9936431 Eh     change       -0.1854097E-02 Eh
 * total energy  :  -146.9952686 Eh     change       -0.1625486E-02 Eh
 * total energy  :  -146.9967071 Eh     change       -0.1438462E-02 Eh
 * total energy  :  -146.9978910 Eh     change       -0.1183907E-02 Eh
 * total energy  :  -147.0126413 Eh     change       -0.1750395E-04 Eh
 * total energy  :  -147.0126581 Eh     change       -0.1687253E-04 Eh
 * total energy  :  -147.0126671 Eh     change       -0.8977501E-05 Eh
 * total energy  :  -147.0126746 Eh     change       -0.7499233E-05 Eh
 * total energy  :  -147.0126851 Eh     change       -0.1043419E-04 Eh
 * total energy  :  -147.0126854 Eh     change       -0.3891924E-06 Eh
 * total energy  :  -147.0126926 Eh     change       -0.7121670E-05 Eh
 * total energy  :  -147.0126983 Eh     change       -0.5749247E-05 Eh
 * total energy  :  -147.0127023 Eh     change       -0.4025447E-05 Eh
   *** GEOMETRY OPTIMIZATION CONVERGED AFTER 93 ITERATIONS ***

 final structure:
================
72
 xtb: 6.3.3 (4ae9cef)
C        -3.28820490241264    4.06603642585880   -1.19445811134443
C        -3.19752892400549    3.85061388013982   -2.53921875764285
C        -2.44262794609811    2.77112854895598   -3.01764369090850
C        -1.79573306077771    1.93392341500274   -2.15198892149252
C        -1.85805264249737    2.12595613625069   -0.75288738058385
C        -2.63005787026863    3.22229491838553   -0.27453168928202
C        -2.74419735779022    3.45076943149884    1.11159209359962
C        -2.12374887307736    2.62512111340006    2.00391922562893
C        -1.37305730151312    1.53709237930602    1.54466729328044
C        -1.22881665865881    1.27871543798057    0.20166206012904
C        -0.43420700364167    0.06561948868855   -0.20137394087571
C         0.99634402346994    0.02877192753058    0.38865839781298
C         2.05152155082764    0.92698673872426   -0.19286697053914
C         1.80760265574730    1.72519485434884   -1.27848218590465
C         2.79523276859361    2.58108033918876   -1.78766662041603
C         4.02816883050853    2.63227972015920   -1.20833240155955
C         4.31997278077564    1.83943277506965   -0.07883645320137
C         3.32052618154208    0.98235255536841    0.45247203498344
C         3.64312858622767    0.21332696313365    1.59107605360215
C         4.88426784279483    0.28125175955439    2.16172210460879
C         5.87114668564331    1.12090287201224    1.62812820038284
C         5.58999559926999    1.88588927150279    0.53231868436698
N         1.28599621964296   -1.41015135977234    0.31366228273880
C         2.16877875291699   -1.97637051580215   -0.54951451248920
C         2.09186029620972   -3.47130068099804   -0.60562719958344
C         1.51678083018243   -4.21830387477472   -1.60129214508873
C         0.71957257836561   -3.77582558544023   -2.78163428269973
F         1.44643244796489   -3.62623587434872   -3.89625877101381
F        -0.26719106747851   -4.62931843842187   -3.08036312736469
F         0.13653787193164   -2.58405452648248   -2.54497311881397
O         1.71562355790899   -5.53258145701846   -1.38901122974210
C         2.42631326889153   -5.63996420943892   -0.26204915814459
C         2.69095058345912   -4.41389407543854    0.26954699696318
O         2.99285800589487   -1.37485329928130   -1.19392175734340
C         0.09130391933382   -2.06389526857232    0.78110210564409
C         0.08208110940693   -2.20445503982023    2.31600892534414
O         0.19334444415719   -3.47014095601757    2.68547684518571
O         0.04229020357197   -1.27250604445617    3.06926440535258
N        -0.98009326257904   -1.17009758817036    0.36401149264810
C        -2.22333049674520   -1.45818626547402    0.80202836104110
C        -3.31823890170018   -0.62424239981715    0.24908298291532
C        -4.32038258874957    0.01751560822583    0.92983387070000
C        -4.57247927152905    0.17386584848077    2.39260037544125
F        -3.47994473661316   -0.05567189657275    3.12203515482847
F        -5.52582559461047   -0.65763479558015    2.84353318819936
F        -4.98926754814592    1.41441052848621    2.69705054936599
O        -5.18162302516776    0.59602832319414    0.07425813988365
C        -4.75704030271693    0.31338148628991   -1.16139221547260
C        -3.62017601556267   -0.43244425531922   -1.12619594416428
O        -2.42298195175896   -2.40806493127505    1.53578475156985
H        -3.86904732834525    4.89034989965434   -0.80704499275409
H        -3.70226625620148    4.50168275183444   -3.23704698585028
H        -2.37469998456740    2.60039425622790   -4.08183501879345
H        -1.23702918603316    1.10887589292600   -2.56620065131832
H        -3.33972317029176    4.28441287125306    1.45254427232537
H        -2.21591683068684    2.79014294000373    3.06591988689934
H        -0.93627346235049    0.87428441341412    2.27657487925700
H        -0.37572668266359   -0.06325293156450   -1.28590776098392
H         0.91236884141812    0.26368612240006    1.45809370185931
H         0.84682330528745    1.71724956412420   -1.76480317534008
H         2.56499776024771    3.19099732818581   -2.64846883188911
H         4.79902938090021    3.27842897137592   -1.60278178703560
H         2.90560716637018   -0.44403624743861    2.02552482601556
H         5.11130659815173   -0.31621517114159    3.03293422961131
H         6.84700601756105    1.15813525698802    2.08954228582281
H         6.33995796718754    2.54061493095140    0.11177040477544
H         2.68292682394547   -6.62890162493617    0.06229148160278
H         3.24230625573643   -4.19100841700893    1.15882428273449
H        -0.04578027648316   -3.06274199892419    0.35302086627589
H         0.11349594543590   -3.55932788990405    3.64985759962516
H        -5.33593657805913    0.69596937945751   -1.97802030106972
H        -3.06725159766419   -0.81948570634575   -1.95576620229561

          :  Hamiltonian                  GFN2-xTB          :
         :: total energy            -147.012702338463 Eh    ::
         :: gradient norm              0.000785316781 Eh/a0 ::
         :: HOMO-LUMO gap              2.737401917773 eV    ::
         :: SCC energy              -148.801898588032 Eh    ::
         :: -> dispersion             -0.113466356687 Eh    ::
         :: repulsion energy           1.784737107557 Eh    ::

    * Orbital Energies and Occupations

         #    Occupation            Energy/Eh            Energy/eV
      -------------------------------------------------------------
         1        2.0000           -0.8988578             -24.4592
       ...           ...                  ...                  ...
       115        2.0000           -0.4367482             -11.8845
       116        2.0000           -0.4336176             -11.7993
       117        2.0000           -0.4319017             -11.7526
       118        2.0000           -0.4297724             -11.6947
       119        2.0000           -0.4232333             -11.5168
       120        2.0000           -0.4196419             -11.4190
       121        2.0000           -0.4185242             -11.3886
       122        2.0000           -0.4163275             -11.3288
       123        2.0000           -0.4153832             -11.3032
       124        2.0000           -0.4113006             -11.1921
       125        2.0000           -0.4025364             -10.9536
       126        2.0000           -0.3931831             -10.6991
       127        2.0000           -0.3803453             -10.3497 (HOMO)
       128                         -0.2797476              -7.6123 (LUMO)
       129                         -0.2742649              -7.4631
       130                         -0.2724578              -7.4140
       131                         -0.2655958              -7.2272
       132                         -0.2634317              -7.1683
       133                         -0.2456796              -6.6853
       134                         -0.2442809              -6.6472
       135                         -0.2393887              -6.5141
       136                         -0.2304667              -6.2713
       137                         -0.2141921              -5.8285
       138                         -0.2093793              -5.6975
       ...                                ...                  ...
       222                          0.6904817              18.7890
      -------------------------------------------------------------
                  HL-Gap            0.1005977 Eh            2.7374 eV

     #   Z          covCN         q      C6AA      Î±(0)
     1   6 C        2.922    -0.033    28.820     8.804
     2   6 C        2.915    -0.030    28.756     8.793
     3   6 C        2.917    -0.030    28.756     8.794
     4   6 C        2.917    -0.040    28.991     8.829
     5   6 C        2.981     0.004    27.920     8.668
     6   6 C        2.989     0.013    27.714     8.636
     7   6 C        2.921    -0.034    28.845     8.807
     8   6 C        2.914    -0.029    28.721     8.788
     9   6 C        2.923    -0.041    29.026     8.835
    10   6 C        2.966    -0.011    28.294     8.725
    11   6 C        3.824     0.034    19.986     6.362
    12   6 C        3.859     0.039    19.879     6.341
    13   6 C        2.965     0.010    27.802     8.649
    14   6 C        2.920    -0.034    28.858     8.809
    15   6 C        2.915    -0.028    28.691     8.783
    16   6 C        2.919    -0.032    28.806     8.801
    17   6 C        2.989     0.020    27.550     8.610
    18   6 C        2.987     0.018    27.605     8.619
    19   6 C        2.917    -0.034    28.837     8.806
    20   6 C        2.917    -0.028    28.705     8.786
    21   6 C        2.915    -0.029    28.719     8.788
    22   6 C        2.921    -0.032    28.796     8.800
    23   7 N        2.768    -0.113    23.460     7.194
    24   6 C        2.754     0.281    22.247     7.724
    25   6 C        3.074    -0.035    28.802     8.799
    26   6 C        3.142     0.075    26.098     8.359
    27   6 C        3.330     0.489    17.325     6.605
    28   9 F        0.791    -0.189    11.118     3.939
    29   9 F        0.791    -0.190    11.130     3.941
    30   9 F        0.791    -0.209    11.326     3.975
    31   8 O        1.729    -0.143    16.463     5.479
    32   6 C        3.081     0.083    26.060     8.369
    33   6 C        3.021    -0.054    29.324     8.883
    34   8 O        0.858    -0.386    21.412     6.204
    35   6 C        3.801     0.091    19.084     6.220
    36   6 C        2.688     0.366    20.791     7.462
    37   8 O        1.660    -0.353    19.964     6.032
    38   8 O        0.856    -0.384    21.360     6.196
    39   7 N        2.774    -0.113    23.471     7.195
    40   6 C        2.765     0.278    22.305     7.734
    41   6 C        3.072    -0.028    28.625     8.772
    42   6 C        3.138     0.083    25.936     8.335
    43   6 C        3.330     0.490    17.321     6.604
    44   9 F        0.792    -0.188    11.111     3.937
    45   9 F        0.791    -0.191    11.143     3.943
    46   9 F        0.792    -0.196    11.196     3.953
    47   8 O        1.730    -0.145    16.483     5.482
    48   6 C        3.077     0.082    26.099     8.376
    49   6 C        3.021    -0.057    29.391     8.893
    50   8 O        0.860    -0.424    22.174     6.313
    51   1 H        0.926     0.040     2.447     2.446
    52   1 H        0.926     0.037     2.484     2.464
    53   1 H        0.926     0.037     2.485     2.465
    54   1 H        0.926     0.031     2.566     2.505
    55   1 H        0.926     0.045     2.379     2.412
    56   1 H        0.926     0.049     2.330     2.387
    57   1 H        0.926     0.058     2.217     2.328
    58   1 H        0.924     0.062     2.173     2.305
    59   1 H        0.923     0.081     1.968     2.194
    60   1 H        0.926     0.036     2.506     2.475
    61   1 H        0.926     0.037     2.489     2.467
    62   1 H        0.926     0.039     2.464     2.455
    63   1 H        0.926     0.026     2.645     2.543
    64   1 H        0.926     0.031     2.573     2.508
    65   1 H        0.926     0.034     2.535     2.490
    66   1 H        0.926     0.036     2.500     2.473
    67   1 H        0.926     0.085     1.931     2.173
    68   1 H        0.927     0.071     2.077     2.253
    69   1 H        0.924     0.072     2.066     2.248
    70   1 H        0.804     0.351     0.587     1.203
    71   1 H        0.926     0.081     1.965     2.192
    72   1 H        0.927     0.071     2.071     2.250

Wiberg/Mayer (AO) data.
largest (>0.10) Wiberg bond orders for each atom

     #   Z sym  total        # sym  WBO       # sym  WBO       # sym  WBO
 ---------------------------------------------------------------------------
     1   6 C    3.991 --     2 C    1.558     6 C    1.279    51 H    0.968
                             4 C    0.118
     2   6 C    3.992 --     1 C    1.558     3 C    1.322    52 H    0.970
     3   6 C    3.990 --     4 C    1.554     2 C    1.322    53 H    0.971
     4   6 C    3.992 --     3 C    1.554     5 C    1.282    54 H    0.958
                             1 C    0.118
     5   6 C    3.988 --     4 C    1.282    10 C    1.253     6 C    1.252
     6   6 C    3.990 --     7 C    1.281     1 C    1.279     5 C    1.252
     7   6 C    3.989 --     8 C    1.549     6 C    1.281    55 H    0.967
                            10 C    0.114
     8   6 C    3.991 --     7 C    1.549     9 C    1.331    56 H    0.969
     9   6 C    3.988 --    10 C    1.517     8 C    1.331    57 H    0.960
    10   6 C    3.983 --     9 C    1.517     5 C    1.253    11 C    0.995
                             7 C    0.114
    11   6 C    3.956 --    10 C    0.995    12 C    0.954    58 H    0.946
                            39 N    0.944
    12   6 C    3.950 --    13 C    0.997    11 C    0.954    23 N    0.939
                            59 H    0.934
    13   6 C    3.981 --    14 C    1.535    18 C    1.239    12 C    0.997
                            16 C    0.114
    14   6 C    3.990 --    13 C    1.535    15 C    1.316    60 H    0.962
    15   6 C    3.992 --    16 C    1.562    14 C    1.316    61 H    0.970
    16   6 C    3.991 --    15 C    1.562    17 C    1.272    62 H    0.968
                            13 C    0.114
    17   6 C    3.990 --    22 C    1.282    16 C    1.272    18 C    1.259
    18   6 C    3.989 --    19 C    1.289    17 C    1.259    13 C    1.239
    19   6 C    3.993 --    20 C    1.551    18 C    1.289    63 H    0.966
                            22 C    0.118
    20   6 C    3.992 --    19 C    1.551    21 C    1.326    64 H    0.971
    21   6 C    3.992 --    22 C    1.554    20 C    1.326    65 H    0.971
    22   6 C    3.991 --    21 C    1.554    17 C    1.282    66 H    0.968
                            19 C    0.118
    23   7 N    3.464 --    24 C    1.210    35 C    0.990    12 C    0.939
                            34 O    0.195
    24   6 C    3.955 --    34 O    1.717    23 N    1.210    25 C    0.951
    25   6 C    3.979 --    26 C    1.525    33 C    1.275    24 C    0.951
    26   6 C    3.898 --    25 C    1.525    31 O    1.125    27 C    0.959
                            32 C    0.147
    27   6 C    3.848 --    26 C    0.959    29 F    0.958    28 F    0.954
                            30 F    0.940
    28   9 F    1.090 --    27 C    0.954
    29   9 F    1.086 --    27 C    0.958
    30   9 F    1.065 --    27 C    0.940
    31   8 O    2.479 --    32 C    1.155    26 C    1.125
    32   6 C    3.903 --    33 C    1.598    31 O    1.155    67 H    0.961
                            26 C    0.147
    33   6 C    3.980 --    32 C    1.598    25 C    1.275    68 H    0.972
    34   8 O    2.062 --    24 C    1.717    23 N    0.195
    35   6 C    3.965 --    23 N    0.990    39 N    0.965    69 H    0.947
                            36 C    0.910
    36   6 C    3.924 --    38 O    1.771    37 O    1.169    35 C    0.910
    37   8 O    2.231 --    36 C    1.169    70 H    0.851    38 O    0.183
    38   8 O    2.065 --    36 C    1.771    37 O    0.183
    39   7 N    3.473 --    40 C    1.237    35 C    0.965    11 C    0.944
                            50 O    0.197
    40   6 C    3.955 --    50 O    1.659    39 N    1.237    41 C    0.978
    41   6 C    3.980 --    42 C    1.522    49 C    1.265    40 C    0.978
    42   6 C    3.903 --    41 C    1.522    47 O    1.131    43 C    0.957
                            48 C    0.143
    43   6 C    3.853 --    44 F    0.963    42 C    0.957    45 F    0.948
                            46 F    0.948
    44   9 F    1.089 --    43 C    0.963
    45   9 F    1.084 --    43 C    0.948
    46   9 F    1.077 --    43 C    0.948
    47   8 O    2.478 --    48 C    1.150    42 C    1.131
    48   6 C    3.903 --    49 C    1.604    47 O    1.150    71 H    0.962
                            42 C    0.143
    49   6 C    3.980 --    48 C    1.604    41 C    1.265    72 H    0.971
    50   8 O    2.023 --    40 C    1.659    39 N    0.197
    51   1 H    0.998 --     1 C    0.968
    52   1 H    0.998 --     2 C    0.970
    53   1 H    0.998 --     3 C    0.971
    54   1 H    0.999 --     4 C    0.958
    55   1 H    0.997 --     7 C    0.967
    56   1 H    0.996 --     8 C    0.969
    57   1 H    0.996 --     9 C    0.960
    58   1 H    0.996 --    11 C    0.946
    59   1 H    0.993 --    12 C    0.934
    60   1 H    0.998 --    14 C    0.962
    61   1 H    0.998 --    15 C    0.970
    62   1 H    0.997 --    16 C    0.968
    63   1 H    0.999 --    19 C    0.966
    64   1 H    0.999 --    20 C    0.971
    65   1 H    0.998 --    21 C    0.971
    66   1 H    0.998 --    22 C    0.968
    67   1 H    0.991 --    32 C    0.961
    68   1 H    0.995 --    33 C    0.972
    69   1 H    0.994 --    35 C    0.947
    70   1 H    0.877 --    37 O    0.851
    71   1 H    0.992 --    48 C    0.962
    72   1 H    0.995 --    49 C    0.971
 ---------------------------------------------------------------------------

molecular dipole:
                 x           y           z       tot (Debye)
 q only:        0.930       0.487      -0.242
   full:        0.707       0.134      -0.247       1.934

           -------------------------------------------------
          | TOTAL ENERGY             -147.012702338463 Eh   |
          | GRADIENT NORM               0.000785316781 Eh/Î± |
          | HOMO-LUMO GAP               2.737401917773 eV   |
           -------------------------------------------------

 * finished run on 2022/03/17 at 00:32:40.470
