   * xtb version 6.3.3 (4ae9cef) compiled by 'conda@95abc7406d43' on 2020-10-14
          program call               : xtb acid_474.xyz --opt --chrg 0 --uhf 0 --gfn 2
          number of atoms            :                    60
          number of electrons        :                   182
          charge                     :                     0
          spin                       :                   0.0

   ID    Z sym.   atoms
    1    6 C      1-14, 16-21, 24, 25, 29-34
    2    7 N      15, 28
    3   16 S      22, 35
    4    8 O      23, 26, 27, 36
    5    1 H      37-60

          :  Hamiltonian                  GFN2-xTB          :
 * total energy  :  -100.7967503 Eh     change       -0.1644679E-08 Eh
 * total energy  :  -100.8082742 Eh     change       -0.1152397E-01 Eh
 * total energy  :  -100.8115070 Eh     change       -0.3232807E-02 Eh
 * total energy  :  -100.8123597 Eh     change       -0.8526684E-03 Eh
 * total energy  :  -100.8127662 Eh     change       -0.4064954E-03 Eh
 * total energy  :  -100.8129724 Eh     change       -0.2061517E-03 Eh
 * total energy  :  -100.8131907 Eh     change       -0.2183392E-03 Eh
 * total energy  :  -100.8134366 Eh     change       -0.2458921E-03 Eh
 * total energy  :  -100.8137650 Eh     change       -0.3284312E-03 Eh
 * total energy  :  -100.8142173 Eh     change       -0.4522542E-03 Eh
 * total energy  :  -100.8307007 Eh     change       -0.4227769E-04 Eh
 * total energy  :  -100.8307355 Eh     change       -0.3478495E-04 Eh
 * total energy  :  -100.8307587 Eh     change       -0.2325798E-04 Eh
 * total energy  :  -100.8307852 Eh     change       -0.2646202E-04 Eh
 * total energy  :  -100.8308042 Eh     change       -0.1902162E-04 Eh
 * total energy  :  -100.8307880 Eh     change        0.1626364E-04 Eh
 * total energy  :  -100.8308082 Eh     change       -0.2029111E-04 Eh
 * total energy  :  -100.8308149 Eh     change       -0.6672830E-05 Eh
 * total energy  :  -100.8308197 Eh     change       -0.4753327E-05 Eh
   *** GEOMETRY OPTIMIZATION CONVERGED AFTER 82 ITERATIONS ***

 final structure:
================
60
 xtb: 6.3.3 (4ae9cef)
C         1.56769956233753   -4.00567332772530    1.15833158846018
C         2.05634457807748   -4.75557148437051    2.21336534075492
C         2.18205648432360   -4.18766528484223    3.46899198486188
C         1.81152281837661   -2.86839262264605    3.66805239020751
C         1.31539398176915   -2.11882552128617    2.61749104741051
C         1.19915480605944   -2.68314645020836    1.35327756107263
C         0.62428002115812   -1.88567354641846    0.21304601769012
C        -0.88478099657031   -1.63990590051103    0.40135202685889
C        -1.70711177444929   -2.60191316321442   -0.41275412846708
C        -1.84603781925406   -2.42216352459810   -1.78280905825224
C        -2.56758922617261   -3.33079783964050   -2.53506296877135
C        -3.14546172963927   -4.43209711158188   -1.92668559412768
C        -3.00233564846647   -4.61896258036492   -0.56265269678749
C        -2.28683168034835   -3.70688516510280    0.19250717729092
N        -1.07568451761258   -0.26136726142562   -0.03255101591012
C        -2.32387996224665    0.28687690724497    0.08361547936449
C        -2.49819096614151    1.68242761783461   -0.35125730423857
C        -3.39282312661623    2.55489910853451    0.20096066697949
C        -3.42939114550254    3.80281343394465   -0.45080887302778
C        -2.59070878134742    3.87639548256233   -1.52053776594227
C        -2.36846683038017    5.01637230103738   -2.44709664165797
S        -1.71791667814749    2.39478342165511   -1.72925549294145
O        -3.26200301619434   -0.36165880435528    0.50186304737755
C         0.16779479024491    0.47132149812146   -0.04310259353145
C         0.21385237764037    1.45189306809749    1.14927694321856
O         0.19113231602317    2.72373049065200    0.75935275888711
O         0.23122761592206    1.10775587189024    2.29743382430458
N         1.17989091471994   -0.54306267804211    0.10962731809477
C         2.50873969725407   -0.29730184205524    0.23795513237235
C         2.87954554496763    1.14184111577961    0.20966669059374
C         3.47431513688114    1.83584842825481    1.21835757903234
C         3.75163101515825    3.17828833146191    0.87726000823979
C         3.39634338714186    3.49636652780191   -0.39544601924842
C         3.55537210428529    4.78971396543895   -1.11007632628112
S         2.69676073204037    2.13010378800878   -1.20424202069096
O         3.33064514024714   -1.17525619064476    0.38160268001358
H         1.47447662301298   -4.44791158172603    0.17699685805940
H         2.34423980706066   -5.78400561272305    2.05255931082520
H         2.57017368454531   -4.77103980541414    4.29097531867668
H         1.90808972827653   -2.42065420986493    4.64620325843180
H         1.02702861704521   -1.08995353371439    2.77752704781240
H         0.80632493257798   -2.41513612718598   -0.73260913452814
H        -1.15657066156012   -1.73087464239484    1.46170853498007
H        -1.39550398439508   -1.56258449903805   -2.25886786386539
H        -2.67769762095803   -3.17958803191085   -3.59889772924914
H        -3.70799173682648   -5.14180988243245   -2.51501818882659
H        -3.45295583963176   -5.47556633521167   -0.08378112138588
H        -2.17807201564978   -3.84947522651915    1.25744082787440
H        -3.99198603642941    2.29723247129927    1.05526738455803
H        -4.06355219548270    4.61470412291813   -0.14256594302142
H        -1.34225315882621    5.37583055862274   -2.37298226736174
H        -3.04496141909986    5.83168882399440   -2.20286506294458
H        -2.53976033972259    4.71221426331228   -3.47873336260142
H         0.29484199289141    1.03653810410883   -0.97814243382070
H         0.20253540347806    3.32382791420898    1.52342107492435
H         3.68784994313037    1.39870410558059    2.17680367509115
H         4.20575144989677    3.87834396723580    1.55562816127292
H         2.62512661927761    5.07638077821035   -1.59719097673532
H         4.32328124053043    4.70896146608686   -1.87938792231839
H         3.84709084133444    5.56905985328368   -0.41057620909209

          :  Hamiltonian                  GFN2-xTB          :
         :: total energy            -100.830819679551 Eh    ::
         :: gradient norm              0.000936310451 Eh/a0 ::
         :: HOMO-LUMO gap              3.130199562047 eV    ::
         :: SCC energy              -102.284856975321 Eh    ::
         :: -> dispersion             -0.087035109983 Eh    ::
         :: repulsion energy           1.452103048723 Eh    ::

    * Orbital Energies and Occupations

         #    Occupation            Energy/Eh            Energy/eV
      -------------------------------------------------------------
         1        2.0000           -0.7788194             -21.1928
       ...           ...                  ...                  ...
        79        2.0000           -0.4175573             -11.3623
        80        2.0000           -0.4150448             -11.2939
        81        2.0000           -0.4102904             -11.1646
        82        2.0000           -0.4095891             -11.1455
        83        2.0000           -0.4076983             -11.0940
        84        2.0000           -0.4067917             -11.0694
        85        2.0000           -0.4052357             -11.0270
        86        2.0000           -0.4014763             -10.9247
        87        2.0000           -0.3993093             -10.8658
        88        2.0000           -0.3975830             -10.8188
        89        2.0000           -0.3951084             -10.7514
        90        2.0000           -0.3928929             -10.6912
        91        2.0000           -0.3895353             -10.5998 (HOMO)
        92                         -0.2745025              -7.4696 (LUMO)
        93                         -0.2732015              -7.4342
        94                         -0.2584716              -7.0334
        95                         -0.2285145              -6.2182
        96                         -0.2266141              -6.1665
        97                         -0.2233488              -6.0776
        98                         -0.2212969              -6.0218
        99                         -0.2185232              -5.9463
       100                         -0.2174808              -5.9180
       101                         -0.2081098              -5.6630
       102                         -0.2049512              -5.5770
       ...                                ...                  ...
       178                          0.6812934              18.5389
      -------------------------------------------------------------
                  HL-Gap            0.1150327 Eh            3.1302 eV

     #   Z          covCN         q      C6AA      Î±(0)
     1   6 C        2.924    -0.029    28.727     8.790
     2   6 C        2.920    -0.026    28.647     8.777
     3   6 C        2.920    -0.028    28.711     8.787
     4   6 C        2.920    -0.025    28.638     8.776
     5   6 C        2.923    -0.031    28.785     8.798
     6   6 C        2.974     0.013    27.719     8.636
     7   6 C        3.821     0.046    19.784     6.330
     8   6 C        3.830     0.047    19.760     6.325
     9   6 C        2.975     0.013    27.720     8.636
    10   6 C        2.924    -0.031    28.768     8.796
    11   6 C        2.920    -0.027    28.674     8.781
    12   6 C        2.920    -0.029    28.717     8.788
    13   6 C        2.920    -0.025    28.633     8.775
    14   6 C        2.924    -0.028    28.709     8.787
    15   7 N        2.762    -0.121    23.624     7.219
    16   6 C        2.777     0.269    22.459     7.762
    17   6 C        2.988    -0.023    28.560     8.766
    18   6 C        3.116    -0.033    28.656     8.768
    19   6 C        3.115    -0.057    29.251     8.859
    20   6 C        2.984     0.035    27.213     8.557
    21   6 C        3.778    -0.111    22.645     6.780
    22  16 S        2.348    -0.036   142.544    20.094
    23   8 O        0.860    -0.415    21.982     6.286
    24   6 C        3.752     0.088    19.178     6.245
    25   6 C        2.689     0.350    21.053     7.509
    26   8 O        1.659    -0.362    20.133     6.057
    27   8 O        0.856    -0.384    21.360     6.196
    28   7 N        2.765    -0.111    23.416     7.187
    29   6 C        2.774     0.273    22.387     7.749
    30   6 C        2.992    -0.024    28.591     8.771
    31   6 C        3.113    -0.038    28.793     8.790
    32   6 C        3.117    -0.059    29.295     8.865
    33   6 C        2.983     0.031    27.298     8.570
    34   6 C        3.777    -0.111    22.638     6.779
    35  16 S        2.350    -0.036   142.562    20.096
    36   8 O        0.859    -0.408    21.844     6.266
    37   1 H        0.926     0.032     2.557     2.501
    38   1 H        0.926     0.036     2.502     2.474
    39   1 H        0.926     0.035     2.520     2.482
    40   1 H        0.926     0.036     2.499     2.472
    41   1 H        0.926     0.048     2.344     2.394
    42   1 H        0.923     0.054     2.268     2.355
    43   1 H        0.923     0.062     2.179     2.309
    44   1 H        0.926     0.031     2.572     2.508
    45   1 H        0.926     0.036     2.503     2.474
    46   1 H        0.926     0.036     2.498     2.472
    47   1 H        0.926     0.039     2.468     2.457
    48   1 H        0.926     0.037     2.486     2.466
    49   1 H        0.926     0.056     2.248     2.345
    50   1 H        0.926     0.043     2.405     2.425
    51   1 H        0.925     0.059     2.209     2.324
    52   1 H        0.925     0.056     2.246     2.344
    53   1 H        0.925     0.062     2.174     2.306
    54   1 H        0.923     0.078     1.999     2.211
    55   1 H        0.804     0.342     0.607     1.224
    56   1 H        0.926     0.049     2.329     2.387
    57   1 H        0.926     0.042     2.425     2.435
    58   1 H        0.925     0.058     2.228     2.334
    59   1 H        0.925     0.062     2.177     2.308
    60   1 H        0.925     0.054     2.265     2.353

Wiberg/Mayer (AO) data.
largest (>0.10) Wiberg bond orders for each atom

     #   Z sym  total        # sym  WBO       # sym  WBO       # sym  WBO
 ---------------------------------------------------------------------------
     1   6 C    3.990 --     2 C    1.441     6 C    1.416    37 H    0.969
                             4 C    0.110
     2   6 C    3.992 --     3 C    1.441     1 C    1.441    38 H    0.971
                             5 C    0.112
     3   6 C    3.991 --     2 C    1.441     4 C    1.436    39 H    0.971
                             6 C    0.109
     4   6 C    3.992 --     5 C    1.448     3 C    1.436    40 H    0.971
                             1 C    0.110
     5   6 C    3.990 --     4 C    1.448     6 C    1.409    41 H    0.964
                             2 C    0.112
     6   6 C    3.984 --     1 C    1.416     5 C    1.409     7 C    0.990
                             3 C    0.109
     7   6 C    3.959 --     6 C    0.990     8 C    0.954    42 H    0.953
                            28 N    0.952
     8   6 C    3.960 --     9 C    0.990    15 N    0.955     7 C    0.954
                            43 H    0.952
     9   6 C    3.984 --    14 C    1.414    10 C    1.411     8 C    0.990
                            12 C    0.109
    10   6 C    3.991 --    11 C    1.447     9 C    1.411    44 H    0.969
                            13 C    0.112
    11   6 C    3.992 --    10 C    1.447    12 C    1.437    45 H    0.971
                            14 C    0.111
    12   6 C    3.991 --    13 C    1.440    11 C    1.437    46 H    0.971
                             9 C    0.109
    13   6 C    3.992 --    14 C    1.443    12 C    1.440    47 H    0.971
                            10 C    0.112
    14   6 C    3.990 --    13 C    1.443     9 C    1.414    48 H    0.969
                            11 C    0.111
    15   7 N    3.436 --    16 C    1.175    24 C    0.982     8 C    0.955
                            23 O    0.177
    16   6 C    3.951 --    23 O    1.676    15 N    1.175    17 C    1.019
    17   6 C    3.941 --    18 C    1.561    22 S    1.134    16 C    1.019
                            20 C    0.106
    18   6 C    3.987 --    17 C    1.561    19 C    1.288    49 H    0.963
    19   6 C    3.984 --    20 C    1.583    18 C    1.288    50 H    0.963
    20   6 C    3.952 --    19 C    1.583    22 S    1.168    21 C    1.040
                            17 C    0.106
    21   6 C    3.993 --    20 C    1.040    52 H    0.979    53 H    0.969
                            51 H    0.967
    22  16 S    2.609 --    20 C    1.168    17 C    1.134
    23   8 O    2.027 --    16 C    1.676    15 N    0.177
    24   6 C    3.969 --    28 N    0.988    15 N    0.982    54 H    0.937
                            25 C    0.907
    25   6 C    3.918 --    27 O    1.778    26 O    1.151    24 C    0.907
    26   8 O    2.220 --    25 C    1.151    55 H    0.856    27 O    0.180
    27   8 O    2.067 --    25 C    1.778    26 O    0.180
    28   7 N    3.469 --    29 C    1.207    24 C    0.988     7 C    0.952
                            36 O    0.194
    29   6 C    3.952 --    36 O    1.690    28 N    1.207    30 C    0.974
    30   6 C    3.944 --    31 C    1.590    35 S    1.139    29 C    0.974
                            33 C    0.109
    31   6 C    3.986 --    30 C    1.590    32 C    1.269    56 H    0.963
    32   6 C    3.984 --    33 C    1.600    31 C    1.269    57 H    0.963
    33   6 C    3.950 --    32 C    1.600    35 S    1.157    34 C    1.039
                            30 C    0.109
    34   6 C    3.993 --    33 C    1.039    60 H    0.979    58 H    0.973
                            59 H    0.965
    35  16 S    2.599 --    33 C    1.157    30 C    1.139
    36   8 O    2.038 --    29 C    1.690    28 N    0.194
    37   1 H    0.999 --     1 C    0.969
    38   1 H    0.998 --     2 C    0.971
    39   1 H    0.998 --     3 C    0.971
    40   1 H    0.998 --     4 C    0.971
    41   1 H    0.998 --     5 C    0.964
    42   1 H    0.996 --     7 C    0.953
    43   1 H    0.995 --     8 C    0.952
    44   1 H    0.999 --    10 C    0.969
    45   1 H    0.998 --    11 C    0.971
    46   1 H    0.998 --    12 C    0.971
    47   1 H    0.998 --    13 C    0.971
    48   1 H    0.999 --    14 C    0.969
    49   1 H    0.997 --    18 C    0.963
    50   1 H    0.998 --    19 C    0.963
    51   1 H    0.995 --    21 C    0.967
    52   1 H    0.996 --    21 C    0.979
    53   1 H    0.995 --    21 C    0.969
    54   1 H    0.993 --    24 C    0.937
    55   1 H    0.882 --    26 O    0.856
    56   1 H    0.997 --    31 C    0.963
    57   1 H    0.998 --    32 C    0.963
    58   1 H    0.996 --    34 C    0.973
    59   1 H    0.995 --    34 C    0.965
    60   1 H    0.997 --    34 C    0.979
 ---------------------------------------------------------------------------

molecular dipole:
                 x           y           z       tot (Debye)
 q only:       -0.079       1.895      -0.997
   full:       -0.108       2.451      -0.563       6.397

           -------------------------------------------------
          | TOTAL ENERGY             -100.830819679551 Eh   |
          | GRADIENT NORM               0.000936310451 Eh/Î± |
          | HOMO-LUMO GAP               3.130199562047 eV   |
           -------------------------------------------------

 * finished run on 2022/03/17 at 01:37:36.333
