   * xtb version 6.3.3 (4ae9cef) compiled by 'conda@95abc7406d43' on 2020-10-14
          program call               : xtb acid_50.xyz --opt --chrg 0 --uhf 0 --gfn 2
          number of atoms            :                    60
          number of electrons        :                   230
          charge                     :                     0
          spin                       :                   0.0

   ID    Z sym.   atoms
    1    6 C      1, 2, 6-15, 19-22, 24-26, 28, 29, 32, 33, 37-39, 41, 42
    2    9 F      3-5, 16-18, 27, 40
    3    7 N      23, 36
    4   16 S      30, 43
    5    8 O      31, 34, 35, 44
    6    1 H      45-60

          :  Hamiltonian                  GFN2-xTB          :
 * total energy  :  -134.5912008 Eh     change       -0.1232820E-08 Eh
 * total energy  :  -134.6071390 Eh     change       -0.1593818E-01 Eh
 * total energy  :  -134.6124601 Eh     change       -0.5321076E-02 Eh
 * total energy  :  -134.6146404 Eh     change       -0.2180271E-02 Eh
 * total energy  :  -134.6161620 Eh     change       -0.1521652E-02 Eh
 * total energy  :  -134.6173103 Eh     change       -0.1148329E-02 Eh
 * total energy  :  -134.6183095 Eh     change       -0.9991205E-03 Eh
 * total energy  :  -134.6190662 Eh     change       -0.7567017E-03 Eh
 * total energy  :  -134.6196452 Eh     change       -0.5790653E-03 Eh
 * total energy  :  -134.6199538 Eh     change       -0.3085391E-03 Eh
 * total energy  :  -134.6278332 Eh     change       -0.1790895E-04 Eh
 * total energy  :  -134.6278519 Eh     change       -0.1872272E-04 Eh
 * total energy  :  -134.6278669 Eh     change       -0.1498962E-04 Eh
 * total energy  :  -134.6278803 Eh     change       -0.1338999E-04 Eh
 * total energy  :  -134.6278942 Eh     change       -0.1388460E-04 Eh
 * total energy  :  -134.6279073 Eh     change       -0.1313480E-04 Eh
 * total energy  :  -134.6279158 Eh     change       -0.8543395E-05 Eh
 * total energy  :  -134.6279215 Eh     change       -0.5671952E-05 Eh
 * total energy  :  -134.6279259 Eh     change       -0.4348145E-05 Eh
   *** GEOMETRY OPTIMIZATION CONVERGED AFTER 81 ITERATIONS ***

 final structure:
================
60
 xtb: 6.3.3 (4ae9cef)
C        -1.30138030768772   -3.19774896976610    0.75041915575601
C        -0.15830175977514   -3.62731040475708    1.62786686777698
F         1.03502376680588   -3.54273566263462    0.99089239061643
F        -0.25647294311817   -4.89876871279196    2.03202282757202
F        -0.01754697577845   -2.89684511843621    2.74652211961112
C        -2.28656923635190   -4.13220028280416    0.45572958193378
C        -3.34861244050568   -3.79508677580445   -0.36124705139752
C        -3.42608776975885   -2.52024950108515   -0.89130938939120
C        -2.44460824314783   -1.59169773854509   -0.60205754034860
C        -1.37234711970816   -1.90617826657776    0.22433197377122
C        -0.32366912046418   -0.85414010370734    0.50229618932256
C         0.57622415271999   -0.59018289614661   -0.73194878694937
C         1.91411083925225   -1.26969802383206   -0.59604038346972
C         2.34133326810559   -2.26391904909996   -1.47527933651207
C         1.47512945677124   -2.69837365600225   -2.62319248691454
F         2.03765201124407   -3.63709508296488   -3.38756820448396
F         1.14734389663776   -1.68889627101947   -3.45728148783524
F         0.29451743403807   -3.21581052478985   -2.20916213656222
C         3.56978210332000   -2.88596184359957   -1.29162202782209
C         4.38118227911063   -2.52208616195504   -0.23475892771438
C         3.96441387904317   -1.53956412774685    0.64635051666756
C         2.74071307650429   -0.92607375825110    0.46822736852492
N         0.68722647322773    0.87248581801240   -0.77120511338359
C         1.83258841602735    1.52038807534112   -1.14433633409909
C         1.91842923606640    2.96137673589940   -0.81242853969588
C         1.09200616440192    4.02315950446230   -1.07096072216192
F        -0.09247701489886    3.89303797021928   -1.69137366643489
C         1.59493168802518    5.27352692172173   -0.66391216254740
C         2.82296738115722    5.14450736683939   -0.09649456987372
S         3.37821649432524    3.52366023442664   -0.07754186499312
O         2.74360165972240    0.95111291014523   -1.70459231505405
C        -0.47075914056919    1.45211503438461   -0.14998880937116
C        -1.62694594519016    1.72349645813839   -1.16959688939212
O        -1.35622601016489    1.47516430107106   -2.44113690917609
O        -2.70035096807706    2.08783598144382   -0.79078414015840
N        -0.90416455075770    0.45194399073992    0.80018569077415
C        -1.87092156242564    0.55087247341553    1.75706192688080
C        -2.40660696916991    1.89648478972474    2.04102801917193
C        -1.79956819545073    3.09525342497881    2.30179459420604
F        -0.46088440884738    3.27427685918240    2.27098260833939
C        -2.67856765221793    4.14225145665668    2.63294212365417
C        -3.96893822136092    3.71406445582144    2.62766516385986
S        -4.11174906032403    2.05181762995782    2.24425925646110
O        -2.26980849853969   -0.43194631000583    2.34523174023318
H        -2.21952856197072   -5.12515949198957    0.87168312265491
H        -4.11059910577114   -4.52638802649176   -0.57988305551815
H        -4.25007908808342   -2.24249347101028   -1.53006274591245
H        -2.53040934330944   -0.59821637551322   -1.01383334704832
H         0.28597169585528   -1.14442432174338    1.36249871628641
H         0.04456359918579   -0.92748587515006   -1.62719661478850
H         3.88594943404133   -3.65351308832970   -1.98037369262120
H         5.33518250677643   -3.00670144239148   -0.09990672248322
H         4.59146492957641   -1.25135444539050    1.47582888863578
H         2.42512312056327   -0.15577607576013    1.15722674329351
H         1.06002288815781    6.19511007738785   -0.79448419107822
H         3.43864122026723    5.91862149416160    0.31506628641079
H        -0.22156584599019    2.39558188749965    0.34340759238021
H        -0.42730610724188    1.24444092710498   -2.60599672251544
H        -2.35235935363025    5.14040043508423    2.85750054508733
H        -4.84889955063057    4.29109664227275    2.82853087783624

          :  Hamiltonian                  GFN2-xTB          :
         :: total energy            -134.627925863228 Eh    ::
         :: gradient norm              0.000369089957 Eh/a0 ::
         :: HOMO-LUMO gap              3.026526788464 eV    ::
         :: SCC energy              -136.024698503303 Eh    ::
         :: -> dispersion             -0.095051586203 Eh    ::
         :: repulsion energy           1.393423157746 Eh    ::

    * Orbital Energies and Occupations

         #    Occupation            Energy/Eh            Energy/eV
      -------------------------------------------------------------
         1        2.0000           -0.8839979             -24.0548
       ...           ...                  ...                  ...
       103        2.0000           -0.4549057             -12.3786
       104        2.0000           -0.4516215             -12.2892
       105        2.0000           -0.4436817             -12.0732
       106        2.0000           -0.4421713             -12.0321
       107        2.0000           -0.4391381             -11.9496
       108        2.0000           -0.4366309             -11.8813
       109        2.0000           -0.4339940             -11.8096
       110        2.0000           -0.4316071             -11.7446
       111        2.0000           -0.4255936             -11.5810
       112        2.0000           -0.4228444             -11.5062
       113        2.0000           -0.4175381             -11.3618
       114        2.0000           -0.4147783             -11.2867
       115        2.0000           -0.4101225             -11.1600 (HOMO)
       116                         -0.2988997              -8.1335 (LUMO)
       117                         -0.2826387              -7.6910
       118                         -0.2701606              -7.3514
       119                         -0.2689442              -7.3183
       120                         -0.2646805              -7.2023
       121                         -0.2600544              -7.0764
       122                         -0.2569001              -6.9906
       123                         -0.2510287              -6.8308
       124                         -0.2332345              -6.3466
       125                         -0.2324152              -6.3243
       126                         -0.2146460              -5.8408
       ...                                ...                  ...
       202                          0.6776236              18.4391
      -------------------------------------------------------------
                  HL-Gap            0.1112228 Eh            3.0265 eV

     #   Z          covCN         q      C6AA      Î±(0)
     1   6 C        2.976    -0.023    28.575     8.768
     2   6 C        3.336     0.486    17.297     6.587
     3   9 F        0.791    -0.226    11.508     4.007
     4   9 F        0.792    -0.198    11.219     3.957
     5   9 F        0.791    -0.203    11.265     3.965
     6   6 C        2.924    -0.018    28.465     8.749
     7   6 C        2.920    -0.019    28.491     8.753
     8   6 C        2.919    -0.015    28.377     8.736
     9   6 C        2.927    -0.023    28.568     8.765
    10   6 C        2.970     0.021    27.532     8.607
    11   6 C        3.823     0.046    19.788     6.330
    12   6 C        3.827     0.046    19.785     6.329
    13   6 C        2.972     0.026    27.430     8.591
    14   6 C        2.977    -0.023    28.574     8.768
    15   6 C        3.336     0.486    17.290     6.586
    16   9 F        0.792    -0.195    11.187     3.951
    17   9 F        0.791    -0.213    11.368     3.983
    18   9 F        0.791    -0.221    11.459     3.999
    19   6 C        2.923    -0.017    28.426     8.743
    20   6 C        2.921    -0.017    28.443     8.746
    21   6 C        2.919    -0.013    28.344     8.730
    22   6 C        2.926    -0.018    28.468     8.750
    23   7 N        2.759    -0.135    23.928     7.265
    24   6 C        2.792     0.275    22.350     7.744
    25   6 C        2.981    -0.051    29.263     8.873
    26   6 C        3.013     0.155    24.621     8.139
    27   9 F        0.785    -0.223    11.471     4.001
    28   6 C        3.095    -0.059    29.353     8.880
    29   6 C        2.955    -0.026    28.648     8.779
    30  16 S        2.364     0.088   137.509    19.736
    31   8 O        0.859    -0.408    21.846     6.267
    32   6 C        3.758     0.073    19.405     6.280
    33   6 C        2.684     0.352    21.017     7.502
    34   8 O        1.659    -0.336    19.642     5.983
    35   8 O        0.856    -0.355    20.803     6.115
    36   7 N        2.761    -0.124    23.684     7.228
    37   6 C        2.799     0.281    22.243     7.726
    38   6 C        2.981    -0.038    28.948     8.826
    39   6 C        3.020     0.152    24.682     8.149
    40   9 F        0.785    -0.234    11.588     4.021
    41   6 C        3.098    -0.062    29.412     8.888
    42   6 C        2.956    -0.029    28.711     8.789
    43  16 S        2.375     0.105   136.834    19.688
    44   8 O        0.860    -0.412    21.926     6.278
    45   1 H        0.926     0.070     2.080     2.255
    46   1 H        0.926     0.061     2.188     2.313
    47   1 H        0.926     0.062     2.178     2.308
    48   1 H        0.926     0.048     2.347     2.396
    49   1 H        0.924     0.074     2.044     2.236
    50   1 H        0.924     0.059     2.212     2.326
    51   1 H        0.926     0.071     2.076     2.253
    52   1 H        0.926     0.062     2.175     2.306
    53   1 H        0.926     0.061     2.193     2.316
    54   1 H        0.926     0.049     2.336     2.390
    55   1 H        0.926     0.077     2.015     2.220
    56   1 H        0.926     0.077     2.012     2.218
    57   1 H        0.924     0.090     1.877     2.143
    58   1 H        0.804     0.340     0.613     1.230
    59   1 H        0.926     0.069     2.098     2.265
    60   1 H        0.926     0.074     2.038     2.232

Wiberg/Mayer (AO) data.
largest (>0.10) Wiberg bond orders for each atom

     #   Z sym  total        # sym  WBO       # sym  WBO       # sym  WBO
 ---------------------------------------------------------------------------
     1   6 C    3.970 --     6 C    1.415    10 C    1.383     2 C    0.952
                             8 C    0.106
     2   6 C    3.821 --     4 F    0.958     1 C    0.952     5 F    0.947
                             3 F    0.926
     3   9 F    1.052 --     2 C    0.926
     4   9 F    1.081 --     2 C    0.958
     5   9 F    1.078 --     2 C    0.947
     6   6 C    3.987 --     7 C    1.441     1 C    1.415    45 H    0.965
                             9 C    0.108
     7   6 C    3.988 --     6 C    1.441     8 C    1.436    46 H    0.968
                            10 C    0.108
     8   6 C    3.989 --     9 C    1.444     7 C    1.436    47 H    0.968
                             1 C    0.106
     9   6 C    3.990 --     8 C    1.444    10 C    1.414    48 H    0.963
                             6 C    0.108
    10   6 C    3.986 --     9 C    1.414     1 C    1.383    11 C    0.991
                             7 C    0.108
    11   6 C    3.965 --    10 C    0.991    36 N    0.959    49 H    0.951
                            12 C    0.949
    12   6 C    3.965 --    13 C    0.998    50 H    0.954    23 N    0.949
                            11 C    0.949
    13   6 C    3.986 --    22 C    1.406    14 C    1.387    12 C    0.998
                            20 C    0.109
    14   6 C    3.970 --    19 C    1.410    13 C    1.387    15 C    0.953
                            21 C    0.104
    15   6 C    3.821 --    16 F    0.962    14 C    0.953    17 F    0.937
                            18 F    0.930
    16   9 F    1.085 --    15 C    0.962
    17   9 F    1.066 --    15 C    0.937
    18   9 F    1.057 --    15 C    0.930
    19   6 C    3.986 --    20 C    1.445    14 C    1.410    51 H    0.965
                            22 C    0.109
    20   6 C    3.988 --    19 C    1.445    21 C    1.430    52 H    0.968
                            13 C    0.109
    21   6 C    3.989 --    22 C    1.451    20 C    1.430    53 H    0.968
                            14 C    0.104
    22   6 C    3.990 --    21 C    1.451    13 C    1.406    54 H    0.966
                            19 C    0.109
    23   7 N    3.456 --    24 C    1.179    32 C    0.997    12 C    0.949
                            31 O    0.185
    24   6 C    3.954 --    31 O    1.687    23 N    1.179    25 C    1.002
    25   6 C    3.944 --    26 C    1.494    30 S    1.167    24 C    1.002
                            29 C    0.108
    26   6 C    3.877 --    25 C    1.494    28 C    1.262    27 F    0.956
    27   9 F    1.098 --    26 C    0.956
    28   6 C    3.982 --    29 C    1.602    26 C    1.262    55 H    0.960
    29   6 C    3.954 --    28 C    1.602    30 S    1.232    56 H    0.967
                            25 C    0.108
    30  16 S    2.679 --    29 C    1.232    25 C    1.167
    31   8 O    2.040 --    24 C    1.687    23 N    0.185
    32   6 C    3.958 --    23 N    0.997    36 N    0.979    57 H    0.930
                            33 C    0.886
    33   6 C    3.924 --    35 O    1.791    34 O    1.174    32 C    0.886
    34   8 O    2.254 --    33 C    1.174    58 H    0.849    35 O    0.174
    35   8 O    2.089 --    33 C    1.791    34 O    0.174
    36   7 N    3.447 --    37 C    1.183    32 C    0.979    11 C    0.959
                            44 O    0.185
    37   6 C    3.954 --    44 O    1.681    36 N    1.183    38 C    1.009
    38   6 C    3.949 --    39 C    1.499    43 S    1.173    37 C    1.009
                            42 C    0.107
    39   6 C    3.872 --    38 C    1.499    41 C    1.268    40 F    0.943
    40   9 F    1.083 --    39 C    0.943
    41   6 C    3.982 --    42 C    1.594    39 C    1.268    59 H    0.962
    42   6 C    3.954 --    41 C    1.594    43 S    1.239    60 H    0.968
                            38 C    0.107
    43  16 S    2.690 --    42 C    1.239    38 C    1.173
    44   8 O    2.033 --    37 C    1.681    36 N    0.185
    45   1 H    0.995 --     6 C    0.965
    46   1 H    0.995 --     7 C    0.968
    47   1 H    0.995 --     8 C    0.968
    48   1 H    0.997 --     9 C    0.963
    49   1 H    0.994 --    11 C    0.951
    50   1 H    0.996 --    12 C    0.954
    51   1 H    0.995 --    19 C    0.965
    52   1 H    0.995 --    20 C    0.968
    53   1 H    0.996 --    21 C    0.968
    54   1 H    0.997 --    22 C    0.966
    55   1 H    0.993 --    28 C    0.960
    56   1 H    0.993 --    29 C    0.967
    57   1 H    0.991 --    32 C    0.930
    58   1 H    0.884 --    34 O    0.849
    59   1 H    0.995 --    41 C    0.962
    60   1 H    0.994 --    42 C    0.968
 ---------------------------------------------------------------------------

molecular dipole:
                 x           y           z       tot (Debye)
 q only:        0.456       1.513       0.504
   full:        0.776       1.942       0.347       5.389

           -------------------------------------------------
          | TOTAL ENERGY             -134.627925863228 Eh   |
          | GRADIENT NORM               0.000369089957 Eh/Î± |
          | HOMO-LUMO GAP               3.026526788464 eV   |
           -------------------------------------------------

 * finished run on 2022/03/17 at 01:47:04.433
