   * xtb version 6.3.3 (4ae9cef) compiled by 'conda@95abc7406d43' on 2020-10-14
          program call               : xtb acid_92.xyz --opt --chrg 0 --uhf 0 --gfn 2
          number of atoms            :                    66
          number of electrons        :                   206
          charge                     :                     0
          spin                       :                   0.0

   ID    Z sym.   atoms
    1    6 C      1-22, 24-28, 31, 32, 36-40
    2    7 N      23, 35
    3    8 O      29, 30, 33, 34, 41, 42
    4    1 H      43-66

          :  Hamiltonian                  GFN2-xTB          :
 * total energy  :  -115.3113153 Eh     change       -0.1369855E-08 Eh
 * total energy  :  -115.3269005 Eh     change       -0.1558527E-01 Eh
 * total energy  :  -115.3317093 Eh     change       -0.4808779E-02 Eh
 * total energy  :  -115.3332813 Eh     change       -0.1572018E-02 Eh
 * total energy  :  -115.3342099 Eh     change       -0.9285836E-03 Eh
 * total energy  :  -115.3347709 Eh     change       -0.5609426E-03 Eh
 * total energy  :  -115.3351938 Eh     change       -0.4229022E-03 Eh
 * total energy  :  -115.3355405 Eh     change       -0.3467506E-03 Eh
 * total energy  :  -115.3358469 Eh     change       -0.3063442E-03 Eh
 * total energy  :  -115.3361482 Eh     change       -0.3013399E-03 Eh
 * total energy  :  -115.3386910 Eh     change       -0.2090874E-04 Eh
 * total energy  :  -115.3387225 Eh     change       -0.3149267E-04 Eh
 * total energy  :  -115.3387518 Eh     change       -0.2925254E-04 Eh
 * total energy  :  -115.3387674 Eh     change       -0.1567467E-04 Eh
 * total energy  :  -115.3387864 Eh     change       -0.1894914E-04 Eh
 * total energy  :  -115.3387948 Eh     change       -0.8419931E-05 Eh
 * total energy  :  -115.3388030 Eh     change       -0.8174999E-05 Eh
 * total energy  :  -115.3388082 Eh     change       -0.5276109E-05 Eh
 * total energy  :  -115.3388102 Eh     change       -0.1916436E-05 Eh
   *** GEOMETRY OPTIMIZATION CONVERGED AFTER 41 ITERATIONS ***

 final structure:
================
66
 xtb: 6.3.3 (4ae9cef)
C         3.99488965647851   -2.48701700149223    1.12926128158459
C         3.88575648267183   -1.94767428660516    2.37866872526571
C         2.87307003831082   -1.01637900858386    2.64721707730393
C         2.01601047693928   -0.61459882974858    1.66106170955111
C         2.12450340850722   -1.11715573523437    0.34485067114311
C         3.11954133818576   -2.10291837887249    0.09153249515847
C         3.20968460012521   -2.69509648362549   -1.18438536543967
C         2.34729028620022   -2.33391473257332   -2.17915817095663
C         1.40323032776506   -1.32616003238741   -1.95250107846140
C         1.29706837230711   -0.70162121289235   -0.73350963896888
C         0.26530244143578    0.39041932293220   -0.60007868516749
C        -0.98206025806349   -0.09859950437985    0.17598855038655
C        -2.10756227505721   -0.42941202376745   -0.77729365568618
C        -2.96324386001597    0.56497835918365   -1.17861821754399
C        -3.99765076889824    0.30846170504093   -2.08750294648991
C        -4.15747407214296   -0.94248012833689   -2.60867021223533
C        -3.28649814296830   -1.98823693359345   -2.24044658398979
C        -2.24120581450472   -1.74169844287672   -1.30665214589284
C        -1.39063987187393   -2.81927309340936   -0.97253375503004
C        -1.55829005808071   -4.05631041783454   -1.52978980076205
C        -2.58784777204209   -4.29250567224546   -2.45115065977902
C        -3.43411729108732   -3.27766155817391   -2.79382635213170
N        -1.29117066807076    0.99187206418162    1.08794980793207
C        -2.34704322435924    0.86008030513126    1.94051917716362
C        -2.64788842883971    1.97514672634375    2.84421966837134
C        -3.76357110390682    2.10687329498258    3.63445418471821
C        -3.63396953246742    3.34200417052719    4.30144829419222
C        -2.45297574567195    3.87313517719874    3.87675285500005
O        -1.84695383116778    3.05854380123778    3.00231618471137
O        -3.02241212786733   -0.15262183128147    1.94430409171346
C        -0.33007635775081    2.05114903400451    1.03949513509245
C        -0.94179423395393    3.40261756698043    0.54935835057623
O        -0.13655845755891    4.43462950821448    0.68566541747397
O        -2.04552763685175    3.47349983823484    0.09211182014159
N         0.69377725074068    1.58184730035354    0.11744056515895
C         1.90424113496836    2.17364226785278    0.14147419300732
C         2.94604110713099    1.70116392954733   -0.77151257136664
C         4.30283009398654    1.67835242797511   -0.56984123047555
C         4.86546749549280    1.18138812761738   -1.76331525562532
C         3.81732398813910    0.96142667002407   -2.60640966989557
O         2.65688615731063    1.27033017685989   -2.01881102113744
O         2.12702963840097    3.10689767893535    0.91768265741724
H         4.75200169117832   -3.22708906058369    0.91353675950132
H         4.56066952547355   -2.24441246772276    3.16740961779724
H         2.76824319580817   -0.61855129059386    3.64560825871127
H         1.23257284663841    0.08015474659750    1.91159689682973
H         3.96712961004041   -3.44620037773846   -1.35386715385690
H         2.39675076230665   -2.80252511154146   -3.15016899086750
H         0.75295273884464   -1.02565436271830   -2.76093904618755
H        -0.04701201244043    0.69398875509087   -1.60927788101364
H        -0.74812076175434   -0.98086668400833    0.78334454689251
H        -2.85530562891030    1.56467487745022   -0.78644985236928
H        -4.65982968692967    1.11358881158186   -2.36779568628090
H        -4.95008730250421   -1.15189425824149   -3.31276864641838
H        -0.58683926407123   -2.67845657736043   -0.26717199904038
H        -0.89298746456236   -4.86283192747838   -1.25785327932453
H        -2.70590756785817   -5.27680085260945   -2.87994222108194
H        -4.23522879138492   -3.44479987040036   -3.49987882037358
H        -4.56163620985727    1.39745141189133    3.70629719377468
H        -4.32179102780239    3.77562187150615    4.99761444835793
H        -1.94990629439498    4.78994268470969    4.11438870513942
H         0.13230217400707    2.23963163257705    2.02589720422584
H         0.77957961407637    4.16333446770011    0.96197412629695
H         4.81155399643701    1.96974039417717    0.32517439541817
H         5.90321536663053    1.01916547418042   -1.96766014955207
H         3.77426572913659    0.60566156810849   -3.61683532260155

          :  Hamiltonian                  GFN2-xTB          :
         :: total energy            -115.338810163955 Eh    ::
         :: gradient norm              0.000976100337 Eh/a0 ::
         :: HOMO-LUMO gap              2.545587931330 eV    ::
         :: SCC energy              -117.062313261659 Eh    ::
         :: -> dispersion             -0.101102042024 Eh    ::
         :: repulsion energy           1.720368252487 Eh    ::

    * Orbital Energies and Occupations

         #    Occupation            Energy/Eh            Energy/eV
      -------------------------------------------------------------
         1        2.0000           -0.7670538             -20.8726
       ...           ...                  ...                  ...
        91        2.0000           -0.4336126             -11.7992
        92        2.0000           -0.4253990             -11.5757
        93        2.0000           -0.4235535             -11.5255
        94        2.0000           -0.4208382             -11.4516
        95        2.0000           -0.4169231             -11.3451
        96        2.0000           -0.4145395             -11.2802
        97        2.0000           -0.4093598             -11.1392
        98        2.0000           -0.4052110             -11.0264
        99        2.0000           -0.4027478             -10.9593
       100        2.0000           -0.3987370             -10.8502
       101        2.0000           -0.3962039             -10.7813
       102        2.0000           -0.3919122             -10.6645
       103        2.0000           -0.3754577             -10.2167 (HOMO)
       104                         -0.2819090              -7.6711 (LUMO)
       105                         -0.2780258              -7.5655
       106                         -0.2631829              -7.1616
       107                         -0.2588521              -7.0437
       108                         -0.2466078              -6.7105
       109                         -0.2443801              -6.6499
       110                         -0.2266985              -6.1688
       111                         -0.2131695              -5.8006
       112                         -0.2097289              -5.7070
       113                         -0.1909750              -5.1967
       114                         -0.1895843              -5.1589
       ...                                ...                  ...
       192                          0.7035888              19.1456
      -------------------------------------------------------------
                  HL-Gap            0.0935486 Eh            2.5456 eV

     #   Z          covCN         q      C6AA      Î±(0)
     1   6 C        2.921    -0.033    28.821     8.804
     2   6 C        2.915    -0.027    28.686     8.783
     3   6 C        2.917    -0.027    28.669     8.780
     4   6 C        2.917    -0.038    28.943     8.822
     5   6 C        2.983     0.006    27.881     8.661
     6   6 C        2.988     0.014    27.698     8.633
     7   6 C        2.921    -0.036    28.885     8.814
     8   6 C        2.914    -0.030    28.739     8.791
     9   6 C        2.924    -0.031    28.783     8.798
    10   6 C        2.966    -0.005    28.143     8.702
    11   6 C        3.817     0.041    19.872     6.344
    12   6 C        3.824     0.049    19.731     6.321
    13   6 C        2.968     0.002    27.981     8.677
    14   6 C        2.921    -0.035    28.863     8.810
    15   6 C        2.915    -0.026    28.663     8.779
    16   6 C        2.920    -0.036    28.885     8.813
    17   6 C        2.989     0.016    27.650     8.626
    18   6 C        2.983     0.010    27.789     8.647
    19   6 C        2.917    -0.035    28.872     8.811
    20   6 C        2.917    -0.030    28.740     8.791
    21   6 C        2.915    -0.030    28.757     8.794
    22   6 C        2.921    -0.034    28.843     8.807
    23   7 N        2.758    -0.109    23.385     7.182
    24   6 C        2.761     0.264    22.548     7.776
    25   6 C        3.110     0.082    26.024     8.358
    26   6 C        3.027    -0.041    29.000     8.833
    27   6 C        3.009    -0.056    29.382     8.892
    28   6 C        3.069     0.082    26.100     8.377
    29   8 O        1.729    -0.194    17.235     5.605
    30   8 O        0.860    -0.426    22.208     6.318
    31   6 C        3.757     0.082    19.264     6.258
    32   6 C        2.684     0.357    20.939     7.488
    33   8 O        1.656    -0.364    20.170     6.063
    34   8 O        0.856    -0.366    21.011     6.146
    35   7 N        2.757    -0.102    23.237     7.159
    36   6 C        2.763     0.262    22.588     7.783
    37   6 C        3.127     0.086    25.899     8.333
    38   6 C        3.026    -0.046    29.108     8.850
    39   6 C        3.015    -0.058    29.425     8.898
    40   6 C        3.079     0.079    26.149     8.383
    41   8 O        1.729    -0.174    16.924     5.555
    42   8 O        0.860    -0.470    23.128     6.448
    43   1 H        0.926     0.038     2.479     2.462
    44   1 H        0.926     0.038     2.478     2.462
    45   1 H        0.926     0.037     2.484     2.464
    46   1 H        0.926     0.029     2.596     2.520
    47   1 H        0.926     0.040     2.450     2.448
    48   1 H        0.926     0.039     2.459     2.452
    49   1 H        0.926     0.036     2.506     2.476
    50   1 H        0.923     0.059     2.217     2.328
    51   1 H        0.924     0.063     2.164     2.300
    52   1 H        0.926     0.060     2.198     2.319
    53   1 H        0.926     0.040     2.446     2.445
    54   1 H        0.926     0.036     2.505     2.475
    55   1 H        0.926     0.022     2.700     2.570
    56   1 H        0.926     0.029     2.600     2.522
    57   1 H        0.926     0.032     2.564     2.504
    58   1 H        0.926     0.034     2.525     2.485
    59   1 H        0.927     0.068     2.105     2.269
    60   1 H        0.926     0.053     2.284     2.363
    61   1 H        0.926     0.060     2.196     2.317
    62   1 H        0.922     0.070     2.085     2.258
    63   1 H        0.800     0.365     0.555     1.171
    64   1 H        0.927     0.063     2.169     2.303
    65   1 H        0.927     0.055     2.261     2.351
    66   1 H        0.926     0.061     2.186     2.312

Wiberg/Mayer (AO) data.
largest (>0.10) Wiberg bond orders for each atom

     #   Z sym  total        # sym  WBO       # sym  WBO       # sym  WBO
 ---------------------------------------------------------------------------
     1   6 C    3.991 --     2 C    1.557     6 C    1.279    43 H    0.968
                             4 C    0.118
     2   6 C    3.992 --     1 C    1.557     3 C    1.322    44 H    0.970
     3   6 C    3.992 --     4 C    1.554     2 C    1.322    45 H    0.971
     4   6 C    3.992 --     3 C    1.554     5 C    1.282    46 H    0.965
                             1 C    0.118
     5   6 C    3.989 --     4 C    1.282    10 C    1.255     6 C    1.250
     6   6 C    3.990 --     7 C    1.281     1 C    1.279     5 C    1.250
     7   6 C    3.989 --     8 C    1.550     6 C    1.281    47 H    0.968
                            10 C    0.115
     8   6 C    3.991 --     7 C    1.550     9 C    1.330    48 H    0.970
     9   6 C    3.989 --    10 C    1.516     8 C    1.330    49 H    0.967
    10   6 C    3.983 --     9 C    1.516     5 C    1.255    11 C    0.992
                             7 C    0.115
    11   6 C    3.959 --    10 C    0.992    35 N    0.957    50 H    0.951
                            12 C    0.947
    12   6 C    3.960 --    13 C    0.985    23 N    0.961    11 C    0.947
                            51 H    0.946
    13   6 C    3.982 --    14 C    1.527    18 C    1.253    12 C    0.985
                            16 C    0.114
    14   6 C    3.987 --    13 C    1.527    15 C    1.324    52 H    0.959
    15   6 C    3.992 --    16 C    1.555    14 C    1.324    53 H    0.970
    16   6 C    3.990 --    15 C    1.555    17 C    1.279    54 H    0.968
                            13 C    0.114
    17   6 C    3.990 --    22 C    1.280    16 C    1.279    18 C    1.252
    18   6 C    3.989 --    19 C    1.284    13 C    1.253    17 C    1.252
    19   6 C    3.992 --    20 C    1.554    18 C    1.284    55 H    0.962
                            22 C    0.118
    20   6 C    3.992 --    19 C    1.554    21 C    1.323    56 H    0.971
    21   6 C    3.992 --    22 C    1.556    20 C    1.323    57 H    0.971
    22   6 C    3.991 --    21 C    1.556    17 C    1.280    58 H    0.968
                            19 C    0.118
    23   7 N    3.463 --    24 C    1.185    31 C    1.004    12 C    0.961
                            30 O    0.184
    24   6 C    3.960 --    30 O    1.651    23 N    1.185    25 C    1.031
    25   6 C    3.903 --    26 C    1.525    29 O    1.094    24 C    1.031
                            28 C    0.139
    26   6 C    3.984 --    25 C    1.525    27 C    1.321    59 H    0.972
    27   6 C    3.984 --    28 C    1.584    26 C    1.321    60 H    0.973
    28   6 C    3.906 --    27 C    1.584    29 O    1.144    61 H    0.965
                            25 C    0.139
    29   8 O    2.441 --    28 C    1.144    25 C    1.094
    30   8 O    2.001 --    24 C    1.651    23 N    0.184
    31   6 C    3.957 --    23 N    1.004    35 N    0.966    62 H    0.934
                            32 C    0.885
    32   6 C    3.928 --    34 O    1.776    33 O    1.202    31 C    0.885
    33   8 O    2.239 --    32 C    1.202    63 H    0.779    34 O    0.180
    34   8 O    2.083 --    32 C    1.776    33 O    0.180
    35   7 N    3.507 --    36 C    1.260    31 C    0.966    11 C    0.957
                            42 O    0.183
    36   6 C    3.958 --    42 O    1.558    35 N    1.260    37 C    1.027
    37   6 C    3.907 --    38 C    1.525    41 O    1.105    36 C    1.027
                            40 C    0.138
    38   6 C    3.983 --    37 C    1.525    39 C    1.321    64 H    0.973
    39   6 C    3.983 --    40 C    1.581    38 C    1.321    65 H    0.973
    40   6 C    3.907 --    39 C    1.581    41 O    1.153    66 H    0.965
                            37 C    0.138
    41   8 O    2.455 --    40 C    1.153    37 C    1.105
    42   8 O    1.978 --    36 C    1.558    35 N    0.183
    43   1 H    0.998 --     1 C    0.968
    44   1 H    0.998 --     2 C    0.970
    45   1 H    0.998 --     3 C    0.971
    46   1 H    0.999 --     4 C    0.965
    47   1 H    0.997 --     7 C    0.968
    48   1 H    0.997 --     8 C    0.970
    49   1 H    0.998 --     9 C    0.967
    50   1 H    0.996 --    11 C    0.951
    51   1 H    0.995 --    12 C    0.946
    52   1 H    0.996 --    14 C    0.959
    53   1 H    0.997 --    15 C    0.970
    54   1 H    0.998 --    16 C    0.968
    55   1 H    0.999 --    19 C    0.962
    56   1 H    0.999 --    20 C    0.971
    57   1 H    0.998 --    21 C    0.971
    58   1 H    0.998 --    22 C    0.968
    59   1 H    0.995 --    26 C    0.972
    60   1 H    0.997 --    27 C    0.973
    61   1 H    0.996 --    28 C    0.965
    62   1 H    0.994 --    31 C    0.934
    63   1 H    0.867 --    33 O    0.779
    64   1 H    0.996 --    38 C    0.973
    65   1 H    0.997 --    39 C    0.973
    66   1 H    0.996 --    40 C    0.965
 ---------------------------------------------------------------------------

molecular dipole:
                 x           y           z       tot (Debye)
 q only:        1.798      -1.060      -0.545
   full:        2.221      -1.062      -0.438       6.357

           -------------------------------------------------
          | TOTAL ENERGY             -115.338810163955 Eh   |
          | GRADIENT NORM               0.000976100337 Eh/Î± |
          | HOMO-LUMO GAP               2.545587931330 eV   |
           -------------------------------------------------

 * finished run on 2022/03/17 at 02:14:49.064
