   * xtb version 6.3.3 (4ae9cef) compiled by 'conda@95abc7406d43' on 2020-10-14
          program call               : xtb acid_7.xyz --opt --chrg 0 --uhf 0 --gfn 2
          number of atoms            :                    54
          number of electrons        :                   170
          charge                     :                     0
          spin                       :                   0.0

   ID    Z sym.   atoms
    1    6 C      1-14, 16-18, 20, 21, 23, 24, 28-30, 32, 33
    2    7 N      15, 27
    3   16 S      19, 31
    4    8 O      22, 25, 26, 34
    5    1 H      35-54

          :  Hamiltonian                  GFN2-xTB          :
 * total energy  :   -94.4710499 Eh     change       -0.2675307E-08 Eh
 * total energy  :   -94.4821357 Eh     change       -0.1108577E-01 Eh
 * total energy  :   -94.4854059 Eh     change       -0.3270221E-02 Eh
 * total energy  :   -94.4861657 Eh     change       -0.7597712E-03 Eh
 * total energy  :   -94.4865011 Eh     change       -0.3354006E-03 Eh
 * total energy  :   -94.4867386 Eh     change       -0.2374523E-03 Eh
 * total energy  :   -94.4869896 Eh     change       -0.2510381E-03 Eh
 * total energy  :   -94.4872184 Eh     change       -0.2288465E-03 Eh
 * total energy  :   -94.4874002 Eh     change       -0.1818009E-03 Eh
 * total energy  :   -94.4875125 Eh     change       -0.1122689E-03 Eh
 * total energy  :   -94.4880682 Eh     change       -0.3384742E-04 Eh
 * total energy  :   -94.4880980 Eh     change       -0.2972948E-04 Eh
 * total energy  :   -94.4881097 Eh     change       -0.1174750E-04 Eh
 * total energy  :   -94.4881221 Eh     change       -0.1236017E-04 Eh
 * total energy  :   -94.4881273 Eh     change       -0.5193304E-05 Eh
 * total energy  :   -94.4881436 Eh     change       -0.1637660E-04 Eh
 * total energy  :   -94.4881512 Eh     change       -0.7506443E-05 Eh
 * total energy  :   -94.4881629 Eh     change       -0.1176742E-04 Eh
 * total energy  :   -94.4881674 Eh     change       -0.4454035E-05 Eh
   *** GEOMETRY OPTIMIZATION CONVERGED AFTER 28 ITERATIONS ***

 final structure:
================
54
 xtb: 6.3.3 (4ae9cef)
C         0.71519533572616   -3.54977602386872    1.49525314388015
C         0.75329207850823   -4.17256561634353    2.73037290290242
C         0.24125650293816   -3.53416345806852    3.84642950320106
C        -0.30821207783199   -2.26929479349221    3.72285445591736
C        -0.34428621755885   -1.64543235878257    2.48901542457089
C         0.16360900154392   -2.28329278203394    1.36345435204532
C         0.15838405208299   -1.60037766581032    0.01604049688985
C        -1.21156056160534   -1.02743207716786   -0.37393478770467
C        -1.54361235923135   -1.06605177903580   -1.84917404268407
C        -2.88048277036791   -0.95256528872543   -2.21754784896266
C        -3.24104191399710   -0.91111944882792   -3.55159550807079
C        -2.26911040939020   -0.98069245090900   -4.53603684947928
C        -0.93775687450521   -1.09214609972520   -4.17699015907658
C        -0.57325026676809   -1.13291342154014   -2.84095534495460
N        -1.09964597412631    0.36345844672332    0.06552867464935
C        -2.14739457339935    1.08051014200128    0.54444742432836
C        -1.79354337909495    2.44845617962795    1.01836953663159
C        -2.27120712690098    3.58665727246353    0.44797147297372
S        -1.69550815082006    4.99864980807757    1.23571052732674
C        -0.82035931079592    4.04950297769025    2.36900098309901
C        -0.95831407020279    2.72040198161022    2.13708125978951
O        -3.26944047022117    0.62610725727464    0.59795684532831
C         0.25491308817126    0.79257320467514   -0.12016294832894
C         0.48142343837675    1.39639280343696   -1.52622068051054
O        -0.54139001400208    2.16435261115201   -1.88856971799678
O         1.46934396395505    1.23420031730109   -2.18244522460810
N         1.02037293798959   -0.41533485199689    0.06249354780120
C         2.37565959118650   -0.54192159947312    0.02286631607527
C         3.13753496331939    0.72071615516625    0.20827206593792
C         2.99858049026870    1.55960383718800    1.27331578716636
S         4.09780302417312    2.87721704004380    1.20827589056045
C         4.75442550056942    2.29497940864848   -0.27115330119608
C         4.16508176046258    1.14434063120193   -0.67458527890589
O         2.91098978965144   -1.62215571206934   -0.10387225530707
H         1.12749995478260   -4.04309225685649    0.62824297834570
H         1.18738076787596   -5.15701053219348    2.82091004012764
H         0.27187584521833   -4.01850965608186    4.81107585277149
H        -0.70972287847191   -1.76621716332125    4.59037670410676
H        -0.77906396078822   -0.66040978469743    2.40307499625147
H         0.54049604751939   -2.30178255880167   -0.73151533511297
H        -2.02349273744703   -1.49262425293401    0.19327144063645
H        -3.63453161930365   -0.88350175369269   -1.44806780976207
H        -4.28250788274630   -0.82475016691558   -3.82300790341058
H        -2.54834902497270   -0.94886301722526   -5.57885020656413
H        -0.17262820867573   -1.14584947142350   -4.93718346643636
H         0.47393445435885   -1.21659367090583   -2.59295835191075
H        -2.91808776411088    3.67010773341152   -0.40143681366374
H        -0.25745174558758    4.53236043108812    3.14255055351921
H        -0.51389709757185    1.95818785753777    2.75368362434552
H         0.53021344020757    1.57945643223726    0.59472484728942
H        -0.39484807679323    2.54392498494416   -2.77083875636353
H         2.34682741148986    1.46165360205403    2.11960028291740
H         5.54301468024045    2.84344630731515   -0.74601275755947
H         4.42159039666660    0.60918329004742   -1.56910258281337

          :  Hamiltonian                  GFN2-xTB          :
         :: total energy             -94.488167380217 Eh    ::
         :: gradient norm              0.000748837519 Eh/a0 ::
         :: HOMO-LUMO gap              3.437081752657 eV    ::
         :: SCC energy               -95.848998170185 Eh    ::
         :: -> dispersion             -0.080083345547 Eh    ::
         :: repulsion energy           1.358155401721 Eh    ::

    * Orbital Energies and Occupations

         #    Occupation            Energy/Eh            Energy/eV
      -------------------------------------------------------------
         1        2.0000           -0.7818222             -21.2745
       ...           ...                  ...                  ...
        73        2.0000           -0.4276821             -11.6378
        74        2.0000           -0.4198645             -11.4251
        75        2.0000           -0.4163222             -11.3287
        76        2.0000           -0.4146935             -11.2844
        77        2.0000           -0.4145610             -11.2808
        78        2.0000           -0.4117934             -11.2055
        79        2.0000           -0.4109130             -11.1815
        80        2.0000           -0.4084751             -11.1152
        81        2.0000           -0.4080091             -11.1025
        82        2.0000           -0.4057049             -11.0398
        83        2.0000           -0.4038107             -10.9882
        84        2.0000           -0.3998444             -10.8803
        85        2.0000           -0.3971259             -10.8063 (HOMO)
        86                         -0.2708155              -7.3693 (LUMO)
        87                         -0.2633829              -7.1670
        88                         -0.2606707              -7.0932
        89                         -0.2404887              -6.5440
        90                         -0.2334716              -6.3531
        91                         -0.2323449              -6.3224
        92                         -0.2319124              -6.3107
        93                         -0.2289372              -6.2297
        94                         -0.2265295              -6.1642
        95                         -0.2122481              -5.7756
        96                         -0.2085537              -5.6750
       ...                                ...                  ...
       166                          0.6920241              18.8309
      -------------------------------------------------------------
                  HL-Gap            0.1263104 Eh            3.4371 eV

     #   Z          covCN         q      C6AA      Î±(0)
     1   6 C        2.924    -0.028    28.698     8.785
     2   6 C        2.920    -0.025    28.638     8.776
     3   6 C        2.920    -0.028    28.707     8.786
     4   6 C        2.919    -0.028    28.710     8.787
     5   6 C        2.924    -0.034    28.835     8.806
     6   6 C        2.973     0.003    27.951     8.672
     7   6 C        3.828     0.038    19.912     6.349
     8   6 C        3.837     0.035    19.952     6.355
     9   6 C        2.972    -0.003    28.087     8.693
    10   6 C        2.925    -0.033    28.830     8.805
    11   6 C        2.919    -0.027    28.688     8.783
    12   6 C        2.919    -0.030    28.754     8.793
    13   6 C        2.920    -0.030    28.739     8.791
    14   6 C        2.921    -0.039    28.962     8.825
    15   7 N        2.776    -0.106    23.325     7.173
    16   6 C        2.756     0.276    22.332     7.738
    17   6 C        3.173    -0.033    28.415     8.707
    18   6 C        2.943    -0.017    28.428     8.745
    19  16 S        2.309     0.012   140.570    19.955
    20   6 C        2.939    -0.024    28.601     8.771
    21   6 C        3.119    -0.049    29.035     8.825
    22   8 O        0.859    -0.418    22.046     6.295
    23   6 C        3.768     0.090    19.130     6.233
    24   6 C        2.687     0.350    21.052     7.509
    25   8 O        1.659    -0.365    20.175     6.064
    26   8 O        0.856    -0.381    21.299     6.187
    27   7 N        2.770    -0.122    23.654     7.223
    28   6 C        2.758     0.278    22.295     7.732
    29   6 C        3.171    -0.027    28.291     8.689
    30   6 C        2.942    -0.032    28.792     8.800
    31  16 S        2.305    -0.006   141.295    20.006
    32   6 C        2.940    -0.020    28.515     8.758
    33   6 C        3.119    -0.030    28.578     8.756
    34   8 O        0.859    -0.414    21.957     6.283
    35   1 H        0.926     0.047     2.363     2.404
    36   1 H        0.926     0.040     2.449     2.447
    37   1 H        0.926     0.037     2.493     2.469
    38   1 H        0.926     0.035     2.518     2.481
    39   1 H        0.926     0.027     2.629     2.535
    40   1 H        0.924     0.072     2.061     2.245
    41   1 H        0.924     0.078     2.000     2.212
    42   1 H        0.926     0.056     2.241     2.341
    43   1 H        0.926     0.039     2.465     2.455
    44   1 H        0.926     0.036     2.509     2.477
    45   1 H        0.926     0.038     2.480     2.463
    46   1 H        0.926     0.039     2.459     2.452
    47   1 H        0.927     0.057     2.231     2.336
    48   1 H        0.926     0.054     2.264     2.353
    49   1 H        0.926     0.037     2.494     2.469
    50   1 H        0.923     0.075     2.032     2.229
    51   1 H        0.804     0.345     0.599     1.216
    52   1 H        0.926     0.039     2.468     2.457
    53   1 H        0.926     0.053     2.279     2.361
    54   1 H        0.926     0.062     2.172     2.305

Wiberg/Mayer (AO) data.
largest (>0.10) Wiberg bond orders for each atom

     #   Z sym  total        # sym  WBO       # sym  WBO       # sym  WBO
 ---------------------------------------------------------------------------
     1   6 C    3.989 --     2 C    1.441     6 C    1.417    35 H    0.967
                             4 C    0.111
     2   6 C    3.992 --     3 C    1.442     1 C    1.441    36 H    0.970
                             5 C    0.112
     3   6 C    3.991 --     2 C    1.442     4 C    1.436    37 H    0.971
                             6 C    0.110
     4   6 C    3.992 --     5 C    1.448     3 C    1.436    38 H    0.971
                             1 C    0.111
     5   6 C    3.992 --     4 C    1.448     6 C    1.412    39 H    0.967
                             2 C    0.112
     6   6 C    3.985 --     1 C    1.417     5 C    1.412     7 C    0.985
                             3 C    0.110
     7   6 C    3.960 --     6 C    0.985     8 C    0.971    40 H    0.951
                            27 N    0.948
     8   6 C    3.958 --     9 C    0.983     7 C    0.971    41 H    0.953
                            15 N    0.945
     9   6 C    3.985 --    14 C    1.419    10 C    1.407     8 C    0.983
                            12 C    0.109
    10   6 C    3.989 --    11 C    1.450     9 C    1.407    42 H    0.966
                            13 C    0.113
    11   6 C    3.991 --    10 C    1.450    12 C    1.434    43 H    0.970
                            14 C    0.110
    12   6 C    3.991 --    13 C    1.444    11 C    1.434    44 H    0.971
                             9 C    0.109
    13   6 C    3.992 --    12 C    1.444    14 C    1.437    45 H    0.971
                            10 C    0.113
    14   6 C    3.991 --    13 C    1.437     9 C    1.419    46 H    0.965
                            11 C    0.110
    15   7 N    3.477 --    16 C    1.207    23 C    0.999     8 C    0.945
                            22 O    0.191
    16   6 C    3.948 --    22 O    1.691    15 N    1.207    17 C    0.960
    17   6 C    3.982 --    18 C    1.594    21 C    1.232    16 C    0.960
    18   6 C    3.952 --    17 C    1.594    19 S    1.206    47 H    0.970
                            20 C    0.111
    19  16 S    2.654 --    18 C    1.206    20 C    1.202
    20   6 C    3.951 --    21 C    1.633    19 S    1.202    48 H    0.970
                            18 C    0.111
    21   6 C    3.986 --    20 C    1.633    17 C    1.232    49 H    0.963
    22   8 O    2.021 --    16 C    1.691    15 N    0.191
    23   6 C    3.976 --    15 N    0.999    27 N    0.991    50 H    0.919
                            24 C    0.906
    24   6 C    3.918 --    26 O    1.784    25 O    1.154    23 C    0.906
    25   8 O    2.217 --    24 C    1.154    51 H    0.855    26 O    0.181
    26   8 O    2.069 --    24 C    1.784    25 O    0.181
    27   7 N    3.448 --    28 C    1.194    23 C    0.991     7 C    0.948
                            34 O    0.186
    28   6 C    3.948 --    34 O    1.695    27 N    1.194    29 C    0.970
    29   6 C    3.984 --    30 C    1.580    33 C    1.236    28 C    0.970
    30   6 C    3.949 --    29 C    1.580    31 S    1.202    52 H    0.970
                            32 C    0.115
    31  16 S    2.647 --    30 C    1.202    32 C    1.189
    32   6 C    3.949 --    33 C    1.646    31 S    1.189    53 H    0.970
                            30 C    0.115
    33   6 C    3.987 --    32 C    1.646    29 C    1.236    54 H    0.962
    34   8 O    2.026 --    28 C    1.695    27 N    0.186
    35   1 H    0.998 --     1 C    0.967
    36   1 H    0.998 --     2 C    0.970
    37   1 H    0.998 --     3 C    0.971
    38   1 H    0.998 --     4 C    0.971
    39   1 H    0.999 --     5 C    0.967
    40   1 H    0.994 --     7 C    0.951
    41   1 H    0.993 --     8 C    0.953
    42   1 H    0.997 --    10 C    0.966
    43   1 H    0.998 --    11 C    0.970
    44   1 H    0.998 --    12 C    0.971
    45   1 H    0.998 --    13 C    0.971
    46   1 H    0.998 --    14 C    0.965
    47   1 H    0.997 --    18 C    0.970
    48   1 H    0.996 --    20 C    0.970
    49   1 H    0.999 --    21 C    0.963
    50   1 H    0.994 --    23 C    0.919
    51   1 H    0.880 --    25 O    0.855
    52   1 H    0.999 --    30 C    0.970
    53   1 H    0.997 --    32 C    0.970
    54   1 H    0.996 --    33 C    0.962
 ---------------------------------------------------------------------------

molecular dipole:
                 x           y           z       tot (Debye)
 q only:       -0.238       1.019      -0.199
   full:       -0.195       0.978      -0.417       2.747

           -------------------------------------------------
          | TOTAL ENERGY              -94.488167380217 Eh   |
          | GRADIENT NORM               0.000748837519 Eh/Î± |
          | HOMO-LUMO GAP               3.437081752657 eV   |
           -------------------------------------------------

 * finished run on 2022/03/17 at 01:59:58.409
