   * xtb version 6.3.3 (4ae9cef) compiled by 'conda@95abc7406d43' on 2020-10-14
          program call               : xtb acid_425.xyz --opt --chrg 0 --uhf 0 --gfn 2
          number of atoms            :                    66
          number of electrons        :                   190
          charge                     :                     0
          spin                       :                   0.0

   ID    Z sym.   atoms
    1    8 O      1, 13, 14, 24
    2    6 C      2-9, 11, 12, 16-23, 25-38
    3    7 N      10, 15
    4    1 H      39-66

          :  Hamiltonian                  GFN2-xTB          :
 * total energy  :  -104.9345169 Eh     change       -0.8967049E-09 Eh
 * total energy  :  -104.9467598 Eh     change       -0.1224298E-01 Eh
 * total energy  :  -104.9503135 Eh     change       -0.3553681E-02 Eh
 * total energy  :  -104.9514076 Eh     change       -0.1094114E-02 Eh
 * total energy  :  -104.9520681 Eh     change       -0.6604260E-03 Eh
 * total energy  :  -104.9524743 Eh     change       -0.4061894E-03 Eh
 * total energy  :  -104.9528459 Eh     change       -0.3716837E-03 Eh
 * total energy  :  -104.9531840 Eh     change       -0.3381024E-03 Eh
 * total energy  :  -104.9534539 Eh     change       -0.2698969E-03 Eh
 * total energy  :  -104.9536320 Eh     change       -0.1780597E-03 Eh
 * total energy  :  -104.9556382 Eh     change       -0.1509356E-04 Eh
 * total energy  :  -104.9556513 Eh     change       -0.1307808E-04 Eh
 * total energy  :  -104.9556634 Eh     change       -0.1219197E-04 Eh
 * total energy  :  -104.9556569 Eh     change        0.6511815E-05 Eh
 * total energy  :  -104.9556676 Eh     change       -0.1062244E-04 Eh
 * total energy  :  -104.9556742 Eh     change       -0.6633356E-05 Eh
 * total energy  :  -104.9556680 Eh     change        0.6142984E-05 Eh
 * total energy  :  -104.9556765 Eh     change       -0.8457384E-05 Eh
 * total energy  :  -104.9556784 Eh     change       -0.1862003E-05 Eh
   *** GEOMETRY OPTIMIZATION CONVERGED AFTER 65 ITERATIONS ***

 final structure:
================
66
 xtb: 6.3.3 (4ae9cef)
O        -0.85304046643356    2.46272025771851    1.52612988680606
C        -1.32628565766992    1.49206781626822    0.97348926343259
C        -2.70915235461783    1.01145995915427    1.23631853707469
C        -3.13972468383272    0.94703877012186    2.55785893739619
C        -4.42254162438470    0.51769983901739    2.84082340239325
C        -5.28228282739977    0.16757489087880    1.81376228777771
C        -4.87506953391916    0.24973381271148    0.48759888632506
C        -5.80807011771524   -0.09545953500881   -0.63231320360889
C        -3.58333855277473    0.67491143250067    0.20969590482320
N        -0.60682440182140    0.77309507705013    0.04998756194605
C         0.80364836171067    1.05794056738992   -0.10047616964314
C         1.11398900964833    1.57256844459193   -1.51744284139913
O         1.61460136849771    0.61934955984638   -2.30208250087996
O         0.92619110897449    2.69928077112289   -1.88010102395284
N         1.44467769461860   -0.20440731227673    0.16838055030115
C         2.78449554483372   -0.43273192638345    0.19262389335333
C         3.61212442837172    0.81062012667494    0.24328317547375
C         4.45701185439138    1.11591183329828   -0.81409361710959
C         5.24138129148321    2.26077770933051   -0.78922980150856
C         6.12328910302000    2.61175405877460   -1.94825890996561
C         5.17916532179071    3.08727136334207    0.32624135449433
C         4.35749607133036    2.77488576974147    1.39443233157116
C         3.56778715120833    1.63991292502157    1.35717012086594
O         3.24481981816527   -1.55460803937222    0.19430317143699
C         0.50184543590465   -1.31036880310861    0.08679614769494
C         0.41804558660869   -2.03382427479886    1.40755164190117
C         0.22839818815724   -1.31476522757047    2.58197915572679
C         0.13574706510900   -1.97115161214094    3.79529942006777
C         0.23307760560081   -3.35162312412049    3.84728918374593
C         0.42621794402269   -4.07196923981961    2.68140029788285
C         0.51793347806318   -3.41583187963480    1.46638358752005
C        -0.84058316449652   -0.62130228049532   -0.27782924770463
C        -1.24106615994092   -0.84461091407766   -1.71835486447331
C        -1.44715045494785   -2.14697898519155   -2.15955183731896
C        -1.83091997127909   -2.39414941137878   -3.46458401331320
C        -2.01761332268367   -1.34127682375350   -4.34543168878969
C        -1.82752226920291   -0.04217577752661   -3.90941132006061
C        -1.44609545092539    0.20653592865667   -2.60105510904952
H        -2.46170906903739    1.22996218012723    3.34818066844862
H        -4.75568743623746    0.45665336448669    3.86608167842502
H        -6.28359977995052   -0.16765052851330    2.04279579812825
H        -6.58532933077872   -0.77667040876742   -0.29543251360592
H        -6.28884893738346    0.80869235335686   -1.00635581458532
H        -5.26690360726691   -0.55289922905975   -1.45811032923857
H        -3.26423284110011    0.75604853558443   -0.81848867751051
H         1.07137895989029    1.85705203774138    0.60726268357621
H         1.80055820282674    0.96658119202582   -3.18937742049322
H         4.49705269556740    0.44762312705648   -1.66224602957080
H         6.33058282932235    1.73649557316852   -2.55871448349221
H         7.06475857614389    3.03294548442277   -1.60291327497442
H         5.63320489965955    3.35823952052255   -2.57413750198268
H         5.78691736262891    3.97999627914078    0.35951126189369
H         4.32943637020567    3.42003015977890    2.25947211008417
H         2.93322955222507    1.38723028579004    2.19405684617421
H         0.82735852524908   -2.00366360490164   -0.69678929653456
H         0.15994674285246   -0.23671957637875    2.54983118955026
H        -0.00863596620605   -1.40335229714735    4.70263828237106
H         0.16516467099283   -3.86339694116389    4.79579983758854
H         0.51180310480618   -5.14789348340196    2.71823539733191
H         0.68227421072715   -3.97808730756464    0.55899500065625
H        -1.63723124429790   -1.01383084898740    0.36503663542984
H        -1.31376939439162   -2.96803097332845   -1.46996783871230
H        -1.98842278675717   -3.41019960115545   -3.79456962660426
H        -2.31610347813486   -1.53326010342568   -5.36521460012893
H        -1.98092345229758    0.78580121841967   -4.58580341702319
H        -1.31693279672764    1.22642984564403   -2.26836011642188

          :  Hamiltonian                  GFN2-xTB          :
         :: total energy            -104.955678365984 Eh    ::
         :: gradient norm              0.000861761445 Eh/a0 ::
         :: HOMO-LUMO gap              3.413844522998 eV    ::
         :: SCC energy              -106.610787890183 Eh    ::
         :: -> dispersion             -0.089863065325 Eh    ::
         :: repulsion energy           1.652119570143 Eh    ::

    * Orbital Energies and Occupations

         #    Occupation            Energy/Eh            Energy/eV
      -------------------------------------------------------------
         1        2.0000           -0.7680044             -20.8985
       ...           ...                  ...                  ...
        83        2.0000           -0.4270799             -11.6214
        84        2.0000           -0.4208819             -11.4528
        85        2.0000           -0.4195189             -11.4157
        86        2.0000           -0.4168469             -11.3430
        87        2.0000           -0.4146871             -11.2842
        88        2.0000           -0.4098009             -11.1512
        89        2.0000           -0.4080799             -11.1044
        90        2.0000           -0.4064978             -11.0614
        91        2.0000           -0.4033142             -10.9747
        92        2.0000           -0.4004640             -10.8972
        93        2.0000           -0.3988619             -10.8536
        94        2.0000           -0.3915320             -10.6541
        95        2.0000           -0.3874705             -10.5436 (HOMO)
        96                         -0.2620140              -7.1298 (LUMO)
        97                         -0.2564364              -6.9780
        98                         -0.2421273              -6.5886
        99                         -0.2390561              -6.5050
       100                         -0.2371721              -6.4538
       101                         -0.2332777              -6.3478
       102                         -0.2294690              -6.2442
       103                         -0.2277945              -6.1986
       104                         -0.2240177              -6.0958
       105                         -0.2013738              -5.4797
       106                         -0.1998773              -5.4389
       ...                                ...                  ...
       180                          0.6670738              18.1520
      -------------------------------------------------------------
                  HL-Gap            0.1254565 Eh            3.4138 eV

     #   Z          covCN         q      C6AA      Î±(0)
     1   8 O        0.859    -0.417    22.032     6.293
     2   6 C        2.768     0.272    22.397     7.751
     3   6 C        2.974    -0.017    28.418     8.744
     4   6 C        2.925    -0.025    28.621     8.773
     5   6 C        2.918    -0.028    28.705     8.786
     6   6 C        2.925    -0.036    28.888     8.814
     7   6 C        2.966     0.021    27.529     8.606
     8   6 C        3.758    -0.112    22.693     6.792
     9   6 C        2.927    -0.042    29.040     8.838
    10   7 N        2.762    -0.121    23.637     7.221
    11   6 C        3.776     0.089    19.132     6.232
    12   6 C        2.688     0.352    21.019     7.503
    13   8 O        1.659    -0.362    20.118     6.055
    14   8 O        0.856    -0.383    21.350     6.195
    15   7 N        2.766    -0.118    23.562     7.209
    16   6 C        2.764     0.273    22.384     7.748
    17   6 C        2.977    -0.022    28.560     8.766
    18   6 C        2.929    -0.035    28.883     8.814
    19   6 C        2.966     0.021    27.526     8.606
    20   6 C        3.758    -0.111    22.676     6.789
    21   6 C        2.926    -0.037    28.924     8.820
    22   6 C        2.918    -0.027    28.677     8.782
    23   6 C        2.923    -0.035    28.871     8.811
    24   8 O        0.859    -0.423    22.139     6.308
    25   6 C        3.825     0.043    19.835     6.337
    26   6 C        2.974     0.005    27.895     8.663
    27   6 C        2.924    -0.032    28.808     8.802
    28   6 C        2.919    -0.028    28.689     8.783
    29   6 C        2.920    -0.029    28.723     8.789
    30   6 C        2.920    -0.026    28.656     8.778
    31   6 C        2.924    -0.029    28.737     8.791
    32   6 C        3.830     0.037    19.939     6.353
    33   6 C        2.970     0.002    27.970     8.675
    34   6 C        2.925    -0.037    28.910     8.818
    35   6 C        2.919    -0.027    28.669     8.780
    36   6 C        2.920    -0.030    28.758     8.794
    37   6 C        2.920    -0.029    28.719     8.788
    38   6 C        2.922    -0.034    28.852     8.809
    39   1 H        0.926     0.049     2.327     2.386
    40   1 H        0.926     0.041     2.440     2.443
    41   1 H        0.926     0.038     2.469     2.457
    42   1 H        0.925     0.047     2.354     2.399
    43   1 H        0.925     0.054     2.266     2.354
    44   1 H        0.925     0.045     2.382     2.413
    45   1 H        0.926     0.039     2.468     2.457
    46   1 H        0.923     0.100     1.787     2.091
    47   1 H        0.804     0.340     0.612     1.229
    48   1 H        0.926     0.038     2.469     2.457
    49   1 H        0.925     0.045     2.379     2.412
    50   1 H        0.925     0.049     2.336     2.390
    51   1 H        0.924     0.051     2.313     2.378
    52   1 H        0.926     0.038     2.474     2.460
    53   1 H        0.926     0.041     2.440     2.443
    54   1 H        0.926     0.034     2.530     2.487
    55   1 H        0.924     0.066     2.132     2.284
    56   1 H        0.926     0.030     2.591     2.517
    57   1 H        0.926     0.036     2.503     2.474
    58   1 H        0.926     0.036     2.502     2.474
    59   1 H        0.926     0.038     2.477     2.461
    60   1 H        0.926     0.038     2.479     2.462
    61   1 H        0.924     0.058     2.228     2.334
    62   1 H        0.926     0.034     2.531     2.488
    63   1 H        0.926     0.039     2.465     2.455
    64   1 H        0.926     0.037     2.482     2.464
    65   1 H        0.926     0.038     2.474     2.460
    66   1 H        0.926     0.037     2.486     2.465

Wiberg/Mayer (AO) data.
largest (>0.10) Wiberg bond orders for each atom

     #   Z sym  total        # sym  WBO       # sym  WBO       # sym  WBO
 ---------------------------------------------------------------------------
     1   8 O    2.031 --     2 C    1.700    10 N    0.176
     2   6 C    3.941 --     1 O    1.700    10 N    1.168     3 C    0.986
     3   6 C    3.987 --     9 C    1.399     4 C    1.392     2 C    0.986
                             6 C    0.104
     4   6 C    3.989 --     5 C    1.445     3 C    1.392    39 H    0.968
                             7 C    0.106
     5   6 C    3.991 --     4 C    1.445     6 C    1.441    40 H    0.970
                             9 C    0.107
     6   6 C    3.991 --     5 C    1.441     7 C    1.407    41 H    0.969
                             3 C    0.104
     7   6 C    3.989 --     9 C    1.416     6 C    1.407     8 C    1.026
                             4 C    0.106
     8   6 C    3.995 --     7 C    1.026    42 H    0.983    44 H    0.980
                            43 H    0.966
     9   6 C    3.990 --     7 C    1.416     3 C    1.399    45 H    0.963
                             5 C    0.107
    10   7 N    3.438 --     2 C    1.168    11 C    0.980    32 C    0.974
                             1 O    0.176
    11   6 C    3.965 --    15 N    0.985    10 N    0.980    46 H    0.928
                            12 C    0.915
    12   6 C    3.918 --    14 O    1.782    13 O    1.150    11 C    0.915
    13   8 O    2.219 --    12 C    1.150    47 H    0.858    14 O    0.182
    14   8 O    2.064 --    12 C    1.782    13 O    0.182
    15   7 N    3.457 --    16 C    1.201    11 C    0.985    25 C    0.960
                            24 O    0.188
    16   6 C    3.945 --    24 O    1.696    15 N    1.201    17 C    0.963
    17   6 C    3.987 --    18 C    1.412    23 C    1.400    16 C    0.963
                            21 C    0.108
    18   6 C    3.990 --    19 C    1.413    17 C    1.412    48 H    0.968
                            22 C    0.107
    19   6 C    3.988 --    18 C    1.413    21 C    1.409    20 C    1.026
                            23 C    0.108
    20   6 C    3.995 --    19 C    1.026    49 H    0.984    50 H    0.979
                            51 H    0.967
    21   6 C    3.991 --    22 C    1.445    19 C    1.409    52 H    0.970
                            17 C    0.108
    22   6 C    3.992 --    21 C    1.445    23 C    1.440    53 H    0.970
                            18 C    0.107
    23   6 C    3.991 --    22 C    1.440    17 C    1.400    54 H    0.969
                            19 C    0.108
    24   8 O    2.018 --    16 C    1.696    15 N    0.188
    25   6 C    3.965 --    26 C    0.988    15 N    0.960    55 H    0.954
                            32 C    0.946
    26   6 C    3.986 --    31 C    1.417    27 C    1.409    25 C    0.988
                            29 C    0.109
    27   6 C    3.992 --    28 C    1.449    26 C    1.409    56 H    0.968
                            30 C    0.112
    28   6 C    3.992 --    27 C    1.449    29 C    1.435    57 H    0.971
                            31 C    0.111
    29   6 C    3.990 --    30 C    1.442    28 C    1.435    58 H    0.971
                            26 C    0.109
    30   6 C    3.992 --    29 C    1.442    31 C    1.441    59 H    0.971
                            27 C    0.112
    31   6 C    3.990 --    30 C    1.441    26 C    1.417    60 H    0.968
                            28 C    0.111
    32   6 C    3.967 --    33 C    0.988    10 N    0.974    25 C    0.946
                            61 H    0.945
    33   6 C    3.986 --    38 C    1.418    34 C    1.405    32 C    0.988
                            36 C    0.110
    34   6 C    3.991 --    35 C    1.452    33 C    1.405    62 H    0.969
                            37 C    0.112
    35   6 C    3.991 --    34 C    1.452    36 C    1.432    63 H    0.971
                            38 C    0.110
    36   6 C    3.991 --    37 C    1.445    35 C    1.432    64 H    0.971
                            33 C    0.110
    37   6 C    3.992 --    36 C    1.445    38 C    1.436    65 H    0.971
                            34 C    0.112
    38   6 C    3.991 --    37 C    1.436    33 C    1.418    66 H    0.963
                            35 C    0.110
    39   1 H    0.997 --     4 C    0.968
    40   1 H    0.998 --     5 C    0.970
    41   1 H    0.998 --     6 C    0.969
    42   1 H    0.997 --     8 C    0.983
    43   1 H    0.997 --     8 C    0.966
    44   1 H    0.998 --     8 C    0.980
    45   1 H    0.999 --     9 C    0.963
    46   1 H    0.990 --    11 C    0.928
    47   1 H    0.884 --    13 O    0.858
    48   1 H    0.998 --    18 C    0.968
    49   1 H    0.998 --    20 C    0.984
    50   1 H    0.997 --    20 C    0.979
    51   1 H    0.997 --    20 C    0.967
    52   1 H    0.998 --    21 C    0.970
    53   1 H    0.997 --    22 C    0.970
    54   1 H    0.998 --    23 C    0.969
    55   1 H    0.995 --    25 C    0.954
    56   1 H    0.999 --    27 C    0.968
    57   1 H    0.998 --    28 C    0.971
    58   1 H    0.998 --    29 C    0.971
    59   1 H    0.998 --    30 C    0.971
    60   1 H    0.999 --    31 C    0.968
    61   1 H    0.996 --    32 C    0.945
    62   1 H    0.999 --    34 C    0.969
    63   1 H    0.998 --    35 C    0.971
    64   1 H    0.998 --    36 C    0.971
    65   1 H    0.998 --    37 C    0.971
    66   1 H    0.999 --    38 C    0.963
 ---------------------------------------------------------------------------

molecular dipole:
                 x           y           z       tot (Debye)
 q only:       -1.272      -0.932      -0.938
   full:       -1.276      -0.864      -1.093       4.801

           -------------------------------------------------
          | TOTAL ENERGY             -104.955678365984 Eh   |
          | GRADIENT NORM               0.000861761445 Eh/Î± |
          | HOMO-LUMO GAP               3.413844522998 eV   |
           -------------------------------------------------

 * finished run on 2022/03/17 at 01:03:41.363
