   * xtb version 6.3.3 (4ae9cef) compiled by 'conda@95abc7406d43' on 2020-10-14
          program call               : xtb acid_40.xyz --opt --chrg 0 --uhf 0 --gfn 2
          number of atoms            :                    72
          number of electrons        :                   218
          charge                     :                     0
          spin                       :                   0.0

   ID    Z sym.   atoms
    1    6 C      1-22, 24-29, 32, 33, 37-42
    2    7 N      23, 36
    3   16 S      30, 43
    4    8 O      31, 34, 35, 44
    5    1 H      45-72

          :  Hamiltonian                  GFN2-xTB          :
 * total energy  :  -119.9726057 Eh     change       -0.3637012E-08 Eh
 * total energy  :  -119.9880834 Eh     change       -0.1547774E-01 Eh
 * total energy  :  -119.9919550 Eh     change       -0.3871587E-02 Eh
 * total energy  :  -119.9931541 Eh     change       -0.1199143E-02 Eh
 * total energy  :  -119.9940065 Eh     change       -0.8523547E-03 Eh
 * total energy  :  -119.9944748 Eh     change       -0.4682970E-03 Eh
 * total energy  :  -119.9949578 Eh     change       -0.4829950E-03 Eh
 * total energy  :  -119.9955475 Eh     change       -0.5897305E-03 Eh
 * total energy  :  -119.9962922 Eh     change       -0.7446688E-03 Eh
 * total energy  :  -119.9972000 Eh     change       -0.9078324E-03 Eh
 * total energy  :  -120.0151087 Eh     change       -0.7843541E-05 Eh
 * total energy  :  -120.0151142 Eh     change       -0.5552885E-05 Eh
 * total energy  :  -120.0151193 Eh     change       -0.5114762E-05 Eh
 * total energy  :  -120.0151254 Eh     change       -0.6038385E-05 Eh
 * total energy  :  -120.0151290 Eh     change       -0.3626447E-05 Eh
 * total energy  :  -120.0151374 Eh     change       -0.8392042E-05 Eh
 * total energy  :  -120.0151455 Eh     change       -0.8149709E-05 Eh
 * total energy  :  -120.0151511 Eh     change       -0.5620149E-05 Eh
 * total energy  :  -120.0151550 Eh     change       -0.3863872E-05 Eh
   *** GEOMETRY OPTIMIZATION CONVERGED AFTER 79 ITERATIONS ***

 final structure:
================
72
 xtb: 6.3.3 (4ae9cef)
C         1.49686412957699   -2.14040459409608    0.81349742501010
C         1.90760597771918   -3.34226597355630    1.31227483301367
C         1.50090585082044   -4.55420040742155    0.71523281232641
C         1.91109352296665   -5.81066547182377    1.20605042736172
C         1.49713484335364   -6.96526608774077    0.60265047355385
C         0.65236522603479   -6.91589126929045   -0.51726570314392
C         0.23656252764808   -5.71326550530197   -1.01611988847757
C         0.64919165454781   -4.50430273734420   -0.41866821181199
C         0.24792996113646   -3.24862258410046   -0.91699442318807
C         0.66539847563707   -2.08865677905128   -0.32301331804223
C         0.19378320027016   -0.75696926853553   -0.83957573288207
C        -0.82416565765116   -0.11251090233439    0.11922234170894
C        -2.23749269799157   -0.37453328840036   -0.32135495012322
C        -2.98082757523065   -1.35193072684989    0.28302101379279
C        -4.29011941477307   -1.64051196698990   -0.15049418700433
C        -5.07592085316855   -2.64133789343811    0.45814281548516
C        -6.34664871528942   -2.89211263685309    0.02213566623846
C        -6.88993480273782   -2.15591040265943   -1.04260217468422
C        -6.15243348106158   -1.18162369321256   -1.65510387878006
C        -4.83861310079313   -0.89842941076337   -1.22884408287344
C        -4.04769756028755    0.09821908086464   -1.83787213537482
C        -2.77914818092024    0.34864438771029   -1.40158337121003
N        -0.48763465934812    1.30643279222977    0.08206801167805
C        -1.22534072710958    2.16719242398875    0.84204884709410
C        -0.87242420458309    3.60016650687590    0.81754698275637
C        -1.10500602609546    4.45203911794543    1.85667273502835
C        -0.78281790377447    5.80422979274889    1.57867517018409
C        -0.93064796327275    6.90534168751402    2.57232419010937
C        -0.33208950894264    5.95931908643023    0.30615493705605
S        -0.28014025206825    4.47592964233262   -0.56707130160006
O        -2.17189567902693    1.78204187775442    1.49788493080298
C         0.86064680701376    1.51831533126098   -0.39055501245943
C         1.78408693231123    1.89890397594627    0.80331035757415
O         2.27630567871404    3.13605868264376    0.81080964034424
O         2.00622884998098    1.12438517839920    1.68655714753995
N         1.25406073026276    0.23794446752362   -0.92365368399907
C         2.49163546526788   -0.05837974375746   -1.39509870290049
C         3.48383163660424    1.04397510803254   -1.28442984787315
C         4.63642847574154    1.00102879411817   -0.56503992622700
C         5.42414411927718    2.17749976606450   -0.67904045608151
C         6.70973322943069    2.37336427286245    0.04926493606198
C         4.85524478229303    3.08233455363432   -1.51607406769743
S         3.35911078957432    2.53291229896744   -2.17348858828275
O         2.78295408897278   -1.14206671119552   -1.84962420480832
H         1.81453761158501   -1.21910046137154    1.28010699706543
H         2.55365464970788   -3.38088423868510    2.17767777511313
H         2.56160074948948   -5.84352687724561    2.06867304206905
H         1.81729858292254   -7.92472412745357    0.98232019642715
H         0.33506893979775   -7.83833348726223   -0.98165102582280
H        -0.41287435392251   -5.67008038669237   -1.87889981412885
H        -0.39529911779920   -3.21604466679936   -1.78534479568799
H        -0.25281955651878   -0.88563346730054   -1.83561703615953
H        -0.67948453719974   -0.49381322431643    1.13882741970900
H        -2.56919874194438   -1.91468366175763    1.10857787811027
H        -4.65313628816197   -3.20413126926593    1.27791783827206
H        -6.94396362557686   -3.65848957727322    0.49422632321108
H        -7.89664239430024   -2.36676248399034   -1.37285169240621
H        -6.56621632435810   -0.61223302709400   -2.47544449139039
H        -4.46466414955052    0.66197486376322   -2.66035699733338
H        -2.18100675222010    1.11446389118444   -1.87534354413900
H        -1.49328797023617    4.10960911136359    2.79872139487151
H        -1.96129671556966    6.96008216273982    2.91913550706305
H        -0.65343761899552    7.86049148749923    2.13455295460269
H        -0.29562941156756    6.71482594279745    3.43634710736704
H        -0.02827558395833    6.85985749924811   -0.18971969024355
H         0.88291925370465    2.29138145494698   -1.17749919324953
H         2.02104107767546    3.66570874090713    0.03716299360129
H         4.90698098524618    0.15853300850596    0.04542571682248
H         6.53784361020802    2.31722121015866    1.12317720905314
H         7.41685820799776    1.59027581034870   -0.21992165952553
H         7.14489024229507    3.34017157514246   -0.18873701568876
H         5.22229324022925    4.04742042676790   -1.80344124280348

          :  Hamiltonian                  GFN2-xTB          :
         :: total energy            -120.015155010290 Eh    ::
         :: gradient norm              0.000598614162 Eh/a0 ::
         :: HOMO-LUMO gap              2.413632617752 eV    ::
         :: SCC energy              -121.849742542188 Eh    ::
         :: -> dispersion             -0.105802334284 Eh    ::
         :: repulsion energy           1.833060512165 Eh    ::

    * Orbital Energies and Occupations

         #    Occupation            Energy/Eh            Energy/eV
      -------------------------------------------------------------
         1        2.0000           -0.7732793             -21.0420
       ...           ...                  ...                  ...
        97        2.0000           -0.4161897             -11.3251
        98        2.0000           -0.4154545             -11.3051
        99        2.0000           -0.4133778             -11.2486
       100        2.0000           -0.4113813             -11.1943
       101        2.0000           -0.4098810             -11.1534
       102        2.0000           -0.4082946             -11.1103
       103        2.0000           -0.4076685             -11.0932
       104        2.0000           -0.4017681             -10.9327
       105        2.0000           -0.4004746             -10.8975
       106        2.0000           -0.3958323             -10.7711
       107        2.0000           -0.3914708             -10.6525
       108        2.0000           -0.3791237             -10.3165
       109        2.0000           -0.3736940             -10.1687 (HOMO)
       110                         -0.2849946              -7.7551 (LUMO)
       111                         -0.2727354              -7.4215
       112                         -0.2617051              -7.1214
       113                         -0.2594824              -7.0609
       114                         -0.2549018              -6.9362
       115                         -0.2336908              -6.3591
       116                         -0.2308106              -6.2807
       117                         -0.2305253              -6.2729
       118                         -0.2244383              -6.1073
       119                         -0.2155173              -5.8645
       120                         -0.2102705              -5.7218
       ...                                ...                  ...
       214                          0.7014793              19.0882
      -------------------------------------------------------------
                  HL-Gap            0.0886994 Eh            2.4136 eV

     #   Z          covCN         q      C6AA      Î±(0)
     1   6 C        2.918    -0.034    28.835     8.806
     2   6 C        2.918    -0.032    28.790     8.799
     3   6 C        2.987     0.015    27.677     8.630
     4   6 C        2.918    -0.034    28.840     8.807
     5   6 C        2.916    -0.030    28.745     8.792
     6   6 C        2.916    -0.030    28.738     8.791
     7   6 C        2.918    -0.033    28.834     8.806
     8   6 C        2.987     0.017    27.619     8.621
     9   6 C        2.923    -0.036    28.903     8.816
    10   6 C        2.971     0.011    27.758     8.642
    11   6 C        3.823     0.047    19.762     6.326
    12   6 C        3.832     0.048    19.742     6.322
    13   6 C        2.971     0.011    27.759     8.642
    14   6 C        2.923    -0.035    28.877     8.812
    15   6 C        2.987     0.018    27.607     8.619
    16   6 C        2.918    -0.033    28.817     8.803
    17   6 C        2.916    -0.029    28.715     8.787
    18   6 C        2.916    -0.029    28.729     8.789
    19   6 C        2.918    -0.034    28.842     8.807
    20   6 C        2.988     0.014    27.687     8.631
    21   6 C        2.917    -0.033    28.828     8.805
    22   6 C        2.919    -0.032    28.793     8.799
    23   7 N        2.762    -0.118    23.566     7.210
    24   6 C        2.774     0.270    22.445     7.759
    25   6 C        2.981    -0.018    28.463     8.751
    26   6 C        3.128    -0.035    28.656     8.765
    27   6 C        3.141     0.013    27.491     8.580
    28   6 C        3.756    -0.109    22.641     6.784
    29   6 C        2.947    -0.026    28.644     8.778
    30  16 S        2.304    -0.067   143.828    20.185
    31   8 O        0.860    -0.411    21.905     6.275
    32   6 C        3.750     0.076    19.369     6.277
    33   6 C        2.687     0.347    21.111     7.519
    34   8 O        1.659    -0.357    20.031     6.042
    35   8 O        0.856    -0.349    20.695     6.099
    36   7 N        2.766    -0.110    23.392     7.183
    37   6 C        2.772     0.274    22.374     7.747
    38   6 C        2.986    -0.020    28.501     8.757
    39   6 C        3.123    -0.039    28.779     8.785
    40   6 C        3.143     0.013    27.484     8.578
    41   6 C        3.756    -0.108    22.622     6.782
    42   6 C        2.946    -0.029    28.723     8.790
    43  16 S        2.305    -0.062   143.608    20.169
    44   8 O        0.859    -0.405    21.789     6.258
    45   1 H        0.926     0.050     2.319     2.382
    46   1 H        0.926     0.038     2.472     2.459
    47   1 H        0.926     0.033     2.547     2.495
    48   1 H        0.926     0.031     2.577     2.510
    49   1 H        0.926     0.031     2.576     2.510
    50   1 H        0.926     0.032     2.552     2.498
    51   1 H        0.926     0.032     2.552     2.498
    52   1 H        0.923     0.053     2.284     2.363
    53   1 H        0.923     0.063     2.170     2.304
    54   1 H        0.926     0.038     2.477     2.461
    55   1 H        0.926     0.035     2.511     2.478
    56   1 H        0.926     0.033     2.547     2.496
    57   1 H        0.926     0.032     2.556     2.500
    58   1 H        0.926     0.033     2.545     2.495
    59   1 H        0.926     0.037     2.495     2.470
    60   1 H        0.926     0.028     2.611     2.527
    61   1 H        0.926     0.065     2.143     2.289
    62   1 H        0.925     0.059     2.209     2.324
    63   1 H        0.925     0.047     2.353     2.399
    64   1 H        0.925     0.059     2.215     2.327
    65   1 H        0.926     0.052     2.296     2.369
    66   1 H        0.923     0.056     2.243     2.342
    67   1 H        0.804     0.336     0.622     1.239
    68   1 H        0.926     0.056     2.244     2.343
    69   1 H        0.925     0.059     2.208     2.324
    70   1 H        0.925     0.057     2.232     2.336
    71   1 H        0.925     0.046     2.369     2.407
    72   1 H        0.926     0.050     2.319     2.381

Wiberg/Mayer (AO) data.
largest (>0.10) Wiberg bond orders for each atom

     #   Z sym  total        # sym  WBO       # sym  WBO       # sym  WBO
 ---------------------------------------------------------------------------
     1   6 C    3.990 --     2 C    1.567    10 C    1.291    45 H    0.963
     2   6 C    3.991 --     1 C    1.567     3 C    1.275    46 H    0.968
                             9 C    0.113
     3   6 C    3.990 --     4 C    1.283     2 C    1.275     8 C    1.251
     4   6 C    3.992 --     5 C    1.555     3 C    1.283    47 H    0.968
                             7 C    0.118
     5   6 C    3.990 --     4 C    1.555     6 C    1.322    48 H    0.971
     6   6 C    3.992 --     7 C    1.557     5 C    1.322    49 H    0.971
     7   6 C    3.989 --     6 C    1.557     8 C    1.280    50 H    0.968
                             4 C    0.118
     8   6 C    3.990 --     9 C    1.280     7 C    1.280     3 C    1.251
     9   6 C    3.989 --    10 C    1.528     8 C    1.280    51 H    0.966
                             2 C    0.113
    10   6 C    3.984 --     9 C    1.528     1 C    1.291    11 C    0.990
    11   6 C    3.956 --    10 C    0.990    12 C    0.953    52 H    0.953
                            36 N    0.951
    12   6 C    3.956 --    13 C    0.990    11 C    0.953    23 N    0.953
                            53 H    0.951
    13   6 C    3.984 --    14 C    1.526    22 C    1.293    12 C    0.990
    14   6 C    3.989 --    13 C    1.526    15 C    1.282    54 H    0.966
                            21 C    0.114
    15   6 C    3.990 --    14 C    1.282    16 C    1.279    20 C    1.251
    16   6 C    3.989 --    17 C    1.558    15 C    1.279    55 H    0.968
                            19 C    0.118
    17   6 C    3.992 --    16 C    1.558    18 C    1.321    56 H    0.971
    18   6 C    3.990 --    19 C    1.556    17 C    1.321    57 H    0.971
    19   6 C    3.992 --    18 C    1.556    20 C    1.282    58 H    0.968
                            16 C    0.118
    20   6 C    3.990 --    19 C    1.282    21 C    1.276    15 C    1.251
    21   6 C    3.991 --    22 C    1.565    20 C    1.276    59 H    0.968
                            14 C    0.114
    22   6 C    3.991 --    21 C    1.565    13 C    1.293    60 H    0.969
    23   7 N    3.445 --    24 C    1.186    32 C    0.983    12 C    0.953
                            31 O    0.181
    24   6 C    3.954 --    31 O    1.674    23 N    1.186    25 C    1.011
    25   6 C    3.942 --    26 C    1.584    30 S    1.125    24 C    1.011
                            29 C    0.112
    26   6 C    3.986 --    25 C    1.584    27 C    1.247    61 H    0.960
    27   6 C    3.987 --    29 C    1.599    26 C    1.247    28 C    1.024
    28   6 C    3.995 --    27 C    1.024    63 H    0.985    62 H    0.970
                            64 H    0.969
    29   6 C    3.941 --    27 C    1.599    30 S    1.169    65 H    0.968
                            25 C    0.112
    30  16 S    2.613 --    29 C    1.169    25 C    1.125
    31   8 O    2.033 --    24 C    1.674    23 N    0.181
    32   6 C    3.969 --    36 N    0.989    23 N    0.983    66 H    0.936
                            33 C    0.896
    33   6 C    3.923 --    35 O    1.797    34 O    1.152    32 C    0.896
    34   8 O    2.230 --    33 C    1.152    67 H    0.847    35 O    0.171
    35   8 O    2.093 --    33 C    1.797    34 O    0.171
    36   7 N    3.468 --    37 C    1.207    32 C    0.989    11 C    0.951
                            44 O    0.194
    37   6 C    3.952 --    44 O    1.691    36 N    1.207    38 C    0.973
    38   6 C    3.945 --    39 C    1.605    43 S    1.133    37 C    0.973
                            42 C    0.114
    39   6 C    3.986 --    38 C    1.605    40 C    1.235    68 H    0.962
    40   6 C    3.987 --    42 C    1.609    39 C    1.235    41 C    1.024
    41   6 C    3.995 --    40 C    1.024    71 H    0.985    70 H    0.970
                            69 H    0.969
    42   6 C    3.938 --    40 C    1.609    43 S    1.166    72 H    0.968
                            38 C    0.114
    43  16 S    2.602 --    42 C    1.166    38 C    1.133
    44   8 O    2.041 --    37 C    1.691    36 N    0.194
    45   1 H    0.997 --     1 C    0.963
    46   1 H    0.998 --     2 C    0.968
    47   1 H    0.998 --     4 C    0.968
    48   1 H    0.999 --     5 C    0.971
    49   1 H    0.999 --     6 C    0.971
    50   1 H    0.998 --     7 C    0.968
    51   1 H    0.998 --     9 C    0.966
    52   1 H    0.996 --    11 C    0.953
    53   1 H    0.995 --    12 C    0.951
    54   1 H    0.998 --    14 C    0.966
    55   1 H    0.998 --    16 C    0.968
    56   1 H    0.998 --    17 C    0.971
    57   1 H    0.999 --    18 C    0.971
    58   1 H    0.998 --    19 C    0.968
    59   1 H    0.998 --    21 C    0.968
    60   1 H    0.999 --    22 C    0.969
    61   1 H    0.996 --    26 C    0.960
    62   1 H    0.996 --    28 C    0.970
    63   1 H    0.997 --    28 C    0.985
    64   1 H    0.996 --    28 C    0.969
    65   1 H    0.997 --    29 C    0.968
    66   1 H    0.996 --    32 C    0.936
    67   1 H    0.887 --    34 O    0.847
    68   1 H    0.997 --    39 C    0.962
    69   1 H    0.996 --    41 C    0.969
    70   1 H    0.997 --    41 C    0.970
    71   1 H    0.997 --    41 C    0.985
    72   1 H    0.997 --    42 C    0.968
 ---------------------------------------------------------------------------

molecular dipole:
                 x           y           z       tot (Debye)
 q only:        0.019       1.540      -0.275
   full:        0.190       2.042      -0.208       5.238

           -------------------------------------------------
          | TOTAL ENERGY             -120.015155010290 Eh   |
          | GRADIENT NORM               0.000598614162 Eh/Î± |
          | HOMO-LUMO GAP               2.413632617752 eV   |
           -------------------------------------------------

 * finished run on 2022/03/17 at 00:44:53.146
