   * xtb version 6.3.3 (4ae9cef) compiled by 'conda@95abc7406d43' on 2020-10-14
          program call               : xtb acid_415.xyz --opt --chrg 0 --uhf 0 --gfn 2
          number of atoms            :                    74
          number of electrons        :                   218
          charge                     :                     0
          spin                       :                   0.0

   ID    Z sym.   atoms
    1    6 C      1, 3-16, 18, 20-26, 29, 30, 34-40
    2    8 O      2, 17, 27, 28, 31, 32, 41, 42
    3    7 N      19, 33
    4    1 H      43-74

          :  Hamiltonian                  GFN2-xTB          :
 * total energy  :  -123.2468962 Eh     change       -0.2487667E-08 Eh
 * total energy  :  -123.2605973 Eh     change       -0.1370113E-01 Eh
 * total energy  :  -123.2656084 Eh     change       -0.5011115E-02 Eh
 * total energy  :  -123.2678634 Eh     change       -0.2254965E-02 Eh
 * total energy  :  -123.2692943 Eh     change       -0.1430898E-02 Eh
 * total energy  :  -123.2702255 Eh     change       -0.9312442E-03 Eh
 * total energy  :  -123.2710360 Eh     change       -0.8104624E-03 Eh
 * total energy  :  -123.2717531 Eh     change       -0.7171128E-03 Eh
 * total energy  :  -123.2723255 Eh     change       -0.5724525E-03 Eh
 * total energy  :  -123.2726700 Eh     change       -0.3444177E-03 Eh
 * total energy  :  -123.2925704 Eh     change       -0.2392111E-04 Eh
 * total energy  :  -123.2925840 Eh     change       -0.1360623E-04 Eh
 * total energy  :  -123.2925965 Eh     change       -0.1249216E-04 Eh
 * total energy  :  -123.2926056 Eh     change       -0.9068428E-05 Eh
 * total energy  :  -123.2926139 Eh     change       -0.8347243E-05 Eh
 * total energy  :  -123.2926234 Eh     change       -0.9447698E-05 Eh
 * total energy  :  -123.2926332 Eh     change       -0.9820570E-05 Eh
 * total energy  :  -123.2926391 Eh     change       -0.5861261E-05 Eh
 * total energy  :  -123.2926438 Eh     change       -0.4692277E-05 Eh
   *** GEOMETRY OPTIMIZATION CONVERGED AFTER 148 ITERATIONS ***

 final structure:
================
74
 xtb: 6.3.3 (4ae9cef)
C         2.31340244683908   -2.74458709267158    1.98098831720177
O         1.63924142066530   -1.85329699807690    2.76906203742867
C         2.14991894747294   -1.56868896173546    4.05184908736650
C         3.48642789775882   -3.37662252063663    2.37912841461159
C         4.12094028245447   -4.27996338035313    1.54583907418550
C         3.59272499142353   -4.56893654057007    0.30280918121204
C         2.42790946042837   -3.94084100799927   -0.09784058492097
C         1.77085458064566   -3.03214441048750    0.72031262570253
C         0.55382950864256   -2.34861055182263    0.14282052617389
C        -0.59986064611754   -1.98810962554624    1.10397791603042
C        -1.92280886604383   -2.45798183574870    0.54967632482380
C        -2.53320128135222   -3.56838688021709    1.10635551017472
C        -3.71923818696684   -4.06757749702368    0.59754515103131
C        -4.30694356473754   -3.44267353792906   -0.48430939596221
C        -3.71614736725038   -2.32837031172114   -1.05486238021249
C        -2.52364983959642   -1.82628800492155   -0.54990778343462
O        -1.88683832854881   -0.72623127654732   -1.05577051995341
C        -2.40667552256841   -0.12347503809556   -2.21542634807298
N        -0.52440476213756   -0.53211327386391    1.22129219881147
C        -1.60181814292497    0.15042178139204    1.70212729922283
C        -1.65595643079304    1.61010007774821    1.53612159028084
C        -2.74753019161531    2.41090700852524    1.76196629350464
C        -2.36614650154128    3.73223504115155    1.43607123488392
C        -3.20834565417757    4.95693554388936    1.52128542430337
C        -1.05571783982607    3.65477081698643    1.03676083464831
C        -0.09996902503060    4.69861159387136    0.58503906751415
O        -0.62152413786573    2.37832689776298    1.09430725450250
O        -2.50583623948866   -0.42457955220878    2.28601022861686
C         0.58999504033817   -0.01790292010539    0.45469074593755
C         1.78271715209636    0.37354624476468    1.36918728866602
O         1.43568425978659    0.92538473599595    2.52961243251518
O         2.92248815593915    0.28248325148587    1.01933887485848
N         0.92770199237078   -1.07116958763597   -0.45433122853653
C         0.98197001346262   -0.96515222482711   -1.81658027463554
C         1.23485233104163    0.39006266251797   -2.33950127872338
C         2.00439470982378    1.43180644050081   -1.88454562062901
C         1.93508871480549    2.44671419894187   -2.86737979124462
C         2.60055031128986    3.77921579328018   -2.83239556615443
C         1.12497258652596    1.95018962564050   -3.85833635835647
C         0.66914357380833    2.55422415134577   -5.13804539684025
O         0.71044239826915    0.70972237697596   -3.54605342262703
O         0.87492425883762   -1.93412349288524   -2.54142353349810
H         3.12061435581249   -1.06926487547902    3.99003531056006
H         2.23392680526256   -2.47567011800059    4.65786878878814
H         1.43008756802484   -0.89540993947321    4.51464582628738
H         3.92496786151031   -3.15914383437305    3.33940630419711
H         5.03380185387958   -4.75240174510332    1.87641417584822
H         4.08429033243312   -5.27042875551197   -0.35305136004067
H         2.01768301426305   -4.14333060091660   -1.07566369404816
H         0.17627969862759   -2.97870087439771   -0.67098503272685
H        -0.45669882081143   -2.43872197450074    2.08925842623646
H        -2.06839799154825   -4.04712070308620    1.95535051134283
H        -4.18013914187686   -4.93364140424392    1.04655170521647
H        -5.23448600040802   -3.81554920829832   -0.89261565326206
H        -4.19642447200626   -1.85536980128960   -1.89642942926689
H        -1.72130071920090    0.68628849916625   -2.46196289134330
H        -2.43671091909445   -0.82861896803022   -3.05117402219567
H        -3.40537663109945    0.29020289607005   -2.04010228087226
H        -3.70105294261431    2.07351233916662    2.11220005328231
H        -4.25726116327816    4.68512152206835    1.59856154598056
H        -3.06666646111861    5.58237301334042    0.64190902456129
H        -2.93896330326539    5.54450707821735    2.39857864004476
H         0.77847438133159    4.22575456725743    0.15355475538351
H        -0.56684240303775    5.34328263183165   -0.15708214241675
H         0.21321394126953    5.32061286338313    1.42351558291219
H         0.32136421976248    0.88661621331287   -0.10641536445953
H         0.48234042568033    0.84887783225651    2.69066437472392
H         2.58932575649601    1.44836000735593   -0.98800184854474
H         1.86148989107179    4.57860626748971   -2.77694553096318
H         3.19198534078472    3.93427067432805   -3.73326332456690
H         3.25557044473735    3.84633785382098   -1.96836312125246
H         0.04305237812782    3.42692074019307   -4.95279679538217
H         1.52479700340816    2.87391986534449   -5.73072483933406
H         0.09949419078232    1.81998021897090   -5.70040114513938

          :  Hamiltonian                  GFN2-xTB          :
         :: total energy            -123.292643759836 Eh    ::
         :: gradient norm              0.000599682262 Eh/a0 ::
         :: HOMO-LUMO gap              3.048785594501 eV    ::
         :: SCC energy              -124.925979371442 Eh    ::
         :: -> dispersion             -0.100088634310 Eh    ::
         :: repulsion energy           1.629262244383 Eh    ::

    * Orbital Energies and Occupations

         #    Occupation            Energy/Eh            Energy/eV
      -------------------------------------------------------------
         1        2.0000           -0.7579496             -20.6249
       ...           ...                  ...                  ...
        97        2.0000           -0.4252389             -11.5713
        98        2.0000           -0.4238899             -11.5346
        99        2.0000           -0.4192278             -11.4078
       100        2.0000           -0.4120767             -11.2132
       101        2.0000           -0.4042552             -11.0003
       102        2.0000           -0.4000852             -10.8869
       103        2.0000           -0.3952174             -10.7544
       104        2.0000           -0.3941215             -10.7246
       105        2.0000           -0.3936895             -10.7128
       106        2.0000           -0.3858195             -10.4987
       107        2.0000           -0.3819594             -10.3936
       108        2.0000           -0.3793351             -10.3222
       109        2.0000           -0.3744134             -10.1883 (HOMO)
       110                         -0.2623726              -7.1395 (LUMO)
       111                         -0.2472849              -6.7290
       112                         -0.2421550              -6.5894
       113                         -0.2261238              -6.1531
       114                         -0.2201443              -5.9904
       115                         -0.2125373              -5.7834
       116                         -0.2109746              -5.7409
       117                         -0.1911905              -5.2026
       118                         -0.1830714              -4.9816
       119                         -0.1481496              -4.0314
       120                         -0.1447780              -3.9396
       ...                                ...                  ...
       200                          0.6806251              18.5208
      -------------------------------------------------------------
                  HL-Gap            0.1120408 Eh            3.0488 eV

     #   Z          covCN         q      C6AA      Î±(0)
     1   6 C        2.865     0.142    24.902     8.180
     2   8 O        1.704    -0.283    18.700     5.838
     3   6 C        3.642     0.039    20.268     6.472
     4   6 C        2.918    -0.063    29.572     8.918
     5   6 C        2.921    -0.030    28.743     8.792
     6   6 C        2.917    -0.038    28.952     8.823
     7   6 C        2.929    -0.033    28.824     8.805
     8   6 C        2.969    -0.021    28.518     8.759
     9   6 C        3.840     0.040    19.879     6.343
    10   6 C        3.826     0.046    19.784     6.329
    11   6 C        2.972    -0.009    28.239     8.717
    12   6 C        2.926    -0.031    28.776     8.797
    13   6 C        2.917    -0.038    28.947     8.823
    14   6 C        2.921    -0.031    28.762     8.795
    15   6 C        2.918    -0.064    29.580     8.919
    16   6 C        2.866     0.146    24.827     8.168
    17   8 O        1.705    -0.286    18.755     5.847
    18   6 C        3.643     0.046    20.138     6.451
    19   7 N        2.757    -0.111    23.430     7.189
    20   6 C        2.759     0.254    22.727     7.807
    21   6 C        3.072     0.064    26.494     8.440
    22   6 C        3.018    -0.056    29.362     8.888
    23   6 C        3.048    -0.023    28.524     8.759
    24   6 C        3.754    -0.109    22.632     6.784
    25   6 C        3.086     0.112    25.435     8.267
    26   6 C        3.753    -0.117    22.808     6.810
    27   8 O        1.728    -0.222    17.685     5.678
    28   8 O        0.860    -0.438    22.451     6.353
    29   6 C        3.768     0.072    19.408     6.279
    30   6 C        2.685     0.357    20.935     7.488
    31   8 O        1.659    -0.353    19.951     6.030
    32   8 O        0.856    -0.363    20.948     6.136
    33   7 N        2.763    -0.108    23.352     7.177
    34   6 C        2.759     0.271    22.425     7.755
    35   6 C        3.089     0.071    26.308     8.407
    36   6 C        3.016    -0.078    29.921     8.973
    37   6 C        3.052    -0.027    28.624     8.774
    38   6 C        3.754    -0.107    22.598     6.779
    39   6 C        3.097     0.107    25.519     8.279
    40   6 C        3.753    -0.117    22.791     6.808
    41   8 O        1.729    -0.180    17.013     5.569
    42   8 O        0.859    -0.415    21.991     6.287
    43   1 H        0.924     0.052     2.290     2.367
    44   1 H        0.924     0.042     2.428     2.437
    45   1 H        0.925     0.061     2.187     2.313
    46   1 H        0.926     0.042     2.421     2.433
    47   1 H        0.926     0.039     2.458     2.452
    48   1 H        0.926     0.041     2.430     2.438
    49   1 H        0.926     0.056     2.247     2.344
    50   1 H        0.924     0.083     1.946     2.182
    51   1 H        0.924     0.074     2.046     2.237
    52   1 H        0.926     0.040     2.444     2.445
    53   1 H        0.926     0.039     2.458     2.452
    54   1 H        0.926     0.038     2.476     2.461
    55   1 H        0.926     0.039     2.464     2.455
    56   1 H        0.925     0.054     2.269     2.355
    57   1 H        0.924     0.048     2.343     2.394
    58   1 H        0.924     0.036     2.502     2.474
    59   1 H        0.926     0.062     2.180     2.309
    60   1 H        0.925     0.054     2.274     2.358
    61   1 H        0.925     0.046     2.377     2.411
    62   1 H        0.925     0.051     2.308     2.376
    63   1 H        0.925     0.067     2.124     2.279
    64   1 H        0.925     0.059     2.211     2.325
    65   1 H        0.925     0.065     2.142     2.289
    66   1 H        0.924     0.084     1.943     2.180
    67   1 H        0.804     0.333     0.629     1.246
    68   1 H        0.926     0.053     2.280     2.361
    69   1 H        0.925     0.042     2.421     2.433
    70   1 H        0.925     0.047     2.359     2.402
    71   1 H        0.925     0.051     2.310     2.377
    72   1 H        0.925     0.056     2.250     2.346
    73   1 H        0.925     0.061     2.189     2.314
    74   1 H        0.925     0.067     2.122     2.278

Wiberg/Mayer (AO) data.
largest (>0.10) Wiberg bond orders for each atom

     #   Z sym  total        # sym  WBO       # sym  WBO       # sym  WBO
 ---------------------------------------------------------------------------
     1   6 C    3.932 --     4 C    1.379     8 C    1.335     2 O    1.048
     2   8 O    2.229 --     1 C    1.048     3 C    0.979
     3   6 C    3.941 --     2 O    0.979    45 H    0.978    44 H    0.976
                            43 H    0.976
     4   6 C    3.987 --     5 C    1.439     1 C    1.379    46 H    0.965
                             7 C    0.104
     5   6 C    3.990 --     6 C    1.439     4 C    1.439    47 H    0.971
                             8 C    0.107
     6   6 C    3.991 --     5 C    1.439     7 C    1.433    48 H    0.970
     7   6 C    3.988 --     6 C    1.433     8 C    1.429    49 H    0.966
                             4 C    0.104
     8   6 C    3.981 --     7 C    1.429     1 C    1.335     9 C    0.988
                             5 C    0.107
     9   6 C    3.960 --     8 C    0.988    10 C    0.958    33 N    0.953
                            50 H    0.948
    10   6 C    3.962 --    11 C    0.991     9 C    0.958    19 N    0.955
                            51 H    0.951
    11   6 C    3.983 --    12 C    1.435    16 C    1.327    10 C    0.991
                            14 C    0.107
    12   6 C    3.989 --    11 C    1.435    13 C    1.426    52 H    0.967
                            15 C    0.102
    13   6 C    3.991 --    14 C    1.444    12 C    1.426    53 H    0.971
    14   6 C    3.990 --    13 C    1.444    15 C    1.433    54 H    0.971
                            11 C    0.107
    15   6 C    3.988 --    14 C    1.433    16 C    1.385    55 H    0.965
                            12 C    0.102
    16   6 C    3.932 --    15 C    1.385    11 C    1.327    17 O    1.050
    17   8 O    2.216 --    16 C    1.050    18 C    0.983
    18   6 C    3.945 --    17 O    0.983    56 H    0.979    58 H    0.977
                            57 H    0.976
    19   7 N    3.472 --    20 C    1.196    29 C    0.980    10 C    0.955
                            28 O    0.186
    20   6 C    3.960 --    28 O    1.634    19 N    1.196    21 C    1.029
    21   6 C    3.898 --    22 C    1.524    27 O    1.076    20 C    1.029
                            25 C    0.134
    22   6 C    3.983 --    21 C    1.524    23 C    1.299    59 H    0.971
    23   6 C    3.981 --    25 C    1.517    22 C    1.299    24 C    1.031
    24   6 C    3.995 --    23 C    1.031    60 H    0.984    61 H    0.977
                            62 H    0.970
    25   6 C    3.906 --    23 C    1.517    27 O    1.111    26 C    1.032
                            21 C    0.134
    26   6 C    3.992 --    25 C    1.032    63 H    0.981    64 H    0.971
                            65 H    0.964
    27   8 O    2.405 --    25 C    1.111    21 C    1.076
    28   8 O    1.988 --    20 C    1.634    19 N    0.186
    29   6 C    3.967 --    33 N    1.000    19 N    0.980    66 H    0.917
                            30 C    0.903
    30   6 C    3.923 --    32 O    1.789    31 O    1.152    29 C    0.903
    31   8 O    2.226 --    30 C    1.152    67 H    0.851    32 O    0.166
    32   8 O    2.078 --    30 C    1.789    31 O    0.166
    33   7 N    3.457 --    34 C    1.181    29 C    1.000     9 C    0.953
                            42 O    0.182
    34   6 C    3.954 --    42 O    1.674    33 N    1.181    35 C    1.009
    35   6 C    3.905 --    36 C    1.519    41 O    1.106    34 C    1.009
                            39 C    0.134
    36   6 C    3.982 --    35 C    1.519    37 C    1.299    68 H    0.968
    37   6 C    3.980 --    39 C    1.513    36 C    1.299    38 C    1.030
    38   6 C    3.996 --    37 C    1.030    71 H    0.985    70 H    0.975
                            69 H    0.973
    39   6 C    3.907 --    37 C    1.513    41 O    1.130    40 C    1.030
                            35 C    0.134
    40   6 C    3.993 --    39 C    1.030    74 H    0.982    73 H    0.969
                            72 H    0.969
    41   8 O    2.444 --    39 C    1.130    35 C    1.106
    42   8 O    2.018 --    34 C    1.674    33 N    0.182
    43   1 H    0.997 --     3 C    0.976
    44   1 H    0.998 --     3 C    0.976
    45   1 H    0.996 --     3 C    0.978
    46   1 H    0.998 --     4 C    0.965
    47   1 H    0.998 --     5 C    0.971
    48   1 H    0.998 --     6 C    0.970
    49   1 H    0.996 --     7 C    0.966
    50   1 H    0.992 --     9 C    0.948
    51   1 H    0.993 --    10 C    0.951
    52   1 H    0.998 --    12 C    0.967
    53   1 H    0.998 --    13 C    0.971
    54   1 H    0.998 --    14 C    0.971
    55   1 H    0.998 --    15 C    0.965
    56   1 H    0.997 --    18 C    0.979
    57   1 H    0.998 --    18 C    0.976
    58   1 H    0.999 --    18 C    0.977
    59   1 H    0.996 --    22 C    0.971
    60   1 H    0.997 --    24 C    0.984
    61   1 H    0.998 --    24 C    0.977
    62   1 H    0.997 --    24 C    0.970
    63   1 H    0.995 --    26 C    0.981
    64   1 H    0.995 --    26 C    0.971
    65   1 H    0.994 --    26 C    0.964
    66   1 H    0.993 --    29 C    0.917
    67   1 H    0.889 --    31 O    0.851
    68   1 H    0.997 --    36 C    0.968
    69   1 H    0.998 --    38 C    0.973
    70   1 H    0.997 --    38 C    0.975
    71   1 H    0.997 --    38 C    0.985
    72   1 H    0.995 --    40 C    0.969
    73   1 H    0.994 --    40 C    0.969
    74   1 H    0.995 --    40 C    0.982
 ---------------------------------------------------------------------------

molecular dipole:
                 x           y           z       tot (Debye)
 q only:       -0.362       1.890       0.118
   full:       -0.609       2.291       0.049       6.027

           -------------------------------------------------
          | TOTAL ENERGY             -123.292643759836 Eh   |
          | GRADIENT NORM               0.000599682262 Eh/Î± |
          | HOMO-LUMO GAP               3.048785594501 eV   |
           -------------------------------------------------

 * finished run on 2022/03/17 at 00:56:25.562
