   * xtb version 6.3.3 (4ae9cef) compiled by 'conda@95abc7406d43' on 2020-10-14
          program call               : xtb acid_258.xyz --opt --chrg 0 --uhf 0 --gfn 2
          number of atoms            :                    62
          number of electrons        :                   194
          charge                     :                     0
          spin                       :                   0.0

   ID    Z sym.   atoms
    1    6 C      1-14, 16-22, 24, 26, 27, 31-35, 37-39
    2    7 N      15, 23, 30, 36
    3    8 O      25, 28, 29, 40
    4    1 H      41-62

          :  Hamiltonian                  GFN2-xTB          :
 * total energy  :  -107.6291862 Eh     change       -0.6298976E-08 Eh
 * total energy  :  -107.6421743 Eh     change       -0.1298807E-01 Eh
 * total energy  :  -107.6454320 Eh     change       -0.3257724E-02 Eh
 * total energy  :  -107.6462243 Eh     change       -0.7923237E-03 Eh
 * total energy  :  -107.6463432 Eh     change       -0.1188183E-03 Eh
 * total energy  :  -107.6467336 Eh     change       -0.3903937E-03 Eh
 * total energy  :  -107.6468678 Eh     change       -0.1342745E-03 Eh
 * total energy  :  -107.6470734 Eh     change       -0.2055673E-03 Eh
 * total energy  :  -107.6472780 Eh     change       -0.2046134E-03 Eh
 * total energy  :  -107.6475309 Eh     change       -0.2528924E-03 Eh
 * total energy  :  -107.6512008 Eh     change       -0.1295605E-04 Eh
 * total energy  :  -107.6512172 Eh     change       -0.1635307E-04 Eh
 * total energy  :  -107.6512286 Eh     change       -0.1146247E-04 Eh
 * total energy  :  -107.6512371 Eh     change       -0.8420635E-05 Eh
 * total energy  :  -107.6512430 Eh     change       -0.5951356E-05 Eh
 * total energy  :  -107.6512479 Eh     change       -0.4847181E-05 Eh
 * total energy  :  -107.6512529 Eh     change       -0.5015203E-05 Eh
 * total energy  :  -107.6512585 Eh     change       -0.5638379E-05 Eh
 * total energy  :  -107.6512634 Eh     change       -0.4869128E-05 Eh
   *** GEOMETRY OPTIMIZATION CONVERGED AFTER 84 ITERATIONS ***

 final structure:
================
62
 xtb: 6.3.3 (4ae9cef)
C        -2.57783634161745   -2.49918910246272   -1.13090548440675
C        -3.42004284911247   -3.17605662446900   -1.99692904619437
C        -2.91877337565570   -4.16045913823007   -2.82969358751026
C        -1.57170493460389   -4.47855376594307   -2.77985099030090
C        -0.72892705860396   -3.80136486469147   -1.91767020964497
C        -1.22138994495824   -2.79200221257502   -1.09811706926660
C        -0.28160385049974   -2.06745225384660   -0.16307373198435
C         1.00076705000965   -1.53816432974108   -0.86464205691219
C         2.25747911917962   -1.90204115898529   -0.11700937211899
C         3.20331766034999   -2.74045232548986   -0.68713336920348
C         4.34960947137472   -3.07701842521808    0.01084329651521
C         4.56027631825989   -2.57640482960014    1.28366970527622
C         3.62067367273502   -1.73681752929387    1.85766062592411
C         2.47451281883786   -1.40192580513516    1.16121246494740
N         0.80850107497360   -0.09045233129530   -0.86910685591728
C         1.72956810076314    0.77259557023315   -1.36667774742615
C         1.34853795051518    2.21342234933990   -1.17587333079154
C         1.06826346532408    3.02342963767123   -2.26893781249423
C         0.68660213631344    4.34309933397325   -2.08014849581925
C         0.57675705774344    4.86487808507664   -0.80520392274399
C         0.88034837664774    4.06034411911295    0.29368681041944
C         0.75669133191705    4.56097049526373    1.61055181847994
N         0.63958745130341    4.93604869294057    2.68729955487945
C         1.27683074824174    2.73712149296107    0.10767555440225
O         2.76001951520442    0.41330806168494   -1.88804420527152
C        -0.51605584553189    0.24248703046087   -0.41570038559247
C        -1.51983459534119    0.36766655385491   -1.58520789074181
O        -1.00289991846249   -0.01413521010269   -2.74365841386040
O        -2.63797111579230    0.77758770156963   -1.44652443818859
N        -0.87563606532110   -0.87096244663918    0.41869440809423
C        -1.17058008533428   -0.82527205481715    1.75635872000044
C        -1.43061453266128    0.52742183522013    2.33129259005027
C        -2.26032096943975    1.46784456356612    1.73333697069139
C        -2.39854402713267    2.72702880151764    2.31782467988143
C        -3.19134684828331    3.70767029048540    1.67511862545690
N        -3.81161807976720    4.51046880614366    1.14240034884627
C        -1.73578577006319    3.03884013580810    3.50532256257932
C        -0.94562272215262    2.08104338240569    4.11317185480681
C        -0.79291157637669    0.83381983659253    3.53289153252742
O        -1.18222349620841   -1.83271462202056    2.42911369241172
H        -2.98572562806217   -1.74788816343106   -0.47185122410907
H        -4.47180290222213   -2.93274823784651   -2.01400375809088
H        -3.57612009166806   -4.68705111262345   -3.50503899755287
H        -1.17619894218700   -5.25993213201162   -3.41145891178797
H         0.31652951090074   -4.06844700702407   -1.86959687367337
H        -0.02358982011313   -2.74048815583966    0.66464681839061
H         1.06373176727157   -1.89557701362316   -1.89799743357567
H         3.04778781346725   -3.12156919601784   -1.68565005827937
H         5.08238448152378   -3.72726977872269   -0.44307004422565
H         5.45640841038476   -2.83604681897739    1.82705054236228
H         3.78144502595487   -1.34130630585670    2.84967187663232
H         1.74326926504778   -0.74681161419968    1.61517324862404
H         1.14829886196065    2.61217155447727   -3.26366624527205
H         0.46612461923470    4.96586952153035   -2.93359038290739
H         0.26213808894165    5.88547212985391   -0.64884687466545
H         1.53044705784738    2.12816613301360    0.96507004585623
H        -0.54770224149737    1.18592481870334    0.13941282156243
H        -1.65832110873795    0.04959878932688   -3.45813196317151
H        -2.80596863546878    1.23884395499718    0.82943732172768
H        -1.84336446529836    4.02166165492263    3.93693174174066
H        -0.44021042987981    2.31136578256845    5.03801398439013
H        -0.17565995417007    0.08040345146235    3.99947796621873

          :  Hamiltonian                  GFN2-xTB          :
         :: total energy            -107.651263394201 Eh    ::
         :: gradient norm              0.000633041999 Eh/a0 ::
         :: HOMO-LUMO gap              3.047472227615 eV    ::
         :: SCC energy              -109.426939088760 Eh    ::
         :: -> dispersion             -0.092165500632 Eh    ::
         :: repulsion energy           1.772093171829 Eh    ::

    * Orbital Energies and Occupations

         #    Occupation            Energy/Eh            Energy/eV
      -------------------------------------------------------------
         1        2.0000           -0.7899442             -21.4955
       ...           ...                  ...                  ...
        85        2.0000           -0.4396142             -11.9625
        86        2.0000           -0.4377832             -11.9127
        87        2.0000           -0.4356415             -11.8544
        88        2.0000           -0.4336088             -11.7991
        89        2.0000           -0.4305240             -11.7152
        90        2.0000           -0.4281549             -11.6507
        91        2.0000           -0.4218321             -11.4786
        92        2.0000           -0.4201829             -11.4338
        93        2.0000           -0.4165469             -11.3348
        94        2.0000           -0.4161302             -11.3235
        95        2.0000           -0.4137835             -11.2596
        96        2.0000           -0.4112480             -11.1906
        97        2.0000           -0.4063497             -11.0573 (HOMO)
        98                         -0.2943571              -8.0099 (LUMO)
        99                         -0.2870087              -7.8099
       100                         -0.2796593              -7.6099
       101                         -0.2733906              -7.4393
       102                         -0.2716210              -7.3912
       103                         -0.2431923              -6.6176
       104                         -0.2393143              -6.5121
       105                         -0.2361837              -6.4269
       106                         -0.2338443              -6.3632
       107                         -0.2310540              -6.2873
       108                         -0.2239549              -6.0941
       ...                                ...                  ...
       182                          1.1634219              31.6583
      -------------------------------------------------------------
                  HL-Gap            0.1119925 Eh            3.0475 eV

     #   Z          covCN         q      C6AA      Î±(0)
     1   6 C        2.923    -0.034    28.836     8.806
     2   6 C        2.920    -0.027    28.684     8.783
     3   6 C        2.920    -0.030    28.754     8.793
     4   6 C        2.920    -0.027    28.679     8.782
     5   6 C        2.924    -0.037    28.924     8.820
     6   6 C        2.971     0.001    27.992     8.678
     7   6 C        3.842     0.036    19.943     6.353
     8   6 C        3.824     0.040    19.891     6.347
     9   6 C        2.974     0.009    27.825     8.652
    10   6 C        2.924    -0.027    28.681     8.783
    11   6 C        2.920    -0.024    28.608     8.771
    12   6 C        2.921    -0.027    28.669     8.780
    13   6 C        2.919    -0.026    28.643     8.776
    14   6 C        2.924    -0.028    28.702     8.786
    15   7 N        2.770    -0.116    23.525     7.204
    16   6 C        2.759     0.272    22.395     7.750
    17   6 C        2.976    -0.015    28.380     8.738
    18   6 C        2.921    -0.017    28.441     8.746
    19   6 C        2.919    -0.021    28.530     8.759
    20   6 C        2.925    -0.016    28.420     8.743
    21   6 C        2.973     0.022    27.519     8.605
    22   6 C        1.913     0.113    28.317     8.594
    23   7 N        0.911    -0.226    25.943     7.367
    24   6 C        2.932    -0.024    28.609     8.772
    25   8 O        0.858    -0.407    21.811     6.262
    26   6 C        3.779     0.088    19.140     6.233
    27   6 C        2.688     0.352    21.031     7.505
    28   8 O        1.659    -0.352    19.939     6.028
    29   8 O        0.856    -0.386    21.403     6.203
    30   7 N        2.766    -0.117    23.543     7.206
    31   6 C        2.763     0.271    22.414     7.753
    32   6 C        2.972    -0.017    28.435     8.747
    33   6 C        2.927    -0.031    28.780     8.798
    34   6 C        2.974     0.022    27.517     8.604
    35   6 C        1.913     0.113    28.318     8.594
    36   7 N        0.911    -0.222    25.858     7.354
    37   6 C        2.926    -0.013    28.344     8.731
    38   6 C        2.917    -0.021    28.521     8.758
    39   6 C        2.926    -0.015    28.395     8.739
    40   8 O        0.859    -0.407    21.830     6.264
    41   1 H        0.926     0.036     2.496     2.471
    42   1 H        0.926     0.041     2.441     2.443
    43   1 H        0.926     0.038     2.470     2.457
    44   1 H        0.926     0.039     2.459     2.452
    45   1 H        0.926     0.035     2.516     2.480
    46   1 H        0.924     0.087     1.904     2.158
    47   1 H        0.924     0.065     2.142     2.289
    48   1 H        0.926     0.038     2.481     2.463
    49   1 H        0.926     0.041     2.439     2.442
    50   1 H        0.926     0.039     2.460     2.453
    51   1 H        0.926     0.037     2.487     2.466
    52   1 H        0.925     0.019     2.746     2.591
    53   1 H        0.926     0.055     2.264     2.353
    54   1 H        0.926     0.054     2.264     2.353
    55   1 H        0.926     0.056     2.242     2.341
    56   1 H        0.925     0.038     2.471     2.458
    57   1 H        0.924     0.067     2.116     2.275
    58   1 H        0.804     0.347     0.596     1.212
    59   1 H        0.926     0.062     2.174     2.306
    60   1 H        0.926     0.063     2.169     2.303
    61   1 H        0.926     0.057     2.238     2.339
    62   1 H        0.926     0.059     2.213     2.326

Wiberg/Mayer (AO) data.
largest (>0.10) Wiberg bond orders for each atom

     #   Z sym  total        # sym  WBO       # sym  WBO       # sym  WBO
 ---------------------------------------------------------------------------
     1   6 C    3.991 --     2 C    1.437     6 C    1.418    41 H    0.967
                             4 C    0.110
     2   6 C    3.992 --     3 C    1.444     1 C    1.437    42 H    0.970
                             5 C    0.112
     3   6 C    3.992 --     2 C    1.444     4 C    1.433    43 H    0.971
                             6 C    0.109
     4   6 C    3.991 --     5 C    1.450     3 C    1.433    44 H    0.970
                             1 C    0.110
     5   6 C    3.991 --     4 C    1.450     6 C    1.405    45 H    0.967
                             2 C    0.112
     6   6 C    3.985 --     1 C    1.418     5 C    1.405     7 C    0.989
                             3 C    0.109
     7   6 C    3.958 --     6 C    0.989    30 N    0.964     8 C    0.951
                            46 H    0.940
     8   6 C    3.959 --     9 C    0.990    47 H    0.953    15 N    0.952
                             7 C    0.951
     9   6 C    3.985 --    10 C    1.417    14 C    1.409     8 C    0.990
                            12 C    0.110
    10   6 C    3.990 --    11 C    1.441     9 C    1.417    48 H    0.968
                            13 C    0.111
    11   6 C    3.992 --    12 C    1.442    10 C    1.441    49 H    0.970
                            14 C    0.112
    12   6 C    3.990 --    11 C    1.442    13 C    1.435    50 H    0.971
                             9 C    0.110
    13   6 C    3.992 --    14 C    1.449    12 C    1.435    51 H    0.971
                            10 C    0.111
    14   6 C    3.992 --    13 C    1.449     9 C    1.409    52 H    0.969
                            11 C    0.112
    15   7 N    3.468 --    16 C    1.209    26 C    0.987     8 C    0.952
                            25 O    0.195
    16   6 C    3.949 --    25 O    1.706    15 N    1.209    17 C    0.952
    17   6 C    3.988 --    24 C    1.413    18 C    1.406    16 C    0.952
                            20 C    0.104
    18   6 C    3.964 --    19 C    1.430    17 C    1.406    53 H    0.968
    19   6 C    3.990 --    20 C    1.456    18 C    1.430    54 H    0.968
                            24 C    0.106
    20   6 C    3.989 --    19 C    1.456    21 C    1.359    55 H    0.969
                            17 C    0.104
    21   6 C    3.990 --    24 C    1.367    20 C    1.359    22 C    1.092
    22   6 C    3.947 --    23 N    2.807    21 C    1.092
    23   7 N    2.980 --    22 C    2.807
    24   6 C    3.991 --    17 C    1.413    21 C    1.367    56 H    0.968
                            19 C    0.106
    25   8 O    2.033 --    16 C    1.706    15 N    0.195
    26   6 C    3.974 --    30 N    0.990    15 N    0.987    57 H    0.927
                            27 C    0.906
    27   6 C    3.920 --    29 O    1.773    28 O    1.169    26 C    0.906
    28   8 O    2.233 --    27 C    1.169    58 H    0.853    29 O    0.185
    29   8 O    2.063 --    27 C    1.773    28 O    0.185
    30   7 N    3.452 --    31 C    1.175    26 C    0.990     7 C    0.964
                            40 O    0.183
    31   6 C    3.943 --    40 O    1.704    30 N    1.175    32 C    0.981
    32   6 C    3.988 --    33 C    1.408    39 C    1.388    31 C    0.981
                            37 C    0.101
    33   6 C    3.989 --    32 C    1.408    34 C    1.367    59 H    0.961
                            38 C    0.104
    34   6 C    3.990 --    33 C    1.367    37 C    1.362    35 C    1.090
    35   6 C    3.947 --    36 N    2.811    34 C    1.090
    36   7 N    2.982 --    35 C    2.811
    37   6 C    3.987 --    38 C    1.447    34 C    1.362    60 H    0.968
                            32 C    0.101
    38   6 C    3.990 --    37 C    1.447    39 C    1.441    61 H    0.967
                            33 C    0.104
    39   6 C    3.963 --    38 C    1.441    32 C    1.388    62 H    0.967
    40   8 O    2.034 --    31 C    1.704    30 N    0.183
    41   1 H    0.999 --     1 C    0.967
    42   1 H    0.998 --     2 C    0.970
    43   1 H    0.998 --     3 C    0.971
    44   1 H    0.998 --     4 C    0.970
    45   1 H    0.999 --     5 C    0.967
    46   1 H    0.992 --     7 C    0.940
    47   1 H    0.995 --     8 C    0.953
    48   1 H    0.999 --    10 C    0.968
    49   1 H    0.998 --    11 C    0.970
    50   1 H    0.998 --    12 C    0.971
    51   1 H    0.998 --    13 C    0.971
    52   1 H    1.000 --    14 C    0.969
    53   1 H    0.997 --    18 C    0.968
    54   1 H    0.995 --    19 C    0.968
    55   1 H    0.996 --    20 C    0.969
    56   1 H    0.999 --    24 C    0.968
    57   1 H    0.995 --    26 C    0.927
    58   1 H    0.879 --    28 O    0.853
    59   1 H    0.996 --    33 C    0.961
    60   1 H    0.996 --    37 C    0.968
    61   1 H    0.995 --    38 C    0.967
    62   1 H    0.996 --    39 C    0.967
 ---------------------------------------------------------------------------

molecular dipole:
                 x           y           z       tot (Debye)
 q only:        0.398      -0.766      -1.197
   full:        0.534      -0.910      -1.505       4.672

           -------------------------------------------------
          | TOTAL ENERGY             -107.651263394201 Eh   |
          | GRADIENT NORM               0.000633041999 Eh/Î± |
          | HOMO-LUMO GAP               3.047472227615 eV   |
           -------------------------------------------------

 * finished run on 2022/03/16 at 23:05:55.309
