   * xtb version 6.3.3 (4ae9cef) compiled by 'conda@95abc7406d43' on 2020-10-14
          program call               : xtb acid_266.xyz --opt --chrg 0 --uhf 0 --gfn 2
          number of atoms            :                    66
          number of electrons        :                   218
          charge                     :                     0
          spin                       :                   0.0

   ID    Z sym.   atoms
    1    6 C      1-22, 24-26, 29, 30, 32, 33, 37-39, 42, 43
    2    7 N      23, 36
    3   35 Br     27, 40
    4    8 O      28, 31, 34, 35, 41, 44
    5    1 H      45-66

          :  Hamiltonian                  GFN2-xTB          :
 * total energy  :  -122.4594314 Eh     change       -0.5331444E-08 Eh
 * total energy  :  -122.4778036 Eh     change       -0.1837224E-01 Eh
 * total energy  :  -122.4829503 Eh     change       -0.5146652E-02 Eh
 * total energy  :  -122.4843434 Eh     change       -0.1393157E-02 Eh
 * total energy  :  -122.4852964 Eh     change       -0.9529753E-03 Eh
 * total energy  :  -122.4858244 Eh     change       -0.5280409E-03 Eh
 * total energy  :  -122.4862715 Eh     change       -0.4470113E-03 Eh
 * total energy  :  -122.4866508 Eh     change       -0.3793435E-03 Eh
 * total energy  :  -122.4870223 Eh     change       -0.3715279E-03 Eh
 * total energy  :  -122.4874002 Eh     change       -0.3779154E-03 Eh
 * total energy  :  -122.4917154 Eh     change       -0.3027120E-04 Eh
 * total energy  :  -122.4917113 Eh     change        0.4080471E-05 Eh
 * total energy  :  -122.4917297 Eh     change       -0.1844523E-04 Eh
 * total energy  :  -122.4917446 Eh     change       -0.1484149E-04 Eh
 * total energy  :  -122.4917601 Eh     change       -0.1548594E-04 Eh
 * total energy  :  -122.4917722 Eh     change       -0.1215326E-04 Eh
 * total energy  :  -122.4917816 Eh     change       -0.9347004E-05 Eh
 * total energy  :  -122.4917869 Eh     change       -0.5332580E-05 Eh
 * total energy  :  -122.4917913 Eh     change       -0.4360413E-05 Eh
   *** GEOMETRY OPTIMIZATION CONVERGED AFTER 43 ITERATIONS ***

 final structure:
================
66
 xtb: 6.3.3 (4ae9cef)
C        -1.67354085914578   -0.58736508144453    1.87289779923786
C        -2.48527551011322   -0.13400330610716    2.87158063807743
C        -3.04727220885492    1.15895998571400    2.81672467083083
C        -3.91825060069356    1.64350121682412    3.81365207739216
C        -4.45050132822492    2.89945850938245    3.72338970654453
C        -4.13382273830628    3.72869481991846    2.63561177103063
C        -3.28811953904585    3.29044558862963    1.65554922195722
C        -2.72630866442385    1.99837846129556    1.71790939340396
C        -1.87541438835338    1.50684807220933    0.70766912372726
C        -1.37908916660172    0.23182849229601    0.76379743259213
C        -0.50667499520111   -0.30451669483688   -0.33866683274383
C         0.94697045018413   -0.50020215506138    0.14575225691910
C         1.85950317480413    0.56055863039980   -0.41626868853061
C         2.22630527953383    1.62626181943156    0.36111069856015
C         3.04850290938423    2.64893615544515   -0.15158620335418
C         3.44784548072513    3.75189158990749    0.63185039083493
C         4.25708318660163    4.72141947216844    0.10983802014794
C         4.70129960439941    4.63481680444112   -1.21918726449290
C         4.32849639625079    3.58013818173562   -2.00453710045402
C         3.49615983254189    2.56199637364186   -1.49547989121526
C         3.09698726517606    1.45571204216517   -2.27376354233989
C         2.29470187140004    0.48156203304345   -1.75309864759396
N         1.29296135886511   -1.84882223568499   -0.27706848147595
C         2.55280113607431   -2.31445779684942   -0.07752106862434
C         2.80108004478235   -3.71460898300768   -0.51354571463758
C         2.32821974041997   -4.87411823609364    0.03304784256654
Br        1.13653679206552   -5.16305005059112    1.43754551979411
O         2.85265476210356   -5.95610834302873   -0.55878844408552
C         3.68875839274396   -5.49826989852141   -1.51022899397374
C         3.70915312494853   -4.13995513344011   -1.52341743823644
O         3.41287060523170   -1.64250720258024    0.44568740048404
C         0.20499289363997   -2.54082108618280   -0.90407153230733
C         0.51216154826810   -2.91470690822982   -2.39127034976437
O        -0.39311523833989   -3.68314226328627   -2.95277780629133
O         1.51208069624156   -2.54838100266109   -2.93793599971364
N        -0.92011744298742   -1.62618744756619   -0.79253331806546
C        -2.16928273427468   -2.09711109835406   -0.95341483839265
C        -3.29806459165082   -1.17560933364139   -0.70933570482827
C        -3.64278279068422   -0.03297715814703   -1.37825005524809
Br       -2.83528477980739    0.84828422006761   -2.80361641785018
O        -4.77901661354348    0.48994544883694   -0.90434475257712
C        -5.19407177457586   -0.31964771237306    0.08601463691223
C        -4.34037676249705   -1.36415349323151    0.24268582067378
O        -2.36883964777017   -3.26147829718167   -1.29372414654817
H        -1.25825838630110   -1.58407717874224    1.91914304295215
H        -2.71315989322449   -0.76510426603535    3.71786996817228
H        -4.15782872103605    1.00211194921188    4.64937375913889
H        -5.11867601533247    3.26407412390835    4.48928783058029
H        -4.56486179442675    4.71723798888267    2.58092041169453
H        -3.04052477803940    3.92311482577477    0.81561992744344
H        -1.63216130910524    2.14990063294938   -0.12669498316158
H        -0.50844557560778    0.38595247585624   -1.19232622021894
H         0.99316840537002   -0.45972050826774    1.24277533674787
H         1.89417597106412    1.69150071138189    1.38807964431135
H         3.10457699517260    3.81219132173789    1.65487958711512
H         4.56303077770374    5.56155163551922    0.71622433862257
H         5.34188344778333    5.40968923155504   -1.61430224438014
H         4.66848630725864    3.50877705768114   -3.02784725345563
H         3.43968882160455    1.38730760479957   -3.29592606184354
H         2.01137633921948   -0.36655627013945   -2.35778248614883
H         4.20068714424179   -6.23263624670723   -2.09828794086584
H         4.26801392326932   -3.49484929879315   -2.16695745628003
H        -0.05662354528535   -3.47742664011445   -0.37899273938421
H        -1.20754474149555   -3.79231347891092   -2.38615769061784
H        -6.09785447907278   -0.04763869381169    0.59181707743269
H        -4.41204906504073   -2.17051997717020    0.94139996379675

          :  Hamiltonian                  GFN2-xTB          :
         :: total energy            -122.491791253257 Eh    ::
         :: gradient norm              0.000553058850 Eh/a0 ::
         :: HOMO-LUMO gap              2.547177615219 eV    ::
         :: SCC energy              -124.198592056994 Eh    ::
         :: -> dispersion             -0.105864053694 Eh    ::
         :: repulsion energy           1.704034460649 Eh    ::

    * Orbital Energies and Occupations

         #    Occupation            Energy/Eh            Energy/eV
      -------------------------------------------------------------
         1        2.0000           -0.8704865             -23.6871
       ...           ...                  ...                  ...
        97        2.0000           -0.4372243             -11.8975
        98        2.0000           -0.4306735             -11.7192
        99        2.0000           -0.4273487             -11.6288
       100        2.0000           -0.4260988             -11.5947
       101        2.0000           -0.4198548             -11.4248
       102        2.0000           -0.4187621             -11.3951
       103        2.0000           -0.4156819             -11.3113
       104        2.0000           -0.4145862             -11.2815
       105        2.0000           -0.4092638             -11.1366
       106        2.0000           -0.4050932             -11.0231
       107        2.0000           -0.4018547             -10.9350
       108        2.0000           -0.3977366             -10.8230
       109        2.0000           -0.3792782             -10.3207 (HOMO)
       110                         -0.2856712              -7.7735 (LUMO)
       111                         -0.2765776              -7.5261
       112                         -0.2613415              -7.1115
       113                         -0.2584460              -7.0327
       114                         -0.2555508              -6.9539
       115                         -0.2542046              -6.9173
       116                         -0.2529841              -6.8840
       117                         -0.2355648              -6.4100
       118                         -0.2323544              -6.3227
       119                         -0.2302210              -6.2646
       120                         -0.2183692              -5.9421
       ...                                ...                  ...
       208                          0.6969739              18.9656
      -------------------------------------------------------------
                  HL-Gap            0.0936071 Eh            2.5472 eV

     #   Z          covCN         q      C6AA      Î±(0)
     1   6 C        2.918    -0.038    28.955     8.824
     2   6 C        2.917    -0.035    28.866     8.810
     3   6 C        2.987     0.012    27.749     8.641
     4   6 C        2.918    -0.034    28.851     8.808
     5   6 C        2.916    -0.027    28.680     8.782
     6   6 C        2.916    -0.026    28.664     8.779
     7   6 C        2.918    -0.033    28.821     8.804
     8   6 C        2.987     0.014    27.682     8.631
     9   6 C        2.922    -0.044    29.105     8.847
    10   6 C        2.970    -0.008    28.205     8.711
    11   6 C        3.816     0.034    19.987     6.363
    12   6 C        3.824     0.048    19.754     6.325
    13   6 C        2.970     0.007    27.852     8.657
    14   6 C        2.923    -0.038    28.938     8.822
    15   6 C        2.987     0.017    27.629     8.622
    16   6 C        2.918    -0.034    28.843     8.807
    17   6 C        2.916    -0.029    28.725     8.789
    18   6 C        2.916    -0.029    28.729     8.789
    19   6 C        2.918    -0.033    28.830     8.805
    20   6 C        2.987     0.015    27.669     8.629
    21   6 C        2.918    -0.031    28.776     8.797
    22   6 C        2.918    -0.035    28.878     8.812
    23   7 N        2.760    -0.107    23.345     7.176
    24   6 C        2.760     0.283    22.208     7.717
    25   6 C        3.098    -0.051    29.148     8.848
    26   6 C        3.098     0.170    24.241     8.069
    27  35 Br       0.989    -0.116   188.211    22.120
    28   8 O        1.764    -0.171    16.878     5.547
    29   6 C        3.081     0.072    26.309     8.409
    30   6 C        3.033    -0.047    29.128     8.853
    31   8 O        0.859    -0.404    21.768     6.255
    32   6 C        3.755     0.076    19.367     6.275
    33   6 C        2.683     0.350    21.057     7.510
    34   8 O        1.655    -0.364    20.166     6.062
    35   8 O        0.856    -0.364    20.977     6.141
    36   7 N        2.758    -0.100    23.204     7.154
    37   6 C        2.762     0.275    22.349     7.742
    38   6 C        3.098    -0.046    29.011     8.827
    39   6 C        3.090     0.178    24.096     8.046
    40  35 Br       0.992    -0.098   187.688    22.089
    41   8 O        1.768    -0.162    16.741     5.525
    42   6 C        3.078     0.071    26.321     8.411
    43   6 C        3.029    -0.052    29.270     8.874
    44   8 O        0.860    -0.453    22.760     6.396
    45   1 H        0.926     0.037     2.495     2.470
    46   1 H        0.926     0.043     2.406     2.426
    47   1 H        0.926     0.038     2.479     2.462
    48   1 H        0.926     0.038     2.476     2.461
    49   1 H        0.926     0.039     2.465     2.455
    50   1 H        0.926     0.040     2.450     2.448
    51   1 H        0.926     0.041     2.435     2.440
    52   1 H        0.923     0.065     2.147     2.291
    53   1 H        0.923     0.061     2.192     2.316
    54   1 H        0.925     0.032     2.564     2.504
    55   1 H        0.926     0.032     2.553     2.499
    56   1 H        0.926     0.032     2.561     2.503
    57   1 H        0.926     0.032     2.555     2.500
    58   1 H        0.926     0.035     2.518     2.481
    59   1 H        0.926     0.042     2.426     2.436
    60   1 H        0.926     0.053     2.280     2.361
    61   1 H        0.926     0.072     2.059     2.244
    62   1 H        0.927     0.077     2.010     2.217
    63   1 H        0.922     0.070     2.084     2.258
    64   1 H        0.800     0.368     0.549     1.164
    65   1 H        0.926     0.075     2.033     2.229
    66   1 H        0.927     0.070     2.081     2.256

Wiberg/Mayer (AO) data.
largest (>0.10) Wiberg bond orders for each atom

     #   Z sym  total        # sym  WBO       # sym  WBO       # sym  WBO
 ---------------------------------------------------------------------------
     1   6 C    3.991 --     2 C    1.565    10 C    1.290    45 H    0.968
     2   6 C    3.991 --     1 C    1.565     3 C    1.275    46 H    0.967
                             9 C    0.112
     3   6 C    3.990 --     4 C    1.282     2 C    1.275     8 C    1.250
     4   6 C    3.991 --     5 C    1.555     3 C    1.282    47 H    0.968
                             7 C    0.118
     5   6 C    3.989 --     4 C    1.555     6 C    1.321    48 H    0.971
     6   6 C    3.992 --     7 C    1.557     5 C    1.321    49 H    0.971
     7   6 C    3.989 --     6 C    1.557     8 C    1.279    50 H    0.968
                             4 C    0.118
     8   6 C    3.990 --     9 C    1.281     7 C    1.279     3 C    1.250
     9   6 C    3.989 --    10 C    1.526     8 C    1.281    51 H    0.964
                             2 C    0.112
    10   6 C    3.984 --     9 C    1.526     1 C    1.290    11 C    0.990
    11   6 C    3.954 --    10 C    0.990    36 N    0.954    12 C    0.952
                            52 H    0.948
    12   6 C    3.957 --    13 C    0.985    23 N    0.957    53 H    0.953
                            11 C    0.952
    13   6 C    3.983 --    14 C    1.526    22 C    1.296    12 C    0.985
    14   6 C    3.989 --    13 C    1.526    15 C    1.282    54 H    0.966
                            21 C    0.115
    15   6 C    3.990 --    14 C    1.282    16 C    1.278    20 C    1.251
    16   6 C    3.990 --    17 C    1.558    15 C    1.278    55 H    0.968
                            19 C    0.118
    17   6 C    3.992 --    16 C    1.558    18 C    1.321    56 H    0.971
    18   6 C    3.990 --    19 C    1.557    17 C    1.321    57 H    0.971
    19   6 C    3.992 --    18 C    1.557    20 C    1.281    58 H    0.968
                            16 C    0.118
    20   6 C    3.990 --    19 C    1.281    21 C    1.277    15 C    1.251
    21   6 C    3.991 --    22 C    1.562    20 C    1.277    59 H    0.968
                            14 C    0.115
    22   6 C    3.989 --    21 C    1.562    13 C    1.296    60 H    0.962
    23   7 N    3.470 --    24 C    1.205    32 C    1.002    12 C    0.957
                            31 O    0.195
    24   6 C    3.953 --    31 O    1.699    23 N    1.205    25 C    0.969
    25   6 C    3.975 --    26 C    1.523    30 C    1.250    24 C    0.969
    26   6 C    3.874 --    25 C    1.523    28 O    1.129    27 Br   1.003
                            29 C    0.137
    27  35 Br   1.169 --    26 C    1.003
    28   8 O    2.450 --    26 C    1.129    29 C    1.117
    29   6 C    3.900 --    30 C    1.623    28 O    1.117    61 H    0.963
                            26 C    0.137
    30   6 C    3.981 --    29 C    1.623    25 C    1.250    62 H    0.969
    31   8 O    2.036 --    24 C    1.699    23 N    0.195
    32   6 C    3.957 --    23 N    1.002    36 N    0.969    63 H    0.930
                            33 C    0.886
    33   6 C    3.932 --    35 O    1.775    34 O    1.210    32 C    0.886
    34   8 O    2.243 --    33 C    1.210    64 H    0.767    35 O    0.184
    35   8 O    2.085 --    33 C    1.775    34 O    0.184
    36   7 N    3.512 --    37 C    1.275    32 C    0.969    11 C    0.954
                            44 O    0.191
    37   6 C    3.952 --    44 O    1.588    36 N    1.275    38 C    0.990
    38   6 C    3.975 --    39 C    1.507    43 C    1.248    37 C    0.990
    39   6 C    3.882 --    38 C    1.507    41 O    1.138    40 Br   1.017
                            42 C    0.133
    40  35 Br   1.186 --    39 C    1.017
    41   8 O    2.461 --    39 C    1.138    42 C    1.120
    42   6 C    3.900 --    43 C    1.621    41 O    1.120    65 H    0.962
                            39 C    0.133
    43   6 C    3.980 --    42 C    1.621    38 C    1.248    66 H    0.970
    44   8 O    2.014 --    37 C    1.588    36 N    0.191
    45   1 H    0.998 --     1 C    0.968
    46   1 H    0.997 --     2 C    0.967
    47   1 H    0.998 --     4 C    0.968
    48   1 H    0.998 --     5 C    0.971
    49   1 H    0.998 --     6 C    0.971
    50   1 H    0.998 --     7 C    0.968
    51   1 H    0.998 --     9 C    0.964
    52   1 H    0.995 --    11 C    0.948
    53   1 H    0.995 --    12 C    0.953
    54   1 H    0.998 --    14 C    0.966
    55   1 H    0.998 --    16 C    0.968
    56   1 H    0.999 --    17 C    0.971
    57   1 H    0.999 --    18 C    0.971
    58   1 H    0.998 --    19 C    0.968
    59   1 H    0.997 --    21 C    0.968
    60   1 H    0.997 --    22 C    0.962
    61   1 H    0.994 --    29 C    0.963
    62   1 H    0.994 --    30 C    0.969
    63   1 H    0.994 --    32 C    0.930
    64   1 H    0.865 --    34 O    0.767
    65   1 H    0.994 --    42 C    0.962
    66   1 H    0.995 --    43 C    0.970
 ---------------------------------------------------------------------------

molecular dipole:
                 x           y           z       tot (Debye)
 q only:       -1.598       1.478       1.022
   full:       -1.791       1.000       1.197       6.036

           -------------------------------------------------
          | TOTAL ENERGY             -122.491791253257 Eh   |
          | GRADIENT NORM               0.000553058850 Eh/Î± |
          | HOMO-LUMO GAP               2.547177615219 eV   |
           -------------------------------------------------

 * finished run on 2022/03/16 at 23:09:47.830
