   * xtb version 6.3.3 (4ae9cef) compiled by 'conda@95abc7406d43' on 2020-10-14
          program call               : xtb acid_271.xyz --opt --chrg 0 --uhf 0 --gfn 2
          number of atoms            :                    66
          number of electrons        :                   190
          charge                     :                     0
          spin                       :                   0.0

   ID    Z sym.   atoms
    1    8 O      1, 13, 14, 24
    2    6 C      2-9, 11, 12, 16-23, 25-38
    3    7 N      10, 15
    4    1 H      39-66

          :  Hamiltonian                  GFN2-xTB          :
 * total energy  :  -104.9209987 Eh     change       -0.5975949E-09 Eh
 * total energy  :  -104.9320003 Eh     change       -0.1100166E-01 Eh
 * total energy  :  -104.9352944 Eh     change       -0.3294032E-02 Eh
 * total energy  :  -104.9368653 Eh     change       -0.1570967E-02 Eh
 * total energy  :  -104.9379004 Eh     change       -0.1035044E-02 Eh
 * total energy  :  -104.9383959 Eh     change       -0.4954818E-03 Eh
 * total energy  :  -104.9387540 Eh     change       -0.3581721E-03 Eh
 * total energy  :  -104.9389942 Eh     change       -0.2401423E-03 Eh
 * total energy  :  -104.9393252 Eh     change       -0.3310086E-03 Eh
 * total energy  :  -104.9396894 Eh     change       -0.3642181E-03 Eh
 * total energy  :  -104.9487991 Eh     change       -0.6970902E-05 Eh
 * total energy  :  -104.9488048 Eh     change       -0.5726856E-05 Eh
 * total energy  :  -104.9488025 Eh     change        0.2377973E-05 Eh
 * total energy  :  -104.9488099 Eh     change       -0.7489808E-05 Eh
 * total energy  :  -104.9488162 Eh     change       -0.6206643E-05 Eh
 * total energy  :  -104.9488086 Eh     change        0.7502565E-05 Eh
 * total energy  :  -104.9488191 Eh     change       -0.1047741E-04 Eh
 * total energy  :  -104.9488244 Eh     change       -0.5242432E-05 Eh
 * total energy  :  -104.9488279 Eh     change       -0.3495558E-05 Eh
   *** GEOMETRY OPTIMIZATION CONVERGED AFTER 116 ITERATIONS ***

 final structure:
================
66
 xtb: 6.3.3 (4ae9cef)
O         2.48508538378447    2.14070531879945   -0.73837935692638
C         2.25902505364325    0.95501725244395   -0.84873465293578
C         3.27111890541359   -0.06847090275172   -1.33899624968436
C         4.59986877446670    0.58597927746635   -1.58740352981451
C         5.57437516973070    0.58851205406094   -0.59929894653798
C         6.78777762791283    1.21791495336804   -0.81235506014184
C         7.03740091268229    1.85539446301449   -2.01542930909728
C         6.06748946566235    1.86255308789439   -3.00299538891719
C         4.85515399601497    1.23176329827787   -2.78913803394551
N         1.02387708548862    0.46434463025793   -0.56776475272113
C        -0.01497220451711    1.38612123390283   -0.16400576618297
C         0.48423411870000    2.34648144404891    0.93580284619029
O         0.34784994249769    3.60803557867086    0.58504691286820
O         0.96173722701223    1.95759506161812    1.96733154645518
N        -1.06488395494863    0.52927812146655    0.33229693813143
C        -1.99492517440649    1.03509388606010    1.17893495957234
C        -3.06439157787706    0.05736375675541    1.64361968208960
C        -4.31918146154059    0.80185830406282    2.00418787829236
C        -5.40412173245473    0.80410500385824    1.13855904450005
C        -6.54836466846533    1.51680067799523    1.45080986420418
C        -6.61394966639148    2.24186145403658    2.62805477541069
C        -5.53117432702710    2.25133217751584    3.49078709802512
C        -4.38963332123002    1.53400982786261    3.18140524119451
O        -1.94838362488470    2.19934338160406    1.51518682998385
C        -0.89305745167172   -0.84000188311355   -0.09262680403971
C        -1.81814754191512   -1.24546860053912   -1.22024807819955
C        -2.54138464893517   -0.31279039744989   -1.95004869889628
C        -3.36812445722536   -0.72530808236529   -2.98155178820179
C        -3.47488201113129   -2.06919191532724   -3.29529112071560
C        -2.75386782515777   -3.00439082369058   -2.57077381486004
C        -1.93174489526746   -2.59479453762231   -1.53732798066429
C         0.59994251273771   -0.91979763288618   -0.51906377406127
C         1.38164768759752   -1.75478004546445    0.46956654187882
C         1.73860897514435   -3.05809209855018    0.14709954760553
C         2.41628814689752   -3.84322249185142    1.06322435917296
C         2.74203251603367   -3.33031383570671    2.30743205675547
C         2.38614032713198   -2.03178944737510    2.63282581325981
C         1.70399117337578   -1.24438883798732    1.72195496641936
H         3.36834432490378   -0.85555503759119   -0.58972384843991
H         2.88078145026192   -0.51309269513903   -2.25870835384346
H         5.37853075434288    0.09696002626343    0.34340673170857
H         7.53916434355410    1.21362719643414   -0.03615960026965
H         7.98394338709149    2.34847969673108   -2.18161718315918
H         6.25479259154115    2.36352978619352   -3.94163822682339
H         4.09734429573529    1.24505374848346   -3.55958555824017
H        -0.34790319819761    2.00286739113475   -1.01619144996839
H         0.67495345822194    4.19489013689251    1.28472412576812
H        -2.66523818678015   -0.46190109228553    2.52000478691690
H        -3.27175045014379   -0.67288459182448    0.86128648149085
H        -5.35315337446997    0.24276086268227    0.21509168814008
H        -7.38864396693348    1.50891526640716    0.77173511877167
H        -7.50583945139345    2.80078145449353    2.87053153565237
H        -5.57605723540482    2.82037789201026    4.40768649111443
H        -3.54229121121299    1.54868073712506    3.84998289978313
H        -1.05421072570562   -1.51371340175869    0.75844537496036
H        -2.47114346967555    0.73638698278704   -1.70559931536544
H        -3.93037312478283    0.00792546019255   -3.54002754871724
H        -4.12095839118429   -2.38847083529916   -4.09901300716041
H        -2.83692397517266   -4.05451806567000   -2.80710759544709
H        -1.37420034310191   -3.32272674919386   -0.96490708018455
H         0.67701783999584   -1.36933813730590   -1.51933753970716
H         1.49050550673133   -3.45598097444301   -0.82726660561519
H         2.69349774765612   -4.85390102029943    0.80282866248211
H         3.27473191992228   -3.94159156782461    3.02053308225984
H         2.63969567142924   -1.62683602105916    3.60070772354637
H         1.43692635588347   -0.22939216049924    1.97722441487344

          :  Hamiltonian                  GFN2-xTB          :
         :: total energy            -104.948827863988 Eh    ::
         :: gradient norm              0.000556567063 Eh/a0 ::
         :: HOMO-LUMO gap              3.798769774332 eV    ::
         :: SCC energy              -106.602004484867 Eh    ::
         :: -> dispersion             -0.085219894262 Eh    ::
         :: repulsion energy           1.651407126776 Eh    ::

    * Orbital Energies and Occupations

         #    Occupation            Energy/Eh            Energy/eV
      -------------------------------------------------------------
         1        2.0000           -0.7381687             -20.0866
       ...           ...                  ...                  ...
        83        2.0000           -0.4216774             -11.4744
        84        2.0000           -0.4187502             -11.3948
        85        2.0000           -0.4183425             -11.3837
        86        2.0000           -0.4170742             -11.3492
        87        2.0000           -0.4146283             -11.2826
        88        2.0000           -0.4095269             -11.1438
        89        2.0000           -0.4092019             -11.1350
        90        2.0000           -0.4050389             -11.0217
        91        2.0000           -0.3995718             -10.8729
        92        2.0000           -0.3974784             -10.8159
        93        2.0000           -0.3921953             -10.6722
        94        2.0000           -0.3917706             -10.6606
        95        2.0000           -0.3889809             -10.5847 (HOMO)
        96                         -0.2493787              -6.7859 (LUMO)
        97                         -0.2441541              -6.6438
        98                         -0.2391233              -6.5069
        99                         -0.2368474              -6.4449
       100                         -0.2307872              -6.2800
       101                         -0.2213724              -6.0238
       102                         -0.2187481              -5.9524
       103                         -0.2170933              -5.9074
       104                         -0.2165472              -5.8926
       105                         -0.2149740              -5.8497
       106                         -0.2109725              -5.7409
       ...                                ...                  ...
       180                          0.6737721              18.3343
      -------------------------------------------------------------
                  HL-Gap            0.1396022 Eh            3.7988 eV

     #   Z          covCN         q      C6AA      Î±(0)
     1   8 O        0.860    -0.426    22.210     6.319
     2   6 C        2.763     0.277    22.322     7.737
     3   6 C        3.812    -0.086    22.140     6.697
     4   6 C        2.973     0.024    27.454     8.595
     5   6 C        2.925    -0.032    28.802     8.801
     6   6 C        2.920    -0.028    28.697     8.785
     7   6 C        2.920    -0.031    28.769     8.796
     8   6 C        2.920    -0.028    28.696     8.785
     9   6 C        2.925    -0.030    28.751     8.793
    10   7 N        2.762    -0.120    23.618     7.218
    11   6 C        3.772     0.104    18.897     6.194
    12   6 C        2.688     0.382    20.533     7.416
    13   8 O        1.660    -0.336    19.657     5.985
    14   8 O        0.856    -0.406    21.806     6.261
    15   7 N        2.763    -0.113    23.459     7.194
    16   6 C        2.762     0.277    22.320     7.737
    17   6 C        3.811    -0.086    22.138     6.697
    18   6 C        2.974     0.022    27.519     8.605
    19   6 C        2.924    -0.037    28.929     8.820
    20   6 C        2.919    -0.030    28.738     8.791
    21   6 C        2.920    -0.031    28.778     8.797
    22   6 C        2.920    -0.027    28.681     8.782
    23   6 C        2.924    -0.027    28.675     8.782
    24   8 O        0.860    -0.423    22.154     6.311
    25   6 C        3.819     0.039    19.904     6.349
    26   6 C        2.972    -0.004    28.123     8.699
    27   6 C        2.922    -0.033    28.811     8.802
    28   6 C        2.920    -0.026    28.652     8.778
    29   6 C        2.920    -0.029    28.716     8.788
    30   6 C        2.919    -0.027    28.673     8.781
    31   6 C        2.924    -0.039    28.960     8.825
    32   6 C        3.814     0.041    19.879     6.346
    33   6 C        2.973    -0.005    28.142     8.702
    34   6 C        2.923    -0.040    28.984     8.829
    35   6 C        2.919    -0.029    28.727     8.789
    36   6 C        2.920    -0.029    28.732     8.790
    37   6 C        2.920    -0.025    28.635     8.775
    38   6 C        2.921    -0.039    28.958     8.825
    39   1 H        0.924     0.058     2.222     2.331
    40   1 H        0.924     0.052     2.295     2.369
    41   1 H        0.926     0.030     2.590     2.517
    42   1 H        0.926     0.032     2.556     2.500
    43   1 H        0.926     0.031     2.568     2.506
    44   1 H        0.926     0.032     2.556     2.500
    45   1 H        0.926     0.030     2.584     2.514
    46   1 H        0.923     0.064     2.154     2.295
    47   1 H        0.805     0.347     0.596     1.212
    48   1 H        0.924     0.063     2.159     2.298
    49   1 H        0.925     0.048     2.344     2.394
    50   1 H        0.925     0.024     2.674     2.557
    51   1 H        0.926     0.030     2.582     2.513
    52   1 H        0.926     0.031     2.565     2.505
    53   1 H        0.926     0.035     2.523     2.484
    54   1 H        0.926     0.042     2.417     2.431
    55   1 H        0.924     0.056     2.243     2.342
    56   1 H        0.926     0.039     2.459     2.452
    57   1 H        0.926     0.041     2.431     2.438
    58   1 H        0.926     0.040     2.452     2.449
    59   1 H        0.926     0.039     2.458     2.452
    60   1 H        0.926     0.032     2.561     2.502
    61   1 H        0.923     0.047     2.364     2.404
    62   1 H        0.925     0.027     2.626     2.534
    63   1 H        0.926     0.036     2.503     2.474
    64   1 H        0.926     0.037     2.486     2.466
    65   1 H        0.926     0.043     2.406     2.426
    66   1 H        0.926     0.069     2.096     2.264

Wiberg/Mayer (AO) data.
largest (>0.10) Wiberg bond orders for each atom

     #   Z sym  total        # sym  WBO       # sym  WBO       # sym  WBO
 ---------------------------------------------------------------------------
     1   8 O    2.028 --     2 C    1.692    10 N    0.184
     2   6 C    3.944 --     1 O    1.692    10 N    1.208     3 C    0.955
     3   6 C    3.995 --     4 C    1.009     2 C    0.955    40 H    0.952
                            39 H    0.950
     4   6 C    3.987 --     5 C    1.415     9 C    1.415     3 C    1.009
                             7 C    0.110
     5   6 C    3.992 --     6 C    1.445     4 C    1.415    41 H    0.969
                             8 C    0.111
     6   6 C    3.993 --     5 C    1.445     7 C    1.439    42 H    0.971
                             9 C    0.112
     7   6 C    3.992 --     6 C    1.439     8 C    1.439    43 H    0.971
                             4 C    0.110
     8   6 C    3.993 --     9 C    1.445     7 C    1.439    44 H    0.971
                             5 C    0.111
     9   6 C    3.991 --     8 C    1.445     4 C    1.415    45 H    0.970
                             6 C    0.112
    10   7 N    3.455 --     2 C    1.208    11 C    0.976    32 C    0.972
                             1 O    0.184
    11   6 C    3.959 --    15 N    0.978    10 N    0.976    46 H    0.944
                            12 C    0.909
    12   6 C    3.925 --    14 O    1.744    13 O    1.182    11 C    0.909
    13   8 O    2.246 --    12 C    1.182    47 H    0.854    14 O    0.178
    14   8 O    2.044 --    12 C    1.744    13 O    0.178
    15   7 N    3.466 --    16 C    1.215    11 C    0.978    25 C    0.978
                            24 O    0.183
    16   6 C    3.944 --    24 O    1.686    15 N    1.215    17 C    0.953
    17   6 C    3.995 --    18 C    1.005    49 H    0.965    16 C    0.953
                            48 H    0.945
    18   6 C    3.987 --    19 C    1.416    23 C    1.412    17 C    1.005
                            21 C    0.109
    19   6 C    3.991 --    20 C    1.443    18 C    1.416    50 H    0.969
                            22 C    0.111
    20   6 C    3.992 --    19 C    1.443    21 C    1.440    51 H    0.971
                            23 C    0.112
    21   6 C    3.992 --    20 C    1.440    22 C    1.438    52 H    0.971
                            18 C    0.109
    22   6 C    3.992 --    23 C    1.446    21 C    1.438    53 H    0.971
                            19 C    0.111
    23   6 C    3.991 --    22 C    1.446    18 C    1.412    54 H    0.969
                            20 C    0.112
    24   8 O    2.040 --    16 C    1.686    15 N    0.183
    25   6 C    3.968 --    26 C    0.982    15 N    0.978    55 H    0.951
                            32 C    0.945
    26   6 C    3.985 --    27 C    1.419    31 C    1.405    25 C    0.982
                            29 C    0.109
    27   6 C    3.991 --    28 C    1.438    26 C    1.419    56 H    0.967
                            30 C    0.110
    28   6 C    3.992 --    29 C    1.444    27 C    1.438    57 H    0.970
                            31 C    0.112
    29   6 C    3.990 --    28 C    1.444    30 C    1.433    58 H    0.971
                            26 C    0.109
    30   6 C    3.991 --    31 C    1.451    29 C    1.433    59 H    0.970
                            27 C    0.110
    31   6 C    3.990 --    30 C    1.451    26 C    1.405    60 H    0.969
                            28 C    0.112
    32   6 C    3.968 --    33 C    0.984    10 N    0.972    61 H    0.954
                            25 C    0.945
    33   6 C    3.985 --    34 C    1.411    38 C    1.409    32 C    0.984
                            36 C    0.108
    34   6 C    3.989 --    35 C    1.443    33 C    1.411    62 H    0.968
                            37 C    0.111
    35   6 C    3.992 --    34 C    1.443    36 C    1.439    63 H    0.971
                            38 C    0.112
    36   6 C    3.990 --    35 C    1.439    37 C    1.438    64 H    0.971
                            33 C    0.108
    37   6 C    3.992 --    38 C    1.446    36 C    1.438    65 H    0.970
                            34 C    0.111
    38   6 C    3.987 --    37 C    1.446    33 C    1.409    66 H    0.958
                            35 C    0.112
    39   1 H    0.996 --     3 C    0.950
    40   1 H    0.997 --     3 C    0.952
    41   1 H    0.999 --     5 C    0.969
    42   1 H    0.999 --     6 C    0.971
    43   1 H    0.999 --     7 C    0.971
    44   1 H    0.999 --     8 C    0.971
    45   1 H    0.999 --     9 C    0.970
    46   1 H    0.996 --    11 C    0.944
    47   1 H    0.879 --    13 O    0.854
    48   1 H    0.996 --    17 C    0.945
    49   1 H    0.997 --    17 C    0.965
    50   1 H    0.999 --    19 C    0.969
    51   1 H    0.999 --    20 C    0.971
    52   1 H    0.998 --    21 C    0.971
    53   1 H    0.999 --    22 C    0.971
    54   1 H    0.998 --    23 C    0.969
    55   1 H    0.996 --    25 C    0.951
    56   1 H    0.998 --    27 C    0.967
    57   1 H    0.998 --    28 C    0.970
    58   1 H    0.998 --    29 C    0.971
    59   1 H    0.998 --    30 C    0.970
    60   1 H    0.999 --    31 C    0.969
    61   1 H    0.997 --    32 C    0.954
    62   1 H    0.999 --    34 C    0.968
    63   1 H    0.998 --    35 C    0.971
    64   1 H    0.998 --    36 C    0.971
    65   1 H    0.998 --    37 C    0.970
    66   1 H    0.995 --    38 C    0.958
 ---------------------------------------------------------------------------

molecular dipole:
                 x           y           z       tot (Debye)
 q only:       -0.590      -2.179      -0.788
   full:       -0.640      -2.429      -0.881       6.765

           -------------------------------------------------
          | TOTAL ENERGY             -104.948827863988 Eh   |
          | GRADIENT NORM               0.000556567063 Eh/Î± |
          | HOMO-LUMO GAP               3.798769774332 eV   |
           -------------------------------------------------

 * finished run on 2022/03/16 at 23:14:03.797
