   * xtb version 6.3.3 (4ae9cef) compiled by 'conda@95abc7406d43' on 2020-10-14
          program call               : xtb acid_17.xyz --opt --chrg 0 --uhf 0 --gfn 2
          number of atoms            :                    80
          number of electrons        :                   238
          charge                     :                     0
          spin                       :                   0.0

   ID    Z sym.   atoms
    1    6 C      1, 3-16, 18, 20-30, 32, 33, 37-47
    2    8 O      2, 17, 31, 34, 35, 48
    3    7 N      19, 36
    4    1 H      49-80

          :  Hamiltonian                  GFN2-xTB          :
 * total energy  :  -132.2083954 Eh     change       -0.8637898E-08 Eh
 * total energy  :  -132.2264126 Eh     change       -0.1801718E-01 Eh
 * total energy  :  -132.2314176 Eh     change       -0.5005039E-02 Eh
 * total energy  :  -132.2335732 Eh     change       -0.2155561E-02 Eh
 * total energy  :  -132.2348022 Eh     change       -0.1229016E-02 Eh
 * total energy  :  -132.2355638 Eh     change       -0.7616023E-03 Eh
 * total energy  :  -132.2360698 Eh     change       -0.5059516E-03 Eh
 * total energy  :  -132.2365337 Eh     change       -0.4638783E-03 Eh
 * total energy  :  -132.2369216 Eh     change       -0.3879374E-03 Eh
 * total energy  :  -132.2372538 Eh     change       -0.3321625E-03 Eh
 * total energy  :  -132.2664308 Eh     change       -0.1000489E-04 Eh
 * total energy  :  -132.2664417 Eh     change       -0.1091274E-04 Eh
 * total energy  :  -132.2664575 Eh     change       -0.1578314E-04 Eh
 * total energy  :  -132.2664703 Eh     change       -0.1280745E-04 Eh
 * total energy  :  -132.2664820 Eh     change       -0.1168057E-04 Eh
 * total energy  :  -132.2664905 Eh     change       -0.8543596E-05 Eh
 * total energy  :  -132.2664979 Eh     change       -0.7389319E-05 Eh
 * total energy  :  -132.2665066 Eh     change       -0.8666729E-05 Eh
 * total energy  :  -132.2665101 Eh     change       -0.3536830E-05 Eh
   *** GEOMETRY OPTIMIZATION CONVERGED AFTER 130 ITERATIONS ***

 final structure:
================
80
 xtb: 6.3.3 (4ae9cef)
C         1.05666286008147   -1.64963603541690    2.92714666142793
O         1.73180828890978   -2.39350412515090    2.00633298984611
C         2.54023132083853   -3.45359200074588    2.45673229326961
C         1.06787205558793   -1.89143491653937    4.29537265225584
C         0.34681835090087   -1.07901119620629    5.15392455240883
C        -0.39643468910280   -0.02237569259339    4.66400554268952
C        -0.40932047607970    0.22402290866325    3.30227827067156
C         0.31285883837476   -0.57014313052853    2.42813294389779
C         0.32035531169683   -0.28902483601609    0.94571992357766
C        -1.03295425065725   -0.60201106580600    0.28525050378907
C        -0.95464970089102   -1.61735101280527   -0.82922605532621
C        -0.01075706993230   -1.50907723768740   -1.83699532400082
C        -0.01158977095200   -2.37188674056841   -2.91940827794418
C        -0.98060459131803   -3.35370109687465   -2.99823400526015
C        -1.91691813090747   -3.49800867029479   -1.98982298717032
C        -1.90852314615300   -2.64685969321493   -0.88848682183146
O        -2.75200421053193   -2.75417267960492    0.16466627095174
C        -3.88243097723346   -3.58541660460665    0.04409131313663
N        -1.48971830850946    0.68744343104804   -0.24334603322646
C        -2.71047459963606    0.80906277392884   -0.83864950722107
C        -3.00851512322057    2.19479533958296   -1.31377333185282
C        -2.81626955152705    2.50371308254849   -2.68328910764813
C        -2.36405678459932    1.54749374375401   -3.61737435345721
C        -2.16390910848965    1.89422031062935   -4.92367557459305
C        -2.39954774689935    3.20880377096071   -5.35458120445642
C        -2.84379578721750    4.15370320993013   -4.47373610668108
C        -3.06697568289463    3.83031319094683   -3.11922323429132
C        -3.52577890229104    4.78505556422122   -2.18939964337823
C        -3.73901363301281    4.44621940752358   -0.88320263942308
C        -3.47680971781960    3.14317388217071   -0.44088247268388
O        -3.45163502097838   -0.13735606115259   -0.99164965056231
C        -0.62421674958810    1.78339209742578    0.11790042886859
C        -0.23112620087315    2.65334676212191   -1.10937797161417
O         0.26390756045138    1.93902078261084   -2.12212449747587
O        -0.34558333897965    3.83754097424322   -1.14354154068381
N         0.54879324496125    1.12105977319651    0.65377967383870
C         1.60144792752347    1.85094390484457    1.12553204300477
C         2.68841987319098    1.02863877008627    1.74174266170553
C         2.90753477274485    1.13055904107305    3.09170904484022
C         3.88137930339151    0.34066203732513    3.71730026602105
C         4.62692634639231   -0.54029196256998    2.98560989249165
C         4.45453712147672   -0.64639645614596    1.58952006431291
C         3.48446674732816    0.16647096646391    0.94778747313499
C         3.35664086532584    0.09381316749256   -0.45602670275281
C         4.11693022998968   -0.77854088894363   -1.18326663467278
C         5.04780019899576   -1.61167063504060   -0.54378920324982
C         5.22055062847626   -1.53817114294331    0.80947551803176
O         1.63078725227336    3.05819047020456    1.04223893673357
H         3.00348566748918   -3.86516539773207    1.56147112497936
H         3.31991666520475   -3.09882936494807    3.13728283635838
H         1.94575984065668   -4.23010527587213    2.94829703654506
H         1.63809053833686   -2.71020447289325    4.70382045301242
H         0.36911188050430   -1.28075173251205    6.21429363623388
H        -0.96043703597814    0.60724226748764    5.33428446137278
H        -0.98080871170677    1.05352677682407    2.91317712072913
H         1.11142922429883   -0.89511573271732    0.49373715832183
H        -1.75873088736132   -0.96174453278000    1.02279489787127
H         0.76330046188392   -0.75569601298914   -1.77346198628178
H         0.73144934254775   -2.26776449958711   -3.69457098661013
H        -1.00835131938586   -4.02159906109845   -3.84606933050482
H        -2.65651382294851   -4.27835505936111   -2.07030242615244
H        -4.48128333484265   -3.30842322649341   -0.82722128191532
H        -3.60223842172801   -4.64254981580963   -0.01485592753565
H        -4.46477281167341   -3.41881292741425    0.94881690839775
H        -2.19404966356635    0.53078787391835   -3.29019236444876
H        -1.81977430142865    1.15653465774335   -5.63369073388014
H        -2.22754329926021    3.46523730199259   -6.38969911965339
H        -3.02869987422825    5.16712153892817   -4.79966366676194
H        -3.70621247275672    5.79403381262289   -2.53042689804620
H        -4.09771310751097    5.17988527276805   -0.17725569721927
H        -3.64451199842112    2.88698817222651    0.59592326925400
H        -1.07552937606986    2.46577856695773    0.85973338796215
H         0.15525333194516    0.98223142367651   -1.97855887010671
H         2.30730452585021    1.80811245194009    3.67990292961385
H         4.02570920827925    0.42990336432359    4.78353946482798
H         5.37148497179559   -1.16193474561226    3.46378749626962
H         2.66930360519445    0.76425635110974   -0.95215791298910
H         4.01294955324551   -0.82720011649974   -2.25727288660790
H         5.63607486715174   -2.29955912090161   -1.13315683722312
H         5.95342892588712   -2.15985321893304    1.30452770478225

          :  Hamiltonian                  GFN2-xTB          :
         :: total energy            -132.266510105159 Eh    ::
         :: gradient norm              0.000890585123 Eh/a0 ::
         :: HOMO-LUMO gap              2.798155539528 eV    ::
         :: SCC energy              -134.304817429036 Eh    ::
         :: -> dispersion             -0.124502899687 Eh    ::
         :: repulsion energy           2.032589703884 Eh    ::

    * Orbital Energies and Occupations

         #    Occupation            Energy/Eh            Energy/eV
      -------------------------------------------------------------
         1        2.0000           -0.7527776             -20.4841
       ...           ...                  ...                  ...
       107        2.0000           -0.4214215             -11.4675
       108        2.0000           -0.4170927             -11.3497
       109        2.0000           -0.4155439             -11.3075
       110        2.0000           -0.4126402             -11.2285
       111        2.0000           -0.4071823             -11.0800
       112        2.0000           -0.4000888             -10.8870
       113        2.0000           -0.3990879             -10.8597
       114        2.0000           -0.3951201             -10.7518
       115        2.0000           -0.3934208             -10.7055
       116        2.0000           -0.3907786             -10.6336
       117        2.0000           -0.3888683             -10.5816
       118        2.0000           -0.3845000             -10.4628
       119        2.0000           -0.3774972             -10.2722 (HOMO)
       120                         -0.2746669              -7.4741 (LUMO)
       121                         -0.2628105              -7.1514
       122                         -0.2466437              -6.7115
       123                         -0.2408414              -6.5536
       124                         -0.2393791              -6.5138
       125                         -0.2372646              -6.4563
       126                         -0.2295579              -6.2466
       127                         -0.2267258              -6.1695
       128                         -0.2255886              -6.1386
       129                         -0.2230303              -6.0690
       130                         -0.2191227              -5.9626
       ...                                ...                  ...
       224                          0.6977749              18.9874
      -------------------------------------------------------------
                  HL-Gap            0.1028303 Eh            2.7982 eV

     #   Z          covCN         q      C6AA      Î±(0)
     1   6 C        2.868     0.138    24.978     8.192
     2   8 O        1.705    -0.277    18.601     5.823
     3   6 C        3.644     0.038    20.272     6.472
     4   6 C        2.917    -0.065    29.619     8.925
     5   6 C        2.921    -0.030    28.758     8.794
     6   6 C        2.917    -0.040    28.991     8.829
     7   6 C        2.924    -0.032    28.809     8.802
     8   6 C        2.972    -0.026    28.641     8.778
     9   6 C        3.814     0.035    19.982     6.362
    10   6 C        3.817     0.045    19.803     6.333
    11   6 C        2.971    -0.019    28.487     8.755
    12   6 C        2.924    -0.044    29.091     8.845
    13   6 C        2.917    -0.043    29.057     8.840
    14   6 C        2.921    -0.029    28.733     8.790
    15   6 C        2.918    -0.062    29.554     8.915
    16   6 C        2.869     0.155    24.646     8.138
    17   8 O        1.705    -0.256    18.240     5.766
    18   6 C        3.645     0.036    20.305     6.476
    19   7 N        2.764    -0.138    23.977     7.272
    20   6 C        2.762     0.273    22.386     7.748
    21   6 C        2.976    -0.032    28.801     8.803
    22   6 C        2.990     0.016    27.639     8.624
    23   6 C        2.917    -0.032    28.794     8.799
    24   6 C        2.917    -0.025    28.639     8.776
    25   6 C        2.916    -0.026    28.661     8.779
    26   6 C        2.919    -0.030    28.739     8.791
    27   6 C        2.987     0.022    27.506     8.603
    28   6 C        2.919    -0.026    28.656     8.778
    29   6 C        2.915    -0.024    28.606     8.771
    30   6 C        2.920    -0.026    28.660     8.779
    31   8 O        0.859    -0.421    22.104     6.304
    32   6 C        3.748     0.086    19.217     6.253
    33   6 C        2.685     0.356    20.949     7.490
    34   8 O        1.659    -0.366    20.197     6.067
    35   8 O        0.856    -0.333    20.390     6.054
    36   7 N        2.764    -0.132    23.855     7.254
    37   6 C        2.764     0.273    22.391     7.749
    38   6 C        2.974    -0.019    28.469     8.752
    39   6 C        2.922    -0.023    28.568     8.765
    40   6 C        2.915    -0.029    28.719     8.788
    41   6 C        2.919    -0.035    28.863     8.810
    42   6 C        2.987     0.018    27.600     8.618
    43   6 C        2.988     0.016    27.639     8.624
    44   6 C        2.917    -0.034    28.838     8.806
    45   6 C        2.916    -0.027    28.677     8.781
    46   6 C        2.916    -0.029    28.714     8.787
    47   6 C        2.919    -0.033    28.834     8.806
    48   8 O        0.859    -0.414    21.953     6.282
    49   1 H        0.925     0.063     2.162     2.299
    50   1 H        0.924     0.044     2.396     2.421
    51   1 H        0.924     0.045     2.383     2.414
    52   1 H        0.926     0.041     2.430     2.438
    53   1 H        0.926     0.042     2.419     2.432
    54   1 H        0.926     0.043     2.410     2.428
    55   1 H        0.926     0.039     2.459     2.452
    56   1 H        0.924     0.072     2.064     2.247
    57   1 H        0.924     0.077     2.009     2.217
    58   1 H        0.925     0.028     2.613     2.528
    59   1 H        0.926     0.039     2.466     2.456
    60   1 H        0.926     0.041     2.435     2.440
    61   1 H        0.926     0.044     2.393     2.419
    62   1 H        0.924     0.056     2.252     2.347
    63   1 H        0.924     0.039     2.466     2.456
    64   1 H        0.925     0.065     2.140     2.288
    65   1 H        0.925     0.027     2.633     2.537
    66   1 H        0.926     0.033     2.539     2.492
    67   1 H        0.926     0.035     2.515     2.480
    68   1 H        0.926     0.039     2.468     2.457
    69   1 H        0.926     0.043     2.409     2.427
    70   1 H        0.926     0.042     2.426     2.436
    71   1 H        0.926     0.030     2.591     2.517
    72   1 H        0.923     0.061     2.191     2.315
    73   1 H        0.804     0.336     0.623     1.240
    74   1 H        0.926     0.041     2.438     2.442
    75   1 H        0.926     0.038     2.482     2.463
    76   1 H        0.925     0.034     2.533     2.489
    77   1 H        0.926     0.031     2.577     2.510
    78   1 H        0.926     0.036     2.507     2.476
    79   1 H        0.926     0.034     2.525     2.485
    80   1 H        0.926     0.033     2.538     2.491

Wiberg/Mayer (AO) data.
largest (>0.10) Wiberg bond orders for each atom

     #   Z sym  total        # sym  WBO       # sym  WBO       # sym  WBO
 ---------------------------------------------------------------------------
     1   6 C    3.933 --     4 C    1.380     8 C    1.323     2 O    1.061
     2   8 O    2.231 --     1 C    1.061     3 C    0.980
     3   6 C    3.942 --     2 O    0.980    49 H    0.979    51 H    0.976
                            50 H    0.975
     4   6 C    3.987 --     5 C    1.436     1 C    1.380    52 H    0.965
                             7 C    0.102
     5   6 C    3.989 --     6 C    1.442     4 C    1.436    53 H    0.971
                             8 C    0.106
     6   6 C    3.991 --     5 C    1.442     7 C    1.427    54 H    0.970
     7   6 C    3.990 --     8 C    1.437     6 C    1.427    55 H    0.967
                             4 C    0.102
     8   6 C    3.982 --     7 C    1.437     1 C    1.323     9 C    0.988
                             5 C    0.106
     9   6 C    3.965 --     8 C    0.988    10 C    0.962    36 N    0.959
                            56 H    0.946
    10   6 C    3.962 --    11 C    0.990     9 C    0.962    57 H    0.951
                            19 N    0.946
    11   6 C    3.982 --    12 C    1.439    16 C    1.318    10 C    0.990
                            14 C    0.105
    12   6 C    3.990 --    11 C    1.439    13 C    1.425    58 H    0.952
                            15 C    0.101
    13   6 C    3.991 --    14 C    1.438    12 C    1.425    59 H    0.971
    14   6 C    3.990 --    15 C    1.443    13 C    1.438    60 H    0.971
                            11 C    0.105
    15   6 C    3.987 --    14 C    1.443    16 C    1.371    61 H    0.965
                            12 C    0.101
    16   6 C    3.938 --    15 C    1.371    11 C    1.318    17 O    1.083
    17   8 O    2.255 --    16 C    1.083    18 C    0.978
    18   6 C    3.940 --    64 H    0.979    17 O    0.978    62 H    0.977
                            63 H    0.976
    19   7 N    3.447 --    20 C    1.195    32 C    0.986    10 C    0.946
                            31 O    0.188
    20   6 C    3.942 --    31 O    1.701    19 N    1.195    21 C    0.957
    21   6 C    3.986 --    30 C    1.515    22 C    1.245    20 C    0.957
                            28 C    0.115
    22   6 C    3.989 --    23 C    1.281    27 C    1.252    21 C    1.245
    23   6 C    3.992 --    24 C    1.556    22 C    1.281    65 H    0.966
                            26 C    0.119
    24   6 C    3.992 --    23 C    1.556    25 C    1.321    66 H    0.971
    25   6 C    3.992 --    26 C    1.559    24 C    1.321    67 H    0.971
    26   6 C    3.991 --    25 C    1.559    27 C    1.278    68 H    0.968
                            23 C    0.119
    27   6 C    3.990 --    28 C    1.281    26 C    1.278    22 C    1.252
    28   6 C    3.991 --    29 C    1.551    27 C    1.281    69 H    0.968
                            21 C    0.115
    29   6 C    3.991 --    28 C    1.551    30 C    1.326    70 H    0.969
    30   6 C    3.991 --    21 C    1.515    29 C    1.326    71 H    0.970
    31   8 O    2.023 --    20 C    1.701    19 N    0.188
    32   6 C    3.960 --    19 N    0.986    36 N    0.976    72 H    0.942
                            33 C    0.897
    33   6 C    3.927 --    35 O    1.823    34 O    1.141    32 C    0.897
    34   8 O    2.212 --    33 C    1.141    73 H    0.838    35 O    0.170
    35   8 O    2.110 --    33 C    1.823    34 O    0.170
    36   7 N    3.439 --    37 C    1.187    32 C    0.976     9 C    0.959
                            48 O    0.187
    37   6 C    3.944 --    48 O    1.708    36 N    1.187    38 C    0.961
    38   6 C    3.987 --    39 C    1.517    43 C    1.248    37 C    0.961
                            41 C    0.115
    39   6 C    3.990 --    38 C    1.517    40 C    1.324    74 H    0.969
    40   6 C    3.991 --    41 C    1.553    39 C    1.324    75 H    0.970
    41   6 C    3.992 --    40 C    1.553    42 C    1.278    76 H    0.968
                            38 C    0.115
    42   6 C    3.990 --    47 C    1.278    41 C    1.278    43 C    1.254
    43   6 C    3.989 --    44 C    1.279    42 C    1.254    38 C    1.248
    44   6 C    3.992 --    45 C    1.556    43 C    1.279    77 H    0.965
                            47 C    0.118
    45   6 C    3.992 --    44 C    1.556    46 C    1.320    78 H    0.971
    46   6 C    3.992 --    47 C    1.558    45 C    1.320    79 H    0.971
    47   6 C    3.991 --    46 C    1.558    42 C    1.278    80 H    0.968
                            44 C    0.118
    48   8 O    2.035 --    37 C    1.708    36 N    0.187
    49   1 H    0.996 --     3 C    0.979
    50   1 H    0.998 --     3 C    0.975
    51   1 H    0.998 --     3 C    0.976
    52   1 H    0.998 --     4 C    0.965
    53   1 H    0.998 --     5 C    0.971
    54   1 H    0.998 --     6 C    0.970
    55   1 H    0.998 --     7 C    0.967
    56   1 H    0.994 --     9 C    0.946
    57   1 H    0.993 --    10 C    0.951
    58   1 H    0.999 --    12 C    0.952
    59   1 H    0.998 --    13 C    0.971
    60   1 H    0.998 --    14 C    0.971
    61   1 H    0.998 --    15 C    0.965
    62   1 H    0.997 --    18 C    0.977
    63   1 H    0.998 --    18 C    0.976
    64   1 H    0.995 --    18 C    0.979
    65   1 H    0.999 --    23 C    0.966
    66   1 H    0.998 --    24 C    0.971
    67   1 H    0.998 --    25 C    0.971
    68   1 H    0.998 --    26 C    0.968
    69   1 H    0.997 --    28 C    0.968
    70   1 H    0.997 --    29 C    0.969
    71   1 H    0.999 --    30 C    0.970
    72   1 H    0.996 --    32 C    0.942
    73   1 H    0.887 --    34 O    0.838
    74   1 H    0.998 --    39 C    0.969
    75   1 H    0.997 --    40 C    0.970
    76   1 H    0.998 --    41 C    0.968
    77   1 H    0.999 --    44 C    0.965
    78   1 H    0.998 --    45 C    0.971
    79   1 H    0.998 --    46 C    0.971
    80   1 H    0.998 --    47 C    0.968
 ---------------------------------------------------------------------------

molecular dipole:
                 x           y           z       tot (Debye)
 q only:        0.380      -2.938       0.644
   full:        0.409      -3.355       0.992       8.954

           -------------------------------------------------
          | TOTAL ENERGY             -132.266510105159 Eh   |
          | GRADIENT NORM               0.000890585123 Eh/Î± |
          | HOMO-LUMO GAP               2.798155539528 eV   |
           -------------------------------------------------

 * finished run on 2022/03/16 at 22:02:47.526
