   * xtb version 6.3.3 (4ae9cef) compiled by 'conda@95abc7406d43' on 2020-10-14
          program call               : xtb acid_469.xyz --opt --chrg 0 --uhf 0 --gfn 2
          number of atoms            :                    78
          number of electrons        :                   266
          charge                     :                     0
          spin                       :                   0.0

   ID    Z sym.   atoms
    1    6 C      1-22, 24-27, 32-34, 36, 37, 41-44, 49-51
    2    7 N      23, 40
    3    9 F      28-30, 45-47
    4    8 O      31, 35, 38, 39, 48, 52
    5    1 H      53-78

          :  Hamiltonian                  GFN2-xTB          :
 * total energy  :  -153.3135829 Eh     change       -0.4248477E-08 Eh
 * total energy  :  -153.3324197 Eh     change       -0.1883684E-01 Eh
 * total energy  :  -153.3392235 Eh     change       -0.6803773E-02 Eh
 * total energy  :  -153.3415037 Eh     change       -0.2280226E-02 Eh
 * total energy  :  -153.3435563 Eh     change       -0.2052570E-02 Eh
 * total energy  :  -153.3451038 Eh     change       -0.1547484E-02 Eh
 * total energy  :  -153.3465339 Eh     change       -0.1430162E-02 Eh
 * total energy  :  -153.3478399 Eh     change       -0.1305986E-02 Eh
 * total energy  :  -153.3484741 Eh     change       -0.6341535E-03 Eh
 * total energy  :  -153.3498884 Eh     change       -0.1414293E-02 Eh
 * total energy  :  -153.3710705 Eh     change       -0.1188015E-04 Eh
 * total energy  :  -153.3710820 Eh     change       -0.1150094E-04 Eh
 * total energy  :  -153.3710930 Eh     change       -0.1092394E-04 Eh
 * total energy  :  -153.3711016 Eh     change       -0.8605880E-05 Eh
 * total energy  :  -153.3711082 Eh     change       -0.6606381E-05 Eh
 * total energy  :  -153.3711142 Eh     change       -0.5976699E-05 Eh
 * total energy  :  -153.3711206 Eh     change       -0.6473889E-05 Eh
 * total energy  :  -153.3711280 Eh     change       -0.7398109E-05 Eh
 * total energy  :  -153.3711308 Eh     change       -0.2750306E-05 Eh
   *** GEOMETRY OPTIMIZATION CONVERGED AFTER 94 ITERATIONS ***

 final structure:
================
78
 xtb: 6.3.3 (4ae9cef)
C         0.20358715338274    3.46728921499118    4.16616382811407
C        -0.96368954819337    2.90812299944876    4.60077504625000
C        -1.38920982822511    1.68390138963944    4.06727837773417
C        -0.65387262169346    1.04901933603409    3.10573069336250
C         0.54385839923513    1.60999305443766    2.61015681268012
C         0.98162382945036    2.84284417704904    3.16861166468490
C         2.17803910409707    3.43187344698777    2.71044708414688
C         2.90754731112739    2.84003829418489    1.72071731323861
C         2.46435171772148    1.64353936046946    1.14248142707932
C         1.32063268418475    1.02316874852489    1.57426189280219
C         0.82365479692538   -0.21984136768054    0.87253199326526
C        -0.19498419865648    0.17103910503543   -0.22352747075629
C        -1.61652368907119   -0.12812064582500    0.18083082441568
C        -1.98178403512048   -1.44644631569057    0.31343044572986
C        -3.29228361972300   -1.80771848754014    0.64643037610178
C        -4.23863810681106   -0.84133323955057    0.83308211624382
C        -3.90060054176057    0.52371311811021    0.73529363505365
C        -2.56326759270637    0.90202622768228    0.42958745732080
C        -2.25740976143550    2.28022901355930    0.40118122349485
C        -3.22064006901406    3.22472661923007    0.61925494469325
C        -4.54444909997437    2.84804350120772    0.88477212757243
C        -4.87233679457203    1.52425215172573    0.94863200455870
N         0.22150113408145   -0.61274119142721   -1.37270033304259
C        -0.47991046043344   -0.89258065344076   -2.49019977838043
C        -1.77211470553485   -0.16529812986416   -2.62512020414281
C        -1.95705462169610    1.16846864861087   -2.87938453025848
C        -0.98667276291542    2.26445374065795   -3.15090421074472
F        -1.04631394884985    2.71343336061184   -4.41305553380630
F        -1.17818993997030    3.33903506026417   -2.36567969075768
F         0.27832329425541    1.86841505488793   -2.94192782909688
O        -3.27342148760824    1.46066667232807   -2.95380961622006
C        -3.94991864927287    0.31604838384445   -2.74784904490581
C        -5.43171608119563    0.36403903605282   -2.73798542720200
C        -3.07791862740066   -0.71685661924271   -2.55879827986379
O        -0.06803299858874   -1.67695915674903   -3.32077628535791
C         1.55265230262525   -1.15386425612525   -1.23141300298926
C         1.55966413481991   -2.65444367501994   -1.60130985425836
O         0.56826027815948   -3.29825087623864   -0.99800317591907
O         2.40216928768410   -3.17578039365708   -2.27226624526596
N         1.87500935564048   -0.92734955253861    0.15555823091467
C         2.86987827712291   -1.52650985763221    0.86265966019177
C         3.93035649357678   -2.15552576406171    0.03301881555094
C         4.35295851650942   -3.45801115279310    0.07573786316241
C         3.79626182996232   -4.62233234496776    0.81843728835207
F         4.13243641192071   -5.78937747562814    0.25855797925196
F         4.18980367136136   -4.68683985406107    2.09805858064173
F         2.44798681213224   -4.58540945491383    0.84130790607936
O         5.37783706729749   -3.65540768112374   -0.77283045373178
C         5.64357383777558   -2.47821067593733   -1.36255818504747
C         6.73662355287344   -2.41942080258423   -2.36315602058861
C         4.78646975514244   -1.51920724633889   -0.90344178966316
O         2.91325607137401   -1.49506658040608    2.07182018540953
H         0.55182785915395    4.40381613346189    4.57777181175609
H        -1.55812210353942    3.39576847851273    5.35904126285429
H        -2.30641640509126    1.23845676660197    4.42334894396084
H        -1.00571278205805    0.10339274343507    2.72667092403959
H         2.50085002072809    4.36275232001492    3.15348919896050
H         3.82233599565299    3.29040670915859    1.36584083365348
H         3.04360753979945    1.20700924361097    0.34265035970271
H         0.38561509630546   -0.91147813258900    1.60080135964452
H        -0.06345892752460    1.23281273921049   -0.45895789875141
H        -1.25114260710201   -2.22210800038791    0.13770986474825
H        -3.54456869417759   -2.85287455171274    0.74232689902123
H        -5.25859703107102   -1.10595836564809    1.07112756087684
H        -1.24669495510469    2.61079290585330    0.22379102995071
H        -2.96016209578357    4.27144292912542    0.58876086823524
H        -5.29334702592656    3.60850475210123    1.04813512435653
H        -5.88410059286508    1.21714054584370    1.17336976818289
H        -5.77419092309794    1.00721198957631   -1.92830787096589
H        -5.82956497914454   -0.63533105399486   -2.59652220094567
H        -5.80427248437666    0.77426677043325   -3.67480264827065
H        -3.31620440359542   -1.74393356574816   -2.38126459385120
H         2.25504985560761   -0.64499074289037   -1.91363200154938
H         0.59471356607501   -4.24642543299395   -1.20586122736499
H         6.96840005077031   -1.38576652534288   -2.59885214417657
H         6.43100323098105   -2.93187995580846   -3.27449726667275
H         7.62499285204050   -2.91601918250743   -1.97889951635045
H         4.77080365336132   -0.48648078187586   -1.18334927711326

          :  Hamiltonian                  GFN2-xTB          :
         :: total energy            -153.371130776261 Eh    ::
         :: gradient norm              0.000249402349 Eh/a0 ::
         :: HOMO-LUMO gap              2.777340878979 eV    ::
         :: SCC energy              -155.260719797187 Eh    ::
         :: -> dispersion             -0.123076349849 Eh    ::
         :: repulsion energy           1.884329330812 Eh    ::

    * Orbital Energies and Occupations

         #    Occupation            Energy/Eh            Energy/eV
      -------------------------------------------------------------
         1        2.0000           -0.8963446             -24.3908
       ...           ...                  ...                  ...
       121        2.0000           -0.4333200             -11.7912
       122        2.0000           -0.4299482             -11.6995
       123        2.0000           -0.4286426             -11.6640
       124        2.0000           -0.4262807             -11.5997
       125        2.0000           -0.4247690             -11.5586
       126        2.0000           -0.4209384             -11.4543
       127        2.0000           -0.4175434             -11.3619
       128        2.0000           -0.4169120             -11.3448
       129        2.0000           -0.4130544             -11.2398
       130        2.0000           -0.4087889             -11.1237
       131        2.0000           -0.4062079             -11.0535
       132        2.0000           -0.3971614             -10.8073
       133        2.0000           -0.3853386             -10.4856 (HOMO)
       134                         -0.2832732              -7.7083 (LUMO)
       135                         -0.2689912              -7.3196
       136                         -0.2678480              -7.2885
       137                         -0.2625291              -7.1438
       138                         -0.2561606              -6.9705
       139                         -0.2484979              -6.7620
       140                         -0.2394159              -6.5148
       141                         -0.2366662              -6.4400
       142                         -0.2286270              -6.2213
       143                         -0.2134827              -5.8092
       144                         -0.1998712              -5.4388
       ...                                ...                  ...
       234                          0.6861192              18.6703
      -------------------------------------------------------------
                  HL-Gap            0.1020654 Eh            2.7773 eV

     #   Z          covCN         q      C6AA      Î±(0)
     1   6 C        2.921    -0.033    28.828     8.805
     2   6 C        2.915    -0.028    28.712     8.787
     3   6 C        2.917    -0.028    28.696     8.784
     4   6 C        2.917    -0.035    28.872     8.811
     5   6 C        2.984     0.010    27.788     8.647
     6   6 C        2.988     0.017    27.628     8.622
     7   6 C        2.920    -0.034    28.859     8.809
     8   6 C        2.914    -0.028    28.705     8.786
     9   6 C        2.921    -0.031    28.770     8.796
    10   6 C        2.969     0.002    27.987     8.678
    11   6 C        3.825     0.047    19.773     6.327
    12   6 C        3.818     0.037    19.940     6.355
    13   6 C        2.968    -0.010    28.270     8.721
    14   6 C        2.923    -0.039    28.978     8.828
    15   6 C        2.914    -0.031    28.767     8.795
    16   6 C        2.920    -0.037    28.924     8.819
    17   6 C        2.989     0.013    27.714     8.636
    18   6 C        2.983     0.005    27.901     8.664
    19   6 C        2.917    -0.035    28.878     8.812
    20   6 C        2.917    -0.025    28.620     8.773
    21   6 C        2.915    -0.028    28.690     8.783
    22   6 C        2.921    -0.036    28.902     8.816
    23   7 N        2.768    -0.099    23.172     7.149
    24   6 C        2.763     0.276    22.334     7.739
    25   6 C        3.061    -0.030    28.680     8.782
    26   6 C        3.119     0.066    26.355     8.408
    27   6 C        3.330     0.488    17.340     6.608
    28   9 F        0.791    -0.191    11.147     3.944
    29   9 F        0.791    -0.198    11.215     3.956
    30   9 F        0.792    -0.204    11.281     3.967
    31   8 O        1.729    -0.169    16.849     5.542
    32   6 C        3.096     0.133    24.980     8.191
    33   6 C        3.753    -0.124    22.940     6.830
    34   6 C        3.023    -0.068    29.663     8.934
    35   8 O        0.860    -0.412    21.917     6.277
    36   6 C        3.759     0.093    19.095     6.230
    37   6 C        2.687     0.365    20.803     7.464
    38   8 O        1.660    -0.354    19.971     6.033
    39   8 O        0.856    -0.384    21.356     6.196
    40   7 N        2.763    -0.109    23.388     7.183
    41   6 C        2.760     0.273    22.378     7.747
    42   6 C        3.062    -0.042    28.971     8.827
    43   6 C        3.128     0.078    26.079     8.361
    44   6 C        3.330     0.489    17.320     6.604
    45   9 F        0.792    -0.190    11.128     3.941
    46   9 F        0.791    -0.191    11.146     3.944
    47   9 F        0.791    -0.211    11.351     3.980
    48   8 O        1.730    -0.156    16.651     5.510
    49   6 C        3.103     0.138    24.862     8.170
    50   6 C        3.753    -0.125    22.953     6.832
    51   6 C        3.025    -0.073    29.792     8.953
    52   8 O        0.859    -0.402    21.715     6.248
    53   1 H        0.926     0.037     2.483     2.464
    54   1 H        0.926     0.035     2.516     2.481
    55   1 H        0.926     0.032     2.558     2.501
    56   1 H        0.926     0.028     2.614     2.528
    57   1 H        0.926     0.040     2.455     2.450
    58   1 H        0.926     0.039     2.469     2.457
    59   1 H        0.926     0.031     2.569     2.507
    60   1 H        0.924     0.072     2.062     2.245
    61   1 H        0.924     0.052     2.291     2.367
    62   1 H        0.926     0.053     2.284     2.363
    63   1 H        0.926     0.041     2.432     2.439
    64   1 H        0.926     0.040     2.450     2.448
    65   1 H        0.926     0.032     2.555     2.500
    66   1 H        0.926     0.042     2.418     2.432
    67   1 H        0.926     0.038     2.470     2.458
    68   1 H        0.926     0.036     2.498     2.472
    69   1 H        0.925     0.078     1.999     2.211
    70   1 H        0.925     0.071     2.073     2.251
    71   1 H        0.925     0.081     1.964     2.192
    72   1 H        0.927     0.066     2.126     2.280
    73   1 H        0.923     0.074     2.038     2.233
    74   1 H        0.804     0.350     0.588     1.205
    75   1 H        0.925     0.070     2.087     2.259
    76   1 H        0.925     0.085     1.932     2.174
    77   1 H        0.925     0.079     1.994     2.208
    78   1 H        0.927     0.056     2.247     2.344

Wiberg/Mayer (AO) data.
largest (>0.10) Wiberg bond orders for each atom

     #   Z sym  total        # sym  WBO       # sym  WBO       # sym  WBO
 ---------------------------------------------------------------------------
     1   6 C    3.991 --     2 C    1.557     6 C    1.280    53 H    0.968
                             4 C    0.119
     2   6 C    3.992 --     1 C    1.557     3 C    1.323    54 H    0.971
     3   6 C    3.992 --     4 C    1.554     2 C    1.323    55 H    0.971
     4   6 C    3.992 --     3 C    1.554     5 C    1.284    56 H    0.962
                             1 C    0.119
     5   6 C    3.989 --     4 C    1.284     6 C    1.253    10 C    1.251
     6   6 C    3.990 --     1 C    1.280     7 C    1.278     5 C    1.253
     7   6 C    3.990 --     8 C    1.555     6 C    1.278    57 H    0.968
                            10 C    0.114
     8   6 C    3.992 --     7 C    1.555     9 C    1.324    58 H    0.970
     9   6 C    3.990 --    10 C    1.528     8 C    1.324    59 H    0.967
    10   6 C    3.982 --     9 C    1.528     5 C    1.251    11 C    0.986
                             7 C    0.114
    11   6 C    3.958 --    10 C    0.986    40 N    0.959    12 C    0.949
                            60 H    0.946
    12   6 C    3.961 --    13 C    0.990    23 N    0.958    11 C    0.949
                            61 H    0.946
    13   6 C    3.983 --    14 C    1.516    18 C    1.253    12 C    0.990
                            16 C    0.114
    14   6 C    3.988 --    13 C    1.516    15 C    1.330    62 H    0.963
    15   6 C    3.992 --    16 C    1.549    14 C    1.330    63 H    0.970
    16   6 C    3.989 --    15 C    1.549    17 C    1.281    64 H    0.968
                            13 C    0.114
    17   6 C    3.990 --    16 C    1.281    22 C    1.278    18 C    1.251
    18   6 C    3.989 --    19 C    1.284    13 C    1.253    17 C    1.251
    19   6 C    3.992 --    20 C    1.554    18 C    1.284    65 H    0.960
                            22 C    0.118
    20   6 C    3.990 --    19 C    1.554    21 C    1.322    66 H    0.970
    21   6 C    3.992 --    22 C    1.557    20 C    1.322    67 H    0.970
    22   6 C    3.991 --    21 C    1.557    17 C    1.278    68 H    0.968
                            19 C    0.118
    23   7 N    3.487 --    24 C    1.237    36 C    0.979    12 C    0.958
                            35 O    0.199
    24   6 C    3.955 --    35 O    1.670    23 N    1.237    25 C    0.966
    25   6 C    3.981 --    26 C    1.525    34 C    1.269    24 C    0.966
    26   6 C    3.890 --    25 C    1.525    31 O    1.109    27 C    0.961
                            32 C    0.134
    27   6 C    3.845 --    26 C    0.961    28 F    0.952    30 F    0.948
                            29 F    0.946
    28   9 F    1.086 --    27 C    0.952
    29   9 F    1.077 --    27 C    0.946
    30   9 F    1.071 --    27 C    0.948
    31   8 O    2.449 --    32 C    1.126    26 C    1.109
    32   6 C    3.907 --    34 C    1.563    31 O    1.126    33 C    1.033
                            26 C    0.134
    33   6 C    3.987 --    32 C    1.033    70 H    0.981    71 H    0.965
                            69 H    0.962
    34   6 C    3.976 --    32 C    1.563    25 C    1.269    72 H    0.971
    35   8 O    2.043 --    24 C    1.670    23 N    0.199
    36   6 C    3.963 --    40 N    0.984    23 N    0.979    73 H    0.941
                            37 C    0.907
    37   6 C    3.926 --    39 O    1.779    38 O    1.160    36 C    0.907
    38   8 O    2.227 --    37 C    1.160    74 H    0.852    39 O    0.181
    39   8 O    2.065 --    37 C    1.779    38 O    0.181
    40   7 N    3.463 --    41 C    1.203    36 C    0.984    11 C    0.959
                            52 O    0.195
    41   6 C    3.955 --    52 O    1.700    40 N    1.203    42 C    0.973
    42   6 C    3.979 --    43 C    1.523    51 C    1.268    41 C    0.973
    43   6 C    3.899 --    42 C    1.523    48 O    1.122    44 C    0.960
                            49 C    0.133
    44   6 C    3.846 --    45 F    0.960    43 C    0.960    46 F    0.952
                            47 F    0.936
    45   9 F    1.086 --    44 C    0.960
    46   9 F    1.086 --    44 C    0.952
    47   9 F    1.063 --    44 C    0.936
    48   8 O    2.463 --    49 C    1.131    43 C    1.122
    49   6 C    3.907 --    51 C    1.560    48 O    1.131    50 C    1.033
                            43 C    0.133
    50   6 C    3.987 --    49 C    1.033    75 H    0.981    77 H    0.969
                            76 H    0.959
    51   6 C    3.976 --    49 C    1.560    42 C    1.268    78 H    0.972
    52   8 O    2.038 --    41 C    1.700    40 N    0.195
    53   1 H    0.998 --     1 C    0.968
    54   1 H    0.998 --     2 C    0.971
    55   1 H    0.999 --     3 C    0.971
    56   1 H    0.999 --     4 C    0.962
    57   1 H    0.997 --     7 C    0.968
    58   1 H    0.997 --     8 C    0.970
    59   1 H    0.999 --     9 C    0.967
    60   1 H    0.994 --    11 C    0.946
    61   1 H    0.997 --    12 C    0.946
    62   1 H    0.997 --    14 C    0.963
    63   1 H    0.997 --    15 C    0.970
    64   1 H    0.997 --    16 C    0.968
    65   1 H    0.998 --    19 C    0.960
    66   1 H    0.998 --    20 C    0.970
    67   1 H    0.998 --    21 C    0.970
    68   1 H    0.998 --    22 C    0.968
    69   1 H    0.994 --    33 C    0.962
    70   1 H    0.994 --    33 C    0.981
    71   1 H    0.993 --    33 C    0.965
    72   1 H    0.995 --    34 C    0.971
    73   1 H    0.994 --    36 C    0.941
    74   1 H    0.878 --    38 O    0.852
    75   1 H    0.995 --    50 C    0.981
    76   1 H    0.992 --    50 C    0.959
    77   1 H    0.993 --    50 C    0.969
    78   1 H    0.997 --    51 C    0.972
 ---------------------------------------------------------------------------

molecular dipole:
                 x           y           z       tot (Debye)
 q only:       -2.118       1.420       0.054
   full:       -2.139       1.350      -0.111       6.436

           -------------------------------------------------
          | TOTAL ENERGY             -153.371130776261 Eh   |
          | GRADIENT NORM               0.000249402349 Eh/Î± |
          | HOMO-LUMO GAP               2.777340878979 eV   |
           -------------------------------------------------

 * finished run on 2022/03/17 at 01:33:50.019
