   * xtb version 6.3.3 (4ae9cef) compiled by 'conda@95abc7406d43' on 2020-10-14
          program call               : xtb acid_444.xyz --opt --chrg 0 --uhf 0 --gfn 2
          number of atoms            :                    80
          number of electrons        :                   298
          charge                     :                     0
          spin                       :                   0.0

   ID    Z sym.   atoms
    1    6 C      1, 3-16, 18, 20-24, 28-30, 34, 36, 37, 41-45, 49-51, 55
    2    8 O      2, 17, 35, 38, 39, 56
    3    7 N      19, 40
    4    9 F      25-27, 31-33, 46-48, 52-54
    5    1 H      57-80

          :  Hamiltonian                  GFN2-xTB          :
 * total energy  :  -176.4421491 Eh     change       -0.2061256E-08 Eh
 * total energy  :  -176.4616681 Eh     change       -0.1951899E-01 Eh
 * total energy  :  -176.4680255 Eh     change       -0.6357408E-02 Eh
 * total energy  :  -176.4699533 Eh     change       -0.1927743E-02 Eh
 * total energy  :  -176.4714173 Eh     change       -0.1464020E-02 Eh
 * total energy  :  -176.4726890 Eh     change       -0.1271744E-02 Eh
 * total energy  :  -176.4735241 Eh     change       -0.8350431E-03 Eh
 * total energy  :  -176.4743504 Eh     change       -0.8263427E-03 Eh
 * total energy  :  -176.4752025 Eh     change       -0.8520414E-03 Eh
 * total energy  :  -176.4759796 Eh     change       -0.7771063E-03 Eh
 * total energy  :  -176.4820273 Eh     change        0.3488024E-04 Eh
 * total energy  :  -176.4820768 Eh     change       -0.4951610E-04 Eh
 * total energy  :  -176.4820864 Eh     change       -0.9566757E-05 Eh
 * total energy  :  -176.4821041 Eh     change       -0.1774477E-04 Eh
 * total energy  :  -176.4820975 Eh     change        0.6652261E-05 Eh
 * total energy  :  -176.4821139 Eh     change       -0.1642560E-04 Eh
 * total energy  :  -176.4821245 Eh     change       -0.1064645E-04 Eh
 * total energy  :  -176.4821327 Eh     change       -0.8171174E-05 Eh
 * total energy  :  -176.4821375 Eh     change       -0.4789575E-05 Eh
   *** GEOMETRY OPTIMIZATION CONVERGED AFTER 68 ITERATIONS ***

 final structure:
================
80
 xtb: 6.3.3 (4ae9cef)
C         1.73968501948698   -1.07355469763303    1.61033443232553
O         0.70260284306855   -0.48822522440876    2.26966365898006
C         0.56298843776984   -0.71813789410473    3.65714911540168
C         2.76774537028122   -1.77615475647224    2.22816445076558
C         3.79788287503752   -2.31197816133395    1.47507436567121
C         3.81654406574186   -2.16165767404851    0.10104998852583
C         2.79600947893236   -1.46377041362423   -0.52045529785545
C         1.76169039588395   -0.91098858003817    0.21583850013643
C         0.64830284560313   -0.18115912384209   -0.48112115620315
C        -0.67621050920614   -0.96758142241719   -0.44298882536050
C        -0.80662884649861   -1.86247749450339   -1.64321560990587
C        -1.34344688063362   -1.41568431779100   -2.83682031395111
C        -1.42776374632504   -2.25639310700992   -3.93332363831862
C        -0.95890874992124   -3.55209149734602   -3.83330959203916
C        -0.40007607766898   -4.01104591531263   -2.65231514205639
C        -0.31375851164843   -3.17203020378818   -1.54839563058229
O         0.23722953437051   -3.51733521222144   -0.35085614428868
C         0.74168886861835   -4.82162580620023   -0.19026526518607
N        -1.68601161937047    0.08464888550607   -0.38247447699424
C        -2.99803776648572   -0.30167553903612   -0.27680955813001
C        -3.98347679026882    0.81546908778575   -0.09562665056899
C        -3.98573567023449    1.92373718222304   -0.93031208969036
C        -4.94529901006845    2.91349039117861   -0.75905903008763
C        -4.94052154153365    4.09960727250353   -1.68674086768112
F        -3.69179684736729    4.45956185677258   -2.03179625467771
F        -5.58585077458699    3.84191754496403   -2.83710396182207
F        -5.51985388543318    5.18084434419808   -1.15630519890463
C        -5.90921195681168    2.80755594535837    0.23118460930396
C        -5.90921042063969    1.68088355512032    1.04430330955099
C        -6.95168916328132    1.58104833074270    2.12837574583098
F        -7.09455905228896    0.34401764028815    2.60885800563744
F        -6.65308606927493    2.37061587509806    3.17538150864263
F        -8.16235548404389    1.97307750806085    1.69997568400573
C        -4.96169813054461    0.68305094539133    0.88337354988106
O        -3.35473143990679   -1.44581371834434   -0.41898084388301
C        -1.14189494583870    1.21881428222984    0.31758287991951
C        -1.57301577651522    1.18182348627029    1.82478391726664
O        -1.09907521027757    2.14424257159483    2.57495884854157
O        -2.33834829522105    0.34599610177910    2.21308890742212
N         0.29537635202239    1.09482653978626    0.13114464282653
C         1.15191184424468    2.05497319672143    0.49335737534477
C         2.58928821176116    1.77881180253233    0.17580101511956
C         3.44755923373136    1.48414628886523    1.22820087887398
C         4.76251603501139    1.14001237161377    0.96337947385904
C         5.68440583203177    0.76170252554722    2.09331078869815
F         6.49980869167795   -0.24822673079897    1.76009201068933
F         5.01977848014144    0.37255120402106    3.18893545519601
F         6.47338570430694    1.78116335032843    2.46618801603813
C         5.25115115497503    1.13297658287287   -0.33660153943227
C         4.39870981400290    1.48838169592168   -1.36855087077849
C         4.87086897746599    1.47785165003520   -2.79946947833161
F         4.62371158629316    2.63860670093058   -3.42228284048913
F         4.23142024924803    0.52789625114008   -3.50925285605406
F         6.17682238824047    1.23577595412989   -2.92451201653195
C         3.06824222964418    1.80625131035151   -1.12415186011881
O         0.80184592504773    3.07846420153855    1.07317203256943
H        -0.37216988723252   -0.23882698819183    3.94032745514430
H         1.38830968596586   -0.27191644012910    4.21961566460334
H         0.50091215574048   -1.78691583033790    3.87576878674965
H         2.77676111038081   -1.90569348449348    3.29783873854470
H         4.59076461091129   -2.84869285316956    1.97258933729094
H         4.61817625338499   -2.58393700306851   -0.48365323105189
H         2.79618846924211   -1.34870208863384   -1.59465570986422
H         0.92773727731767   -0.01024326009864   -1.52969225121932
H        -0.72820590706804   -1.58169362278575    0.46376955392967
H        -1.71222102289701   -0.40305407188852   -2.90294627717002
H        -1.85870821296100   -1.90113909198916   -4.85608446680677
H        -1.02343504947107   -4.21864618755463   -4.67993078405290
H        -0.03787609934480   -5.02521777330964   -2.60178549884434
H         1.12140236236253   -4.86312569297724    0.82930867884656
H        -0.04138890078869   -5.57459499319222   -0.31762683711841
H         1.56203520793592   -5.02081434816377   -0.88660650534208
H        -3.25887230990561    2.01641333270237   -1.72393652262504
H        -6.64970896486213    3.58171010383840    0.36419545607174
H        -4.96065848497544   -0.19356615961229    1.51226343333371
H        -1.48679276875231    2.17872120726669   -0.09904435278046
H        -0.43530291687296    2.72330856887495    2.10072623932591
H         3.08072293331722    1.50142778164029    2.24282712882492
H         6.27492572687524    0.85598904039445   -0.53670104580597
H         2.42048645894579    2.07202391175655   -1.94619514707890

          :  Hamiltonian                  GFN2-xTB          :
         :: total energy            -176.482137492060 Eh    ::
         :: gradient norm              0.000356484711 Eh/a0 ::
         :: HOMO-LUMO gap              2.130217155350 eV    ::
         :: SCC energy              -178.249651841866 Eh    ::
         :: -> dispersion             -0.119446350406 Eh    ::
         :: repulsion energy           1.762737327079 Eh    ::

    * Orbital Energies and Occupations

         #    Occupation            Energy/Eh            Energy/eV
      -------------------------------------------------------------
         1        2.0000           -0.9069069             -24.6782
       ...           ...                  ...                  ...
       137        2.0000           -0.4670632             -12.7094
       138        2.0000           -0.4657961             -12.6750
       139        2.0000           -0.4607972             -12.5389
       140        2.0000           -0.4566144             -12.4251
       141        2.0000           -0.4546753             -12.3723
       142        2.0000           -0.4433054             -12.0630
       143        2.0000           -0.4388021             -11.9404
       144        2.0000           -0.4377123             -11.9108
       145        2.0000           -0.4290781             -11.6758
       146        2.0000           -0.4218895             -11.4802
       147        2.0000           -0.4159786             -11.3194
       148        2.0000           -0.4124131             -11.2223
       149        2.0000           -0.3958073             -10.7705 (HOMO)
       150                         -0.3175233              -8.6402 (LUMO)
       151                         -0.3154723              -8.5844
       152                         -0.3012055              -8.1962
       153                         -0.2982362              -8.1154
       154                         -0.2726286              -7.4186
       155                         -0.2658866              -7.2351
       156                         -0.2616248              -7.1192
       157                         -0.2494896              -6.7890
       158                         -0.2426685              -6.6033
       159                         -0.2385988              -6.4926
       160                         -0.2314492              -6.2981
       ...                                ...                  ...
       248                          0.6501592              17.6917
      -------------------------------------------------------------
                  HL-Gap            0.0782840 Eh            2.1302 eV

     #   Z          covCN         q      C6AA      Î±(0)
     1   6 C        2.866     0.141    24.918     8.182
     2   8 O        1.705    -0.282    18.680     5.835
     3   6 C        3.642     0.033    20.365     6.488
     4   6 C        2.917    -0.066    29.633     8.927
     5   6 C        2.921    -0.031    28.768     8.796
     6   6 C        2.917    -0.043    29.066     8.841
     7   6 C        2.924    -0.039    28.978     8.828
     8   6 C        2.972    -0.028    28.688     8.786
     9   6 C        3.822     0.039    19.906     6.349
    10   6 C        3.843     0.051    19.696     6.313
    11   6 C        2.974    -0.013    28.325     8.730
    12   6 C        2.923    -0.030    28.757     8.794
    13   6 C        2.918    -0.038    28.950     8.823
    14   6 C        2.921    -0.029    28.718     8.788
    15   6 C        2.917    -0.063    29.576     8.918
    16   6 C        2.869     0.142    24.908     8.181
    17   8 O        1.705    -0.275    18.570     5.818
    18   6 C        3.644     0.036    20.311     6.478
    19   7 N        2.761    -0.120    23.614     7.217
    20   6 C        2.769     0.284    22.189     7.715
    21   6 C        2.975     0.002    27.977     8.676
    22   6 C        2.923    -0.024    28.597     8.770
    23   6 C        2.977    -0.015    28.392     8.740
    24   6 C        3.336     0.488    17.261     6.580
    25   9 F        0.791    -0.205    11.290     3.969
    26   9 F        0.791    -0.200    11.231     3.959
    27   9 F        0.791    -0.195    11.187     3.951
    28   6 C        2.922    -0.016    28.413     8.741
    29   6 C        2.977    -0.010    28.254     8.719
    30   6 C        3.336     0.488    17.255     6.578
    31   9 F        0.791    -0.192    11.154     3.945
    32   9 F        0.791    -0.200    11.235     3.959
    33   9 F        0.791    -0.200    11.238     3.960
    34   6 C        2.924    -0.003    28.107     8.694
    35   8 O        0.859    -0.380    21.278     6.185
    36   6 C        3.765     0.072    19.408     6.279
    37   6 C        2.683     0.355    20.979     7.496
    38   8 O        1.654    -0.361    20.101     6.052
    39   8 O        0.856    -0.369    21.077     6.155
    40   7 N        2.763    -0.083    22.857     7.101
    41   6 C        2.764     0.271    22.417     7.754
    42   6 C        2.980     0.010    27.790     8.647
    43   6 C        2.925    -0.009    28.248     8.716
    44   6 C        2.978    -0.011    28.295     8.725
    45   6 C        3.336     0.488    17.259     6.579
    46   9 F        0.791    -0.197    11.207     3.954
    47   9 F        0.791    -0.198    11.219     3.957
    48   9 F        0.791    -0.195    11.180     3.950
    49   6 C        2.921    -0.016    28.404     8.740
    50   6 C        2.979    -0.011    28.273     8.722
    51   6 C        3.336     0.489    17.245     6.576
    52   9 F        0.791    -0.196    11.189     3.951
    53   9 F        0.791    -0.204    11.275     3.966
    54   9 F        0.791    -0.192    11.153     3.945
    55   6 C        2.923    -0.015    28.396     8.739
    56   8 O        0.859    -0.442    22.534     6.365
    57   1 H        0.925     0.081     1.964     2.192
    58   1 H        0.924     0.045     2.382     2.414
    59   1 H        0.924     0.051     2.310     2.377
    60   1 H        0.926     0.056     2.250     2.346
    61   1 H        0.926     0.054     2.276     2.359
    62   1 H        0.926     0.048     2.348     2.396
    63   1 H        0.926     0.039     2.457     2.451
    64   1 H        0.923     0.055     2.256     2.349
    65   1 H        0.924     0.085     1.923     2.169
    66   1 H        0.926     0.036     2.500     2.472
    67   1 H        0.926     0.045     2.386     2.416
    68   1 H        0.926     0.046     2.376     2.411
    69   1 H        0.926     0.045     2.379     2.412
    70   1 H        0.925     0.062     2.175     2.306
    71   1 H        0.924     0.051     2.310     2.377
    72   1 H        0.924     0.043     2.416     2.431
    73   1 H        0.926     0.070     2.085     2.258
    74   1 H        0.926     0.090     1.883     2.146
    75   1 H        0.926     0.108     1.716     2.048
    76   1 H        0.923     0.068     2.103     2.268
    77   1 H        0.800     0.371     0.543     1.158
    78   1 H        0.926     0.087     1.912     2.162
    79   1 H        0.926     0.095     1.830     2.116
    80   1 H        0.926     0.079     1.992     2.207

Wiberg/Mayer (AO) data.
largest (>0.10) Wiberg bond orders for each atom

     #   Z sym  total        # sym  WBO       # sym  WBO       # sym  WBO
 ---------------------------------------------------------------------------
     1   6 C    3.937 --     4 C    1.377     8 C    1.319     2 O    1.069
     2   8 O    2.233 --     1 C    1.069     3 C    0.971
     3   6 C    3.932 --    59 H    0.977    58 H    0.977    57 H    0.976
                             2 O    0.971
     4   6 C    3.987 --     5 C    1.439     1 C    1.377    60 H    0.964
                             7 C    0.102
     5   6 C    3.989 --     4 C    1.439     6 C    1.438    61 H    0.969
                             8 C    0.105
     6   6 C    3.990 --     5 C    1.438     7 C    1.429    62 H    0.970
     7   6 C    3.989 --     8 C    1.431     6 C    1.429    63 H    0.967
                             4 C    0.102
     8   6 C    3.980 --     7 C    1.431     1 C    1.319     9 C    0.994
                             5 C    0.105
     9   6 C    3.958 --     8 C    0.994    64 H    0.952    10 C    0.950
                            40 N    0.949
    10   6 C    3.957 --    11 C    0.994    19 N    0.955     9 C    0.950
                            65 H    0.945
    11   6 C    3.981 --    12 C    1.438    16 C    1.322    10 C    0.994
                            14 C    0.106
    12   6 C    3.990 --    11 C    1.438    13 C    1.425    66 H    0.968
                            15 C    0.103
    13   6 C    3.991 --    14 C    1.444    12 C    1.425    67 H    0.970
    14   6 C    3.990 --    13 C    1.444    15 C    1.436    68 H    0.970
                            11 C    0.106
    15   6 C    3.987 --    14 C    1.436    16 C    1.381    69 H    0.965
                            12 C    0.103
    16   6 C    3.935 --    15 C    1.381    11 C    1.322    17 O    1.062
    17   8 O    2.231 --    16 C    1.062    18 C    0.981
    18   6 C    3.942 --    17 O    0.981    70 H    0.980    72 H    0.977
                            71 H    0.976
    19   7 N    3.415 --    20 C    1.168    36 C    1.000    10 C    0.955
                            35 O    0.180
    20   6 C    3.952 --    35 O    1.729    19 N    1.168    21 C    0.962
    21   6 C    3.986 --    22 C    1.414    34 C    1.396    20 C    0.962
                            28 C    0.109
    22   6 C    3.988 --    21 C    1.414    23 C    1.411    73 H    0.963
                            29 C    0.103
    23   6 C    3.979 --    28 C    1.421    22 C    1.411    24 C    0.949
                            34 C    0.105
    24   6 C    3.834 --    27 F    0.958    23 C    0.949    26 F    0.946
                            25 F    0.946
    25   9 F    1.071 --    24 C    0.946
    26   9 F    1.078 --    24 C    0.946
    27   9 F    1.084 --    24 C    0.958
    28   6 C    3.985 --    23 C    1.421    29 C    1.409    74 H    0.962
                            21 C    0.109
    29   6 C    3.981 --    34 C    1.428    28 C    1.409    30 C    0.948
                            22 C    0.103
    30   6 C    3.838 --    31 F    0.961    33 F    0.949    29 C    0.948
                            32 F    0.945
    31   9 F    1.087 --    30 C    0.961
    32   9 F    1.077 --    30 C    0.945
    33   9 F    1.076 --    30 C    0.949
    34   6 C    3.978 --    29 C    1.428    21 C    1.396    75 H    0.957
                            23 C    0.105
    35   8 O    2.059 --    20 C    1.729    19 N    0.180
    36   6 C    3.959 --    19 N    1.000    40 N    0.969    76 H    0.937
                            37 C    0.880
    37   6 C    3.931 --    39 O    1.767    38 O    1.221    36 C    0.880
    38   8 O    2.250 --    37 C    1.221    77 H    0.757    39 O    0.182
    39   8 O    2.090 --    37 C    1.767    38 O    0.182
    40   7 N    3.532 --    41 C    1.301    36 C    0.969     9 C    0.949
                            56 O    0.199
    41   6 C    3.954 --    56 O    1.593    40 N    1.301    42 C    0.959
    42   6 C    3.988 --    55 C    1.418    43 C    1.397    41 C    0.959
                            49 C    0.110
    43   6 C    3.984 --    44 C    1.427    42 C    1.397    78 H    0.962
                            50 C    0.105
    44   6 C    3.981 --    43 C    1.427    49 C    1.406    45 C    0.949
                            55 C    0.105
    45   6 C    3.839 --    47 F    0.953    46 F    0.952    48 F    0.950
                            44 C    0.949
    46   9 F    1.079 --    45 C    0.952
    47   9 F    1.079 --    45 C    0.953
    48   9 F    1.082 --    45 C    0.950
    49   6 C    3.983 --    50 C    1.426    44 C    1.406    79 H    0.960
                            42 C    0.110
    50   6 C    3.981 --    49 C    1.426    55 C    1.408    51 C    0.949
                            43 C    0.105
    51   6 C    3.839 --    54 F    0.962    52 F    0.952    50 C    0.949
                            53 F    0.941
    52   9 F    1.082 --    51 C    0.952
    53   9 F    1.072 --    51 C    0.941
    54   9 F    1.087 --    51 C    0.962
    55   6 C    3.986 --    42 C    1.418    50 C    1.408    80 H    0.964
                            44 C    0.105
    56   8 O    2.025 --    41 C    1.593    40 N    0.199
    57   1 H    0.993 --     3 C    0.976
    58   1 H    0.998 --     3 C    0.977
    59   1 H    0.997 --     3 C    0.977
    60   1 H    0.997 --     4 C    0.964
    61   1 H    0.997 --     5 C    0.969
    62   1 H    0.997 --     6 C    0.970
    63   1 H    0.998 --     7 C    0.967
    64   1 H    0.997 --     9 C    0.952
    65   1 H    0.992 --    10 C    0.945
    66   1 H    0.998 --    12 C    0.968
    67   1 H    0.998 --    13 C    0.970
    68   1 H    0.997 --    14 C    0.970
    69   1 H    0.997 --    15 C    0.965
    70   1 H    0.996 --    18 C    0.980
    71   1 H    0.997 --    18 C    0.976
    72   1 H    0.998 --    18 C    0.977
    73   1 H    0.995 --    22 C    0.963
    74   1 H    0.991 --    28 C    0.962
    75   1 H    0.988 --    34 C    0.957
    76   1 H    0.995 --    36 C    0.937
    77   1 H    0.862 --    38 O    0.757
    78   1 H    0.992 --    43 C    0.962
    79   1 H    0.990 --    49 C    0.960
    80   1 H    0.993 --    55 C    0.964
 ---------------------------------------------------------------------------

molecular dipole:
                 x           y           z       tot (Debye)
 q only:        2.028      -1.826      -0.454
   full:        2.334      -1.682      -0.535       7.438

           -------------------------------------------------
          | TOTAL ENERGY             -176.482137492060 Eh   |
          | GRADIENT NORM               0.000356484711 Eh/Î± |
          | HOMO-LUMO GAP               2.130217155350 eV   |
           -------------------------------------------------

 * finished run on 2022/03/17 at 01:18:22.022
