   * xtb version 6.3.3 (4ae9cef) compiled by 'conda@95abc7406d43' on 2020-10-14
          program call               : xtb acid_479.xyz --opt --chrg 0 --uhf 0 --gfn 2
          number of atoms            :                    76
          number of electrons        :                   246
          charge                     :                     0
          spin                       :                   0.0

   ID    Z sym.   atoms
    1    6 C      1-22, 24-26, 30-33, 35, 36, 40-46
    2    7 N      23, 27, 39, 47
    3    8 O      28, 29, 34, 37, 38, 48-50
    4    1 H      51-76

          :  Hamiltonian                  GFN2-xTB          :
 * total energy  :  -138.6703194 Eh     change       -0.4333572E-08 Eh
 * total energy  :  -138.6914565 Eh     change       -0.2113712E-01 Eh
 * total energy  :  -138.6968023 Eh     change       -0.5345762E-02 Eh
 * total energy  :  -138.6991793 Eh     change       -0.2377050E-02 Eh
 * total energy  :  -138.7006758 Eh     change       -0.1496471E-02 Eh
 * total energy  :  -138.7017916 Eh     change       -0.1115764E-02 Eh
 * total energy  :  -138.7025897 Eh     change       -0.7981601E-03 Eh
 * total energy  :  -138.7034718 Eh     change       -0.8820262E-03 Eh
 * total energy  :  -138.7045707 Eh     change       -0.1098887E-02 Eh
 * total energy  :  -138.7053366 Eh     change       -0.7659346E-03 Eh
 * total energy  :  -138.7181114 Eh     change       -0.7968526E-05 Eh
 * total energy  :  -138.7181186 Eh     change       -0.7250803E-05 Eh
 * total energy  :  -138.7181265 Eh     change       -0.7918733E-05 Eh
 * total energy  :  -138.7181351 Eh     change       -0.8542835E-05 Eh
 * total energy  :  -138.7181436 Eh     change       -0.8567472E-05 Eh
 * total energy  :  -138.7181517 Eh     change       -0.8083016E-05 Eh
 * total energy  :  -138.7181591 Eh     change       -0.7422799E-05 Eh
 * total energy  :  -138.7181660 Eh     change       -0.6860901E-05 Eh
 * total energy  :  -138.7181692 Eh     change       -0.3174399E-05 Eh
   *** GEOMETRY OPTIMIZATION CONVERGED AFTER 68 ITERATIONS ***

 final structure:
================
76
 xtb: 6.3.3 (4ae9cef)
C        -2.60650122826316    2.11539244265843   -0.91903142796292
C        -3.78338218471945    2.62920328999947   -0.45530093970473
C        -4.45885955448416    2.02571491796875    0.62551361279718
C        -5.68109145921466    2.52249668786364    1.12382130067026
C        -6.30797075634761    1.90812667059563    2.17144045692053
C        -5.74274311999362    0.76971390981927    2.76874602854746
C        -4.55862961026266    0.26480268208043    2.31028363041022
C        -3.88702401888337    0.87657891314666    1.23122849438014
C        -2.66307350845541    0.37908248004047    0.74369450097747
C        -2.03936542880193    0.97545902343653   -0.32015755306487
C        -0.70937827002564    0.48106033781435   -0.81842661272253
C         0.43328497634452    0.94527799174040    0.10348182031037
C         1.07283705587867    2.21781030744812   -0.37275836743378
C         0.76570933399114    3.40899986006368    0.22851081648949
C         1.32669994978712    4.61835498943223   -0.22723482796840
C         1.02546069753365    5.85676800010633    0.37731385545267
C         1.59125698516065    7.01291783806029   -0.08159422367224
C         2.48258011466601    6.98520427354105   -1.16600702445605
C         2.79321305612073    5.80131794487006   -1.77419501059765
C         2.22674395270226    4.59091149624064   -1.32437166728701
C         2.52260027204979    3.35057656940171   -1.92723764370832
C         1.95705427938910    2.19621115492748   -1.46791124933874
N         1.35295589249665   -0.18951757613594    0.12208218500510
C         2.30495029834769   -0.23874163460487    1.09637949154893
C         2.95939818741555   -1.58485387902051    1.27309489659472
C         2.56340759935120   -2.43265767159994    2.30799865275220
N         1.45118741366217   -2.05064562397080    3.14370710079274
O         0.65593324055996   -1.26697080196051    2.66285749831295
O         1.38582142403618   -2.52476364262600    4.24957481178500
C         3.20231394199093   -3.64173950826616    2.54016483889008
C         4.25261235931734   -4.01549424898966    1.72323509074215
C         4.66910324407058   -3.17490430784175    0.70200502553332
C         4.03417644968567   -1.96346926745908    0.48238815916271
O         2.66346899349424    0.73322334132758    1.71662684071511
C         0.75573842925073   -1.36988464227238   -0.44733802190081
C         1.53829918263115   -1.86131213760168   -1.68415492291430
O         1.50432407490105   -0.98820768781530   -2.68134183771058
O         2.10182487939739   -2.92060259444725   -1.73904787458673
N        -0.58179288732630   -0.97227564201763   -0.80551204229141
C        -1.50601664931444   -1.77444537698193   -1.39434834437231
C        -1.11766192785880   -3.22850867643528   -1.48743871388258
C        -0.99977847147246   -3.77492534594975   -2.75968062620383
C        -0.61268545341796   -5.09280578869820   -2.93267558204151
C        -0.33234033864024   -5.89078907146333   -1.83475650312138
C        -0.46028765986834   -5.37248082672260   -0.56056689152471
C        -0.86624958560982   -4.05549875495872   -0.39359158680971
N        -1.02657729285488   -3.56292303059145    0.95187270367978
O        -1.89380329011783   -2.74736499872580    1.15647009384844
O        -0.26022445779024   -3.99988296027953    1.78958043017550
O        -2.52819143246391   -1.36277093049577   -1.88953779658072
H        -2.09622209790118    2.58140352932373   -1.75005072391026
H        -4.21644448541718    3.50558388394108   -0.91625300718222
H        -6.11341414139475    3.39828279673700    0.66030400991771
H        -7.24451480860067    2.29363830425618    2.54809498516438
H        -6.25506915825961    0.29746066662178    3.59434708994474
H        -4.11658642637902   -0.61204955156307    2.75949357463738
H        -2.23750773349414   -0.49430197995996    1.21511095392142
H        -0.53732810100819    0.84297335949086   -1.84224878229206
H         0.05453878507163    1.08544017373413    1.12446163225853
H         0.08579887464079    3.43292612604724    1.06771291298823
H         0.34013639482792    5.87121482981476    1.21234071871879
H         1.35827241059881    7.95787541820858    0.38695363688876
H         2.92107180640405    7.90890461495366   -1.51452623951617
H         3.47937948211628    5.77541819817537   -2.60907321058558
H         3.20738550888492    3.33080063952214   -2.76353767462735
H         2.18451144435442    1.25078852407451   -1.93757823307477
H         2.85332204639942   -4.26766408279488    3.34680198817357
H         4.75024625926691   -4.95880937737498    1.88480139257799
H         5.49608731096466   -3.46295703488735    0.07162988797061
H         4.37463309544727   -1.30148380314135   -0.29912638523725
H         0.77785662199064   -2.19695444783059    0.27461938850110
H         1.99473747484732   -1.31143291792334   -3.45604568295322
H        -1.21624656340140   -3.14863766147972   -3.61199329983817
H        -0.52612911912193   -5.49733053316342   -3.92934467867072
H        -0.02335154077753   -6.91518231505592   -1.96985805664809
H        -0.26448803809497   -5.97267485436683    0.31510575825030

          :  Hamiltonian                  GFN2-xTB          :
         :: total energy            -138.718169176328 Eh    ::
         :: gradient norm              0.000287520514 Eh/a0 ::
         :: HOMO-LUMO gap              0.983914064017 eV    ::
         :: SCC energy              -140.718579590451 Eh    ::
         :: -> dispersion             -0.116685745925 Eh    ::
         :: repulsion energy           1.996691677333 Eh    ::

    * Orbital Energies and Occupations

         #    Occupation            Energy/Eh            Energy/eV
      -------------------------------------------------------------
         1        2.0000           -0.7953456             -21.6425
       ...           ...                  ...                  ...
       111        2.0000           -0.4252029             -11.5704
       112        2.0000           -0.4210593             -11.4576
       113        2.0000           -0.4187986             -11.3961
       114        2.0000           -0.4172407             -11.3537
       115        2.0000           -0.4149917             -11.2925
       116        2.0000           -0.4145362             -11.2801
       117        2.0000           -0.4096498             -11.1471
       118        2.0000           -0.4076647             -11.0931
       119        2.0000           -0.4044216             -11.0049
       120        2.0000           -0.3994980             -10.8709
       121        2.0000           -0.3898950             -10.6096
       122        2.0000           -0.3807050             -10.3595
       123        2.0000           -0.3691859             -10.0461 (HOMO)
       124                         -0.3330277              -9.0621 (LUMO)
       125                         -0.3200908              -8.7101
       126                         -0.2894815              -7.8772
       127                         -0.2782455              -7.5714
       128                         -0.2657806              -7.2323
       129                         -0.2623131              -7.1379
       130                         -0.2621295              -7.1329
       131                         -0.2511155              -6.8332
       132                         -0.2474489              -6.7334
       133                         -0.2325637              -6.3284
       134                         -0.2303243              -6.2674
       ...                                ...                  ...
       226                          0.7067157              19.2307
      -------------------------------------------------------------
                  HL-Gap            0.0361582 Eh            0.9839 eV

     #   Z          covCN         q      C6AA      Î±(0)
     1   6 C        2.919    -0.034    28.847     8.808
     2   6 C        2.918    -0.034    28.841     8.807
     3   6 C        2.987     0.014    27.694     8.632
     4   6 C        2.918    -0.035    28.872     8.811
     5   6 C        2.916    -0.029    28.737     8.791
     6   6 C        2.916    -0.029    28.730     8.790
     7   6 C        2.919    -0.031    28.782     8.798
     8   6 C        2.988     0.020    27.564     8.612
     9   6 C        2.922    -0.035    28.869     8.811
    10   6 C        2.971     0.009    27.810     8.650
    11   6 C        3.827     0.047    19.764     6.326
    12   6 C        3.832     0.044    19.808     6.332
    13   6 C        2.970     0.010    27.793     8.647
    14   6 C        2.924    -0.035    28.869     8.811
    15   6 C        2.987     0.018    27.606     8.619
    16   6 C        2.918    -0.032    28.809     8.802
    17   6 C        2.916    -0.028    28.710     8.787
    18   6 C        2.916    -0.029    28.725     8.789
    19   6 C        2.918    -0.034    28.856     8.809
    20   6 C        2.987     0.014    27.699     8.633
    21   6 C        2.917    -0.035    28.869     8.811
    22   6 C        2.919    -0.035    28.882     8.813
    23   7 N        2.760    -0.112    23.440     7.191
    24   6 C        2.766     0.284    22.187     7.714
    25   6 C        2.972    -0.009    28.227     8.715
    26   6 C        2.921     0.009    27.828     8.651
    27   7 N        2.760     0.559    13.383     5.433
    28   8 O        0.931    -0.395    21.549     6.226
    29   8 O        0.930    -0.356    20.785     6.114
    30   6 C        2.918    -0.016    28.402     8.739
    31   6 C        2.921    -0.020    28.499     8.754
    32   6 C        2.919    -0.012    28.319     8.727
    33   6 C        2.923    -0.018    28.470     8.750
    34   8 O        0.859    -0.393    21.547     6.224
    35   6 C        3.761     0.095    19.055     6.223
    36   6 C        2.688     0.344    21.156     7.527
    37   8 O        1.659    -0.346    19.827     6.011
    38   8 O        0.856    -0.398    21.645     6.238
    39   7 N        2.762    -0.105    23.308     7.170
    40   6 C        2.761     0.278    22.299     7.733
    41   6 C        2.970    -0.008    28.218     8.713
    42   6 C        2.928    -0.018    28.448     8.747
    43   6 C        2.919    -0.014    28.358     8.733
    44   6 C        2.920    -0.017    28.445     8.746
    45   6 C        2.920    -0.017    28.429     8.744
    46   6 C        2.919     0.004    27.926     8.666
    47   7 N        2.760     0.541    13.571     5.471
    48   8 O        0.930    -0.360    20.865     6.126
    49   8 O        0.930    -0.399    21.635     6.238
    50   8 O        0.859    -0.392    21.513     6.219
    51   1 H        0.926     0.028     2.620     2.531
    52   1 H        0.926     0.035     2.511     2.478
    53   1 H        0.926     0.030     2.581     2.513
    54   1 H        0.926     0.030     2.592     2.517
    55   1 H        0.926     0.032     2.559     2.501
    56   1 H        0.926     0.046     2.369     2.407
    57   1 H        0.926     0.064     2.150     2.293
    58   1 H        0.923     0.055     2.254     2.348
    59   1 H        0.923     0.075     2.033     2.230
    60   1 H        0.926     0.041     2.431     2.438
    61   1 H        0.926     0.037     2.486     2.466
    62   1 H        0.926     0.034     2.536     2.490
    63   1 H        0.926     0.032     2.555     2.500
    64   1 H        0.926     0.032     2.560     2.502
    65   1 H        0.926     0.033     2.538     2.491
    66   1 H        0.926     0.032     2.557     2.501
    67   1 H        0.926     0.088     1.896     2.153
    68   1 H        0.926     0.062     2.176     2.307
    69   1 H        0.926     0.061     2.183     2.310
    70   1 H        0.926     0.051     2.308     2.376
    71   1 H        0.923     0.056     2.246     2.344
    72   1 H        0.804     0.345     0.601     1.218
    73   1 H        0.926     0.065     2.147     2.291
    74   1 H        0.926     0.063     2.166     2.302
    75   1 H        0.926     0.064     2.149     2.293
    76   1 H        0.926     0.080     1.978     2.199

Wiberg/Mayer (AO) data.
largest (>0.10) Wiberg bond orders for each atom

     #   Z sym  total        # sym  WBO       # sym  WBO       # sym  WBO
 ---------------------------------------------------------------------------
     1   6 C    3.990 --     2 C    1.560    10 C    1.296    51 H    0.968
     2   6 C    3.991 --     1 C    1.560     3 C    1.278    52 H    0.968
                             9 C    0.116
     3   6 C    3.989 --     4 C    1.281     2 C    1.278     8 C    1.250
     4   6 C    3.992 --     5 C    1.557     3 C    1.281    53 H    0.968
                             7 C    0.118
     5   6 C    3.990 --     4 C    1.557     6 C    1.320    54 H    0.971
     6   6 C    3.992 --     7 C    1.559     5 C    1.320    55 H    0.971
     7   6 C    3.989 --     6 C    1.559     8 C    1.277    56 H    0.967
                             4 C    0.118
     8   6 C    3.990 --     9 C    1.284     7 C    1.277     3 C    1.250
     9   6 C    3.987 --    10 C    1.523     8 C    1.284    57 H    0.956
                             2 C    0.116
    10   6 C    3.981 --     9 C    1.523     1 C    1.296    11 C    0.989
    11   6 C    3.952 --    10 C    0.989    12 C    0.953    58 H    0.952
                            39 N    0.948
    12   6 C    3.951 --    13 C    0.993    11 C    0.953    59 H    0.950
                            23 N    0.944
    13   6 C    3.985 --    14 C    1.524    22 C    1.295    12 C    0.993
    14   6 C    3.989 --    13 C    1.524    15 C    1.283    60 H    0.965
                            21 C    0.115
    15   6 C    3.990 --    14 C    1.283    16 C    1.278    20 C    1.251
    16   6 C    3.989 --    17 C    1.558    15 C    1.278    61 H    0.968
                            19 C    0.118
    17   6 C    3.992 --    16 C    1.558    18 C    1.321    62 H    0.971
    18   6 C    3.990 --    19 C    1.556    17 C    1.321    63 H    0.971
    19   6 C    3.992 --    18 C    1.556    20 C    1.282    64 H    0.968
                            16 C    0.118
    20   6 C    3.990 --    19 C    1.282    21 C    1.277    15 C    1.251
    21   6 C    3.992 --    22 C    1.563    20 C    1.277    65 H    0.968
                            14 C    0.115
    22   6 C    3.991 --    21 C    1.563    13 C    1.295    66 H    0.966
    23   7 N    3.437 --    24 C    1.189    35 C    0.988    12 C    0.944
                            34 O    0.183
    24   6 C    3.951 --    34 O    1.719    23 N    1.189    25 C    0.944
    25   6 C    3.985 --    33 C    1.417    26 C    1.355    24 C    0.944
                            31 C    0.105
    26   6 C    3.963 --    30 C    1.388    25 C    1.355    27 N    0.958
    27   7 N    3.917 --    29 O    1.479    28 O    1.434    26 C    0.958
    28   8 O    1.941 --    27 N    1.434    29 O    0.361
    29   8 O    1.964 --    27 N    1.479    28 O    0.361
    30   6 C    3.983 --    31 C    1.448    26 C    1.388    67 H    0.959
                            33 C    0.106
    31   6 C    3.990 --    30 C    1.448    32 C    1.431    68 H    0.968
                            25 C    0.105
    32   6 C    3.989 --    33 C    1.435    31 C    1.431    69 H    0.968
    33   6 C    3.990 --    32 C    1.435    25 C    1.417    70 H    0.968
                            30 C    0.106
    34   8 O    2.052 --    24 C    1.719    23 N    0.183
    35   6 C    3.975 --    23 N    0.988    39 N    0.988    71 H    0.938
                            36 C    0.907
    36   6 C    3.918 --    38 O    1.769    37 O    1.169    35 C    0.907
    37   8 O    2.239 --    36 C    1.169    72 H    0.854    38 O    0.185
    38   8 O    2.050 --    36 C    1.769    37 O    0.185
    39   7 N    3.469 --    40 C    1.208    35 C    0.988    11 C    0.948
                            50 O    0.195
    40   6 C    3.955 --    50 O    1.709    39 N    1.208    41 C    0.950
    41   6 C    3.984 --    42 C    1.412    46 C    1.354    40 C    0.950
                            44 C    0.106
    42   6 C    3.988 --    43 C    1.438    41 C    1.412    73 H    0.966
                            45 C    0.105
    43   6 C    3.988 --    42 C    1.438    44 C    1.431    74 H    0.968
    44   6 C    3.989 --    45 C    1.446    43 C    1.431    75 H    0.967
                            41 C    0.106
    45   6 C    3.984 --    44 C    1.446    46 C    1.389    76 H    0.961
                            42 C    0.105
    46   6 C    3.961 --    45 C    1.389    41 C    1.354    47 N    0.954
    47   7 N    3.910 --    48 O    1.468    49 O    1.432    46 C    0.954
    48   8 O    1.964 --    47 N    1.468    49 O    0.364
    49   8 O    1.917 --    47 N    1.432    48 O    0.364
    50   8 O    2.052 --    40 C    1.709    39 N    0.195
    51   1 H    0.999 --     1 C    0.968
    52   1 H    0.998 --     2 C    0.968
    53   1 H    0.999 --     4 C    0.968
    54   1 H    0.999 --     5 C    0.971
    55   1 H    0.999 --     6 C    0.971
    56   1 H    0.997 --     7 C    0.967
    57   1 H    0.995 --     9 C    0.956
    58   1 H    0.996 --    11 C    0.952
    59   1 H    0.993 --    12 C    0.950
    60   1 H    0.998 --    14 C    0.965
    61   1 H    0.998 --    16 C    0.968
    62   1 H    0.998 --    17 C    0.971
    63   1 H    0.999 --    18 C    0.971
    64   1 H    0.998 --    19 C    0.968
    65   1 H    0.998 --    21 C    0.968
    66   1 H    0.999 --    22 C    0.966
    67   1 H    0.992 --    30 C    0.959
    68   1 H    0.995 --    31 C    0.968
    69   1 H    0.996 --    32 C    0.968
    70   1 H    0.997 --    33 C    0.968
    71   1 H    0.996 --    35 C    0.938
    72   1 H    0.881 --    37 O    0.854
    73   1 H    0.995 --    42 C    0.966
    74   1 H    0.996 --    43 C    0.968
    75   1 H    0.995 --    44 C    0.967
    76   1 H    0.993 --    45 C    0.961
 ---------------------------------------------------------------------------

molecular dipole:
                 x           y           z       tot (Debye)
 q only:        1.600      -0.985      -3.021
   full:        1.851      -1.468      -3.224      10.160

           -------------------------------------------------
          | TOTAL ENERGY             -138.718169176328 Eh   |
          | GRADIENT NORM               0.000287520514 Eh/Î± |
          | HOMO-LUMO GAP               0.983914064017 eV   |
           -------------------------------------------------

 * finished run on 2022/03/17 at 01:40:54.164
