   * xtb version 6.3.3 (4ae9cef) compiled by 'conda@95abc7406d43' on 2020-10-14
          program call               : xtb acid_360.xyz --opt --chrg 0 --uhf 0 --gfn 2
          number of atoms            :                    72
          number of electrons        :                   226
          charge                     :                     0
          spin                       :                   0.0

   ID    Z sym.   atoms
    1    6 C      1-22, 24-26, 28-31, 33, 34, 38-44
    2    7 N      23, 37
    3   17 Cl     27, 45
    4    8 O      32, 35, 36, 46
    5    1 H      47-72

          :  Hamiltonian                  GFN2-xTB          :
 * total energy  :  -125.8683620 Eh     change       -0.5376393E-08 Eh
 * total energy  :  -125.8851720 Eh     change       -0.1681007E-01 Eh
 * total energy  :  -125.8895449 Eh     change       -0.4372831E-02 Eh
 * total energy  :  -125.8907210 Eh     change       -0.1176097E-02 Eh
 * total energy  :  -125.8913624 Eh     change       -0.6414522E-03 Eh
 * total energy  :  -125.8915978 Eh     change       -0.2354072E-03 Eh
 * total energy  :  -125.8917753 Eh     change       -0.1774614E-03 Eh
 * total energy  :  -125.8919708 Eh     change       -0.1955474E-03 Eh
 * total energy  :  -125.8921651 Eh     change       -0.1942081E-03 Eh
 * total energy  :  -125.8923643 Eh     change       -0.1992647E-03 Eh
 * total energy  :  -125.8955918 Eh     change       -0.2736812E-04 Eh
 * total energy  :  -125.8956155 Eh     change       -0.2365202E-04 Eh
 * total energy  :  -125.8956353 Eh     change       -0.1980559E-04 Eh
 * total energy  :  -125.8956454 Eh     change       -0.1008556E-04 Eh
 * total energy  :  -125.8956566 Eh     change       -0.1120333E-04 Eh
 * total energy  :  -125.8956627 Eh     change       -0.6094822E-05 Eh
 * total energy  :  -125.8956637 Eh     change       -0.1001500E-05 Eh
 * total energy  :  -125.8956691 Eh     change       -0.5467271E-05 Eh
 * total energy  :  -125.8956737 Eh     change       -0.4543619E-05 Eh
   *** GEOMETRY OPTIMIZATION CONVERGED AFTER 93 ITERATIONS ***

 final structure:
================
72
 xtb: 6.3.3 (4ae9cef)
C        -2.39279583061101   -2.72889443183712   -0.62990739822556
C        -3.63214426437158   -2.89535715413311   -1.17469927413169
C        -4.01782788920465   -2.17585482630640   -2.32506692982038
C        -5.29079877086835   -2.31802329947667   -2.91370402441555
C        -5.62790228734249   -1.59958501525220   -4.02684563766720
C        -4.70757033065264   -0.70929698580710   -4.60208657339794
C        -3.46479537465035   -0.55207268826375   -4.05566161652777
C        -3.08821155515259   -1.27651930480344   -2.90615753049287
C        -1.81696386577969   -1.11981768870365   -2.31687811684373
C        -1.46635458650445   -1.83009553275012   -1.20042031999442
C        -0.15162968345274   -1.66105924319944   -0.47096925384017
C         0.92074606396671   -0.86432696920056   -1.20570832896863
C         2.34283855799147   -1.09950613765586   -0.74378413664221
C         2.66276464413376   -1.62494945294908    0.48094809012407
C         4.00695041565314   -1.76954438902976    0.88363421471961
C         4.34952968112785   -2.31591798450917    2.13824511063910
C         5.65927032750845   -2.44664332649316    2.50615467180471
C         6.68412491136023   -2.03752066654953    1.63805261956242
C         6.38321160006961   -1.50302949427292    0.41640022047089
C         5.04208136787683   -1.35378471760929    0.00752338355675
C         4.68717087446232   -0.80608355686576   -1.24331134407657
C         3.37772976768757   -0.68207686902775   -1.60762860665543
N         0.54039920898278    0.51341969921731   -0.87634026987958
C         0.63208355898867    1.51839218696074   -1.78265518055960
C         0.18955620803349    2.85590999350931   -1.27210369182774
C        -0.91549835449831    3.50016567183211   -1.82436368401305
Cl       -1.85352282401287    2.70306856391765   -3.01776116715555
C        -1.28460425942256    4.76245169522374   -1.38269343105835
C        -0.53834090258090    5.39177231193193   -0.40382354911003
C         0.57478980091218    4.76879184203553    0.13849086033306
C         0.93656025508039    3.50639631613484   -0.29586700142159
O         1.08483039193249    1.34839720754741   -2.89254376146060
C        -0.11357806830863    0.56589235041105    0.41011799274912
C        -1.44558699774590    1.36474320614698    0.34006955956204
O        -1.58129636976649    2.33875904166303    1.25126922565824
O        -2.30766700071119    1.11278735370126   -0.44210317414964
N        -0.36254195645049   -0.82455617285248    0.71675622326366
C        -0.53504395374480   -1.35170378164837    1.95166640264754
C        -0.70381326157037   -0.33285818075954    3.04164017837942
C         0.37817909712033    0.08680230714621    3.80458017776874
C         0.19260051699996    0.99306817763525    4.83480124077184
C        -1.07715300217568    1.47458818348506    5.11124070783651
C        -2.16528794194695    1.05563495473620    4.36502352684509
C        -1.97680324537398    0.15064998614296    3.33137260724239
Cl       -3.31348877935548   -0.38307147169510    2.37234546256146
O        -0.54790070208196   -2.54445909335395    2.16096390901295
H        -2.10619017897955   -3.27620875220557    0.25638195321584
H        -4.33769649973345   -3.58156079408558   -0.72774295962738
H        -5.99604651074105   -3.00482051593161   -2.46692360000392
H        -6.60593304503168   -1.71117535558152   -4.47242053259308
H        -4.99202512710918   -0.14899537089522   -5.48095616646035
H        -2.75317611285852    0.13235946712069   -4.49457758949783
H        -1.14403405227120   -0.41359771869606   -2.77814137856431
H         0.20476779319204   -2.63952342849424   -0.13605855479146
H         0.87156412683179   -0.98714809465795   -2.29015866340145
H         1.90261158358974   -1.96007401719569    1.17044894425404
H         3.55634413083863   -2.63537083855531    2.79957851896289
H         5.91614424352766   -2.86805061693791    3.46688212404161
H         7.71351039529780   -2.15150276216737    1.94465504586512
H         7.16855861420633   -1.18855300721397   -0.25586003588989
H         5.47274493373294   -0.48653595424917   -1.91275205976061
H         3.11235587570278   -0.25325146829933   -2.56221665957172
H        -2.15056661983705    5.24097705232821   -1.81088742813056
H        -0.82469954548622    6.37535891594338   -0.06479258338473
H         1.16233440752171    5.26749909211104    0.89420645369122
H         1.81470362640675    3.01988416953199    0.10638626034248
H         0.54825154387407    1.00756974056145    1.18025836127170
H        -0.81762487637817    2.45303198980699    1.83247797820855
H         1.36211069476869   -0.30542107627092    3.59104615911408
H         1.03627426227520    1.31471319464439    5.42553132660350
H        -1.22395140196768    2.17556206256496    5.91833803495384
H        -3.15662245293649    1.41975147242845    4.57908866797899

          :  Hamiltonian                  GFN2-xTB          :
         :: total energy            -125.895673687326 Eh    ::
         :: gradient norm              0.000600895765 Eh/a0 ::
         :: HOMO-LUMO gap              2.588464579915 eV    ::
         :: SCC energy              -127.812626647738 Eh    ::
         :: -> dispersion             -0.114863680271 Eh    ::
         :: repulsion energy           1.913005683307 Eh    ::

    * Orbital Energies and Occupations

         #    Occupation            Energy/Eh            Energy/eV
      -------------------------------------------------------------
         1        2.0000           -1.0646504             -28.9706
       ...           ...                  ...                  ...
       101        2.0000           -0.4208350             -11.4515
       102        2.0000           -0.4193042             -11.4098
       103        2.0000           -0.4157544             -11.3133
       104        2.0000           -0.4136843             -11.2569
       105        2.0000           -0.4120561             -11.2126
       106        2.0000           -0.4099491             -11.1553
       107        2.0000           -0.4071184             -11.0783
       108        2.0000           -0.4062732             -11.0553
       109        2.0000           -0.4048905             -11.0176
       110        2.0000           -0.4041631             -10.9978
       111        2.0000           -0.3918948             -10.6640
       112        2.0000           -0.3884868             -10.5713
       113        2.0000           -0.3719978             -10.1226 (HOMO)
       114                         -0.2768734              -7.5341 (LUMO)
       115                         -0.2693034              -7.3281
       116                         -0.2629479              -7.1552
       117                         -0.2602040              -7.0805
       118                         -0.2574214              -7.0048
       119                         -0.2545945              -6.9279
       120                         -0.2529700              -6.8837
       121                         -0.2397433              -6.5237
       122                         -0.2329235              -6.3382
       123                         -0.2232328              -6.0745
       124                         -0.2215051              -6.0275
       ...                                ...                  ...
       220                          0.7031411              19.1334
      -------------------------------------------------------------
                  HL-Gap            0.0951243 Eh            2.5885 eV

     #   Z          covCN         q      C6AA      α(0)
     1   6 C        2.921    -0.036    28.887     8.814
     2   6 C        2.917    -0.033    28.811     8.802
     3   6 C        2.988     0.015    27.667     8.628
     4   6 C        2.918    -0.034    28.849     8.808
     5   6 C        2.916    -0.029    28.722     8.788
     6   6 C        2.916    -0.029    28.719     8.788
     7   6 C        2.919    -0.029    28.735     8.790
     8   6 C        2.988     0.020    27.555     8.611
     9   6 C        2.921    -0.032    28.790     8.799
    10   6 C        2.968    -0.002    28.065     8.690
    11   6 C        3.833     0.039    19.896     6.346
    12   6 C        3.835     0.036    19.939     6.353
    13   6 C        2.968    -0.003    28.107     8.696
    14   6 C        2.921    -0.046    29.148     8.854
    15   6 C        2.987     0.012    27.736     8.639
    16   6 C        2.919    -0.035    28.879     8.813
    17   6 C        2.916    -0.029    28.725     8.789
    18   6 C        2.916    -0.029    28.721     8.788
    19   6 C        2.918    -0.034    28.850     8.808
    20   6 C        2.987     0.013    27.727     8.638
    21   6 C        2.916    -0.034    28.844     8.807
    22   6 C        2.921    -0.037    28.927     8.820
    23   7 N        2.776    -0.114    23.474     7.196
    24   6 C        2.760     0.280    22.267     7.728
    25   6 C        3.013    -0.033    28.813     8.805
    26   6 C        2.889     0.107    25.626     8.299
    27  17 Cl       0.972    -0.126   103.093    15.534
    28   6 C        2.957    -0.033    28.832     8.807
    29   6 C        2.921    -0.023    28.571     8.765
    30   6 C        2.917    -0.035    28.883     8.813
    31   6 C        2.924    -0.036    28.903     8.816
    32   8 O        0.859    -0.407    21.828     6.264
    33   6 C        3.754     0.084    19.239     6.254
    34   6 C        2.685     0.349    21.079     7.513
    35   8 O        1.659    -0.362    20.119     6.055
    36   8 O        0.856    -0.325    20.246     6.033
    37   7 N        2.777    -0.109    23.379     7.181
    38   6 C        2.761     0.280    22.270     7.728
    39   6 C        3.013    -0.033    28.808     8.804
    40   6 C        2.922    -0.031    28.768     8.796
    41   6 C        2.918    -0.036    28.902     8.816
    42   6 C        2.921    -0.028    28.699     8.785
    43   6 C        2.949    -0.037    28.929     8.822
    44   6 C        2.889     0.098    25.818     8.330
    45  17 Cl       0.963    -0.152   103.906    15.595
    46   8 O        0.859    -0.410    21.873     6.270
    47   1 H        0.926     0.047     2.363     2.404
    48   1 H        0.926     0.035     2.514     2.479
    49   1 H        0.926     0.031     2.571     2.508
    50   1 H        0.926     0.030     2.589     2.516
    51   1 H        0.926     0.031     2.573     2.508
    52   1 H        0.926     0.037     2.496     2.470
    53   1 H        0.926     0.041     2.432     2.439
    54   1 H        0.924     0.081     1.971     2.196
    55   1 H        0.924     0.085     1.931     2.173
    56   1 H        0.926     0.037     2.494     2.469
    57   1 H        0.926     0.034     2.527     2.486
    58   1 H        0.926     0.033     2.542     2.493
    59   1 H        0.926     0.033     2.544     2.494
    60   1 H        0.926     0.034     2.525     2.485
    61   1 H        0.926     0.039     2.460     2.453
    62   1 H        0.926     0.054     2.271     2.357
    63   1 H        0.926     0.070     2.086     2.259
    64   1 H        0.926     0.056     2.252     2.347
    65   1 H        0.926     0.047     2.360     2.402
    66   1 H        0.925     0.037     2.493     2.469
    67   1 H        0.922     0.029     2.597     2.520
    68   1 H        0.805     0.323     0.656     1.272
    69   1 H        0.926     0.050     2.325     2.384
    70   1 H        0.926     0.051     2.302     2.373
    71   1 H        0.926     0.056     2.251     2.346
    72   1 H        0.926     0.070     2.081     2.256

Wiberg/Mayer (AO) data.
largest (>0.10) Wiberg bond orders for each atom

     #   Z sym  total        # sym  WBO       # sym  WBO       # sym  WBO
 ---------------------------------------------------------------------------
     1   6 C    3.990 --     2 C    1.568    10 C    1.289    47 H    0.967
     2   6 C    3.992 --     1 C    1.568     3 C    1.274    48 H    0.968
                             9 C    0.114
     3   6 C    3.990 --     4 C    1.282     2 C    1.274     8 C    1.253
     4   6 C    3.992 --     5 C    1.555     3 C    1.282    49 H    0.969
                             7 C    0.118
     5   6 C    3.990 --     4 C    1.555     6 C    1.322    50 H    0.971
     6   6 C    3.992 --     7 C    1.556     5 C    1.322    51 H    0.971
     7   6 C    3.990 --     6 C    1.556     8 C    1.280    52 H    0.968
                             4 C    0.118
     8   6 C    3.990 --     7 C    1.280     9 C    1.276     3 C    1.253
     9   6 C    3.990 --    10 C    1.535     8 C    1.276    53 H    0.961
                             2 C    0.114
    10   6 C    3.983 --     9 C    1.535     1 C    1.289    11 C    0.981
    11   6 C    3.952 --    12 C    0.981    10 C    0.981    54 H    0.948
                            37 N    0.936
    12   6 C    3.955 --    13 C    0.982    11 C    0.981    55 H    0.947
                            23 N    0.939
    13   6 C    3.984 --    14 C    1.533    22 C    1.291    12 C    0.982
    14   6 C    3.989 --    13 C    1.533    15 C    1.278    56 H    0.962
                            21 C    0.114
    15   6 C    3.990 --    16 C    1.279    14 C    1.278    20 C    1.253
    16   6 C    3.990 --    17 C    1.557    15 C    1.279    57 H    0.968
                            19 C    0.118
    17   6 C    3.992 --    16 C    1.557    18 C    1.321    58 H    0.971
    18   6 C    3.990 --    19 C    1.556    17 C    1.321    59 H    0.971
    19   6 C    3.992 --    18 C    1.556    20 C    1.282    60 H    0.968
                            16 C    0.118
    20   6 C    3.990 --    19 C    1.282    21 C    1.275    15 C    1.253
    21   6 C    3.991 --    22 C    1.567    20 C    1.275    61 H    0.967
                            14 C    0.114
    22   6 C    3.989 --    21 C    1.567    13 C    1.291    62 H    0.966
    23   7 N    3.465 --    24 C    1.213    33 C    0.988    12 C    0.939
                            32 O    0.194
    24   6 C    3.950 --    32 O    1.697    23 N    1.213    25 C    0.955
    25   6 C    3.985 --    31 C    1.398    26 C    1.364    24 C    0.955
                            29 C    0.104
    26   6 C    3.929 --    28 C    1.395    25 C    1.364    27 Cl   1.009
    27  17 Cl   1.171 --    26 C    1.009
    28   6 C    3.987 --    29 C    1.449    26 C    1.395    63 H    0.965
                            31 C    0.108
    29   6 C    3.990 --    28 C    1.449    30 C    1.425    64 H    0.969
                            25 C    0.104
    30   6 C    3.991 --    31 C    1.445    29 C    1.425    65 H    0.969
    31   6 C    3.990 --    30 C    1.445    25 C    1.398    66 H    0.969
                            28 C    0.108
    32   8 O    2.034 --    24 C    1.697    23 N    0.194
    33   6 C    3.975 --    23 N    0.988    37 N    0.986    67 H    0.943
                            34 C    0.899
    34   6 C    3.924 --    36 O    1.823    35 O    1.125    33 C    0.899
    35   8 O    2.213 --    34 C    1.125    68 H    0.867    36 O    0.168
    36   8 O    2.117 --    34 C    1.823    35 O    0.168
    37   7 N    3.477 --    38 C    1.223    33 C    0.986    11 C    0.936
                            46 O    0.197
    38   6 C    3.950 --    46 O    1.694    37 N    1.223    39 C    0.947
    39   6 C    3.984 --    40 C    1.411    44 C    1.370    38 C    0.947
                            42 C    0.107
    40   6 C    3.989 --    41 C    1.437    39 C    1.411    69 H    0.968
                            43 C    0.109
    41   6 C    3.991 --    40 C    1.437    42 C    1.433    70 H    0.969
                            44 C    0.100
    42   6 C    3.990 --    43 C    1.443    41 C    1.433    71 H    0.969
                            39 C    0.107
    43   6 C    3.986 --    42 C    1.443    44 C    1.399    72 H    0.965
                            40 C    0.109
    44   6 C    3.922 --    43 C    1.399    39 C    1.370    45 Cl   0.991
                            41 C    0.100
    45  17 Cl   1.144 --    44 C    0.991
    46   8 O    2.032 --    38 C    1.694    37 N    0.197
    47   1 H    0.997 --     1 C    0.967
    48   1 H    0.998 --     2 C    0.968
    49   1 H    0.999 --     4 C    0.969
    50   1 H    0.999 --     5 C    0.971
    51   1 H    0.999 --     6 C    0.971
    52   1 H    0.998 --     7 C    0.968
    53   1 H    0.998 --     9 C    0.961
    54   1 H    0.992 --    11 C    0.948
    55   1 H    0.991 --    12 C    0.947
    56   1 H    0.998 --    14 C    0.962
    57   1 H    0.998 --    16 C    0.968
    58   1 H    0.998 --    17 C    0.971
    59   1 H    0.998 --    18 C    0.971
    60   1 H    0.998 --    19 C    0.968
    61   1 H    0.998 --    21 C    0.967
    62   1 H    0.997 --    22 C    0.966
    63   1 H    0.995 --    28 C    0.965
    64   1 H    0.996 --    29 C    0.969
    65   1 H    0.996 --    30 C    0.969
    66   1 H    0.999 --    31 C    0.969
    67   1 H    0.999 --    33 C    0.943
    68   1 H    0.896 --    35 O    0.867
    69   1 H    0.998 --    40 C    0.968
    70   1 H    0.996 --    41 C    0.969
    71   1 H    0.996 --    42 C    0.969
    72   1 H    0.994 --    43 C    0.965
 ---------------------------------------------------------------------------

molecular dipole:
                 x           y           z       tot (Debye)
 q only:        1.512       1.590       1.821
   full:        1.375       1.587       1.968       7.314

           -------------------------------------------------
          | TOTAL ENERGY             -125.895673687326 Eh   |
          | GRADIENT NORM               0.000600895765 Eh/α |
          | HOMO-LUMO GAP               2.588464579915 eV   |
           -------------------------------------------------

 * finished run on 2022/03/17 at 00:16:42.523
