   * xtb version 6.3.3 (4ae9cef) compiled by 'conda@95abc7406d43' on 2020-10-14
          program call               : xtb acid_16.xyz --opt --chrg 0 --uhf 0 --gfn 2
          number of atoms            :                    72
          number of electrons        :                   226
          charge                     :                     0
          spin                       :                   0.0

   ID    Z sym.   atoms
    1    6 C      1-22, 24-28, 30, 31, 33, 34, 38-42, 44, 45
    2    7 N      23, 37
    3   17 Cl     29, 43
    4    8 O      32, 35, 36, 46
    5    1 H      47-72

          :  Hamiltonian                  GFN2-xTB          :
 * total energy  :  -125.8440457 Eh     change       -0.3623143E-08 Eh
 * total energy  :  -125.8599165 Eh     change       -0.1587085E-01 Eh
 * total energy  :  -125.8651792 Eh     change       -0.5262712E-02 Eh
 * total energy  :  -125.8675561 Eh     change       -0.2376860E-02 Eh
 * total energy  :  -125.8693173 Eh     change       -0.1761270E-02 Eh
 * total energy  :  -125.8704637 Eh     change       -0.1146359E-02 Eh
 * total energy  :  -125.8715085 Eh     change       -0.1044802E-02 Eh
 * total energy  :  -125.8725597 Eh     change       -0.1051155E-02 Eh
 * total energy  :  -125.8732641 Eh     change       -0.7044900E-03 Eh
 * total energy  :  -125.8738964 Eh     change       -0.6322965E-03 Eh
 * total energy  :  -125.8812172 Eh     change       -0.8024941E-05 Eh
 * total energy  :  -125.8812237 Eh     change       -0.6486453E-05 Eh
 * total energy  :  -125.8812291 Eh     change       -0.5367324E-05 Eh
 * total energy  :  -125.8812355 Eh     change       -0.6490390E-05 Eh
 * total energy  :  -125.8812419 Eh     change       -0.6357664E-05 Eh
 * total energy  :  -125.8812476 Eh     change       -0.5652381E-05 Eh
 * total energy  :  -125.8812534 Eh     change       -0.5819579E-05 Eh
 * total energy  :  -125.8812593 Eh     change       -0.5883613E-05 Eh
 * total energy  :  -125.8812623 Eh     change       -0.3065583E-05 Eh
   *** GEOMETRY OPTIMIZATION CONVERGED AFTER 57 ITERATIONS ***

 final structure:
================
72
 xtb: 6.3.3 (4ae9cef)
C        -2.06149793925821   -5.41088980897274    0.99661771387721
C        -2.43057485926796   -4.87946989437881    2.19928570122889
C        -2.11254800308339   -3.54786237235659    2.49791982712110
C        -1.43877769183933   -2.77175302925025    1.59542046448237
C        -1.04698558387530   -3.28590695282901    0.34047774334273
C        -1.36869886919109   -4.63658202630410    0.04305635141471
C        -0.99732726630164   -5.18272551835065   -1.20318955610132
C        -0.34351511112848   -4.41957876712854   -2.12441497216054
C        -0.03627265627643   -3.08041062457634   -1.84452907742723
C        -0.37239681461763   -2.50984353425613   -0.64603103427568
C        -0.01986023426385   -1.08838161532118   -0.30711571296908
C         0.92012289161558   -0.29607500418805   -1.23649389554237
C         2.36446042110602   -0.72087119136125   -1.25697229786949
C         2.85705545837693   -1.19797888948294   -2.44764993355759
C         4.16901048750495   -1.66623846062590   -2.57448383731079
C         5.00375360200500   -1.64472160243346   -1.49629016805452
C         4.55905861507263   -1.13300235517765   -0.26107142503863
C         3.22356895752662   -0.65794738758419   -0.12460698743305
C         2.85049094298953   -0.12066527474668    1.12678556089020
C         3.72908950146517   -0.06837634945196    2.17366884534716
C         5.03566528334654   -0.55486605301916    2.03811023322702
C         5.43729615192942   -1.07515963182485    0.84171370282974
N         0.68426175195357    1.06472610868024   -0.73944817510618
C         1.53335702183566    2.10293763439144   -0.95126932088303
C         1.10475397134218    3.36865078867106   -0.26530439423927
C         1.68563783919845    3.70631550928795    0.95140198955033
C         1.31335833837909    4.86831398342403    1.60241999677863
C         0.36323851597472    5.69860714699597    1.02703062119218
Cl       -0.11514235909064    7.14394462587039    1.83765397847261
C        -0.20742608873869    5.38459795402676   -0.19819741735299
C         0.16806935209263    4.21841975703689   -0.84274313141772
O         2.54858309253370    2.01180509569402   -1.60032432877465
C        -0.64267351454843    1.17137626760779   -0.15389913113776
C        -0.60000017565439    1.60826437662808    1.33422671212673
O        -1.24100530396296    2.73650007900996    1.64213331654356
O        -0.07018927213073    0.94371217974451    2.17462921678122
N        -1.17072163965463   -0.17252542092252   -0.24737792402304
C        -2.42872611461817   -0.44518360598084   -0.70209758910297
C        -3.38787971721078    0.69515161258898   -0.52229548246917
C        -3.69319411665846    1.16279803981527    0.75175340141588
C        -4.61250449471869    2.18286615342286    0.91954921061265
C        -5.22824546124722    2.73550400343109   -0.19422172982777
Cl       -6.35928996785257    4.02372868348619    0.00905943838902
C        -4.95046792014295    2.26167287124804   -1.46840517157229
C        -4.03783017334674    1.23485010022244   -1.62667554125040
O        -2.77461709164430   -1.50366938830646   -1.16993941530625
H        -2.29998530123228   -6.43630904686356    0.75203380275268
H        -2.96597859559249   -5.47602172928562    2.92335267508307
H        -2.40559784680820   -3.13343006980111    3.45164113304070
H        -1.21449834757377   -1.74919124239377    1.85777420527625
H        -1.24722064602289   -6.21256357998441   -1.41412716874497
H        -0.06099503986073   -4.83311049718100   -3.08124248097785
H         0.47243280402773   -2.50776377705790   -2.60162337584238
H         0.42886990515952   -1.09029650235745    0.69402784668595
H         0.53006144168781   -0.34336884097889   -2.26408953384755
H         2.22673652968750   -1.20546949358875   -3.32583549699172
H         4.50874410786109   -2.03569695171528   -3.53039492262939
H         6.02036469373532   -2.00202059854299   -1.57483443899184
H         1.86213702546461    0.27585235968965    1.27896791128299
H         3.41027217321004    0.35284515146503    3.11592286043689
H         5.71543244991213   -0.50920271030927    2.87617489249496
H         6.44407827615782   -1.44704307571345    0.71414855557119
H         2.42907625057294    3.05496721973722    1.38496846682571
H         1.75707707467940    5.13042204924462    2.54927342677209
H        -0.92922377709197    6.05080193029580   -0.64424658341961
H        -0.25582863410461    3.97887269894819   -1.80784622311101
H        -1.27528795794949    1.87028523171473   -0.72666493543869
H        -1.59772804344968    3.22225784662216    0.88527471896431
H        -3.22663373117438    0.71498454317800    1.61646124218111
H        -4.85239877816253    2.54476637309633    1.90655318159160
H        -5.45107446702327    2.68751495587782   -2.32340132077760
H        -3.82529132206963    0.84386154344211   -2.61013281360643

          :  Hamiltonian                  GFN2-xTB          :
         :: total energy            -125.881262320895 Eh    ::
         :: gradient norm              0.000443879919 Eh/a0 ::
         :: HOMO-LUMO gap              2.525092738664 eV    ::
         :: SCC energy              -127.794387532787 Eh    ::
         :: -> dispersion             -0.112445346580 Eh    ::
         :: repulsion energy           1.909367576222 Eh    ::

    * Orbital Energies and Occupations

         #    Occupation            Energy/Eh            Energy/eV
      -------------------------------------------------------------
         1        2.0000           -1.0727557             -29.1912
       ...           ...                  ...                  ...
       101        2.0000           -0.4221473             -11.4872
       102        2.0000           -0.4207320             -11.4487
       103        2.0000           -0.4198380             -11.4244
       104        2.0000           -0.4187448             -11.3946
       105        2.0000           -0.4159824             -11.3195
       106        2.0000           -0.4140505             -11.2669
       107        2.0000           -0.4105150             -11.1707
       108        2.0000           -0.4081616             -11.1066
       109        2.0000           -0.4066396             -11.0652
       110        2.0000           -0.4016172             -10.9286
       111        2.0000           -0.3994171             -10.8687
       112        2.0000           -0.3781806             -10.2908
       113        2.0000           -0.3766633             -10.2495 (HOMO)
       114                         -0.2838678              -7.7244 (LUMO)
       115                         -0.2745821              -7.4718
       116                         -0.2648988              -7.2083
       117                         -0.2640457              -7.1850
       118                         -0.2633299              -7.1656
       119                         -0.2628143              -7.1515
       120                         -0.2604981              -7.0885
       121                         -0.2329810              -6.3397
       122                         -0.2296886              -6.2501
       123                         -0.2287114              -6.2236
       124                         -0.2259001              -6.1471
       ...                                ...                  ...
       220                          0.6959927              18.9389
      -------------------------------------------------------------
                  HL-Gap            0.0927955 Eh            2.5251 eV

     #   Z          covCN         q      C6AA      Î±(0)
     1   6 C        2.921    -0.032    28.809     8.802
     2   6 C        2.915    -0.029    28.721     8.788
     3   6 C        2.917    -0.028    28.701     8.785
     4   6 C        2.917    -0.035    28.862     8.810
     5   6 C        2.987     0.017    27.629     8.622
     6   6 C        2.988     0.020    27.563     8.612
     7   6 C        2.920    -0.033    28.812     8.802
     8   6 C        2.915    -0.028    28.692     8.784
     9   6 C        2.920    -0.033    28.814     8.803
    10   6 C        2.965     0.010    27.797     8.648
    11   6 C        3.844     0.040    19.877     6.342
    12   6 C        3.829     0.048    19.748     6.323
    13   6 C        2.963     0.007    27.869     8.659
    14   6 C        2.927    -0.028    28.704     8.786
    15   6 C        2.913    -0.028    28.702     8.785
    16   6 C        2.922    -0.033    28.817     8.803
    17   6 C        2.989     0.017    27.616     8.620
    18   6 C        2.982     0.015    27.664     8.628
    19   6 C        2.917    -0.041    29.011     8.833
    20   6 C        2.917    -0.029    28.718     8.788
    21   6 C        2.914    -0.029    28.724     8.789
    22   6 C        2.922    -0.033    28.823     8.804
    23   7 N        2.772    -0.126    23.733     7.235
    24   6 C        2.758     0.274    22.361     7.744
    25   6 C        2.976    -0.026    28.647     8.780
    26   6 C        2.925    -0.019    28.492     8.754
    27   6 C        2.954    -0.031    28.784     8.800
    28   6 C        2.888     0.102    25.738     8.318
    29  17 Cl       0.968    -0.159   104.123    15.611
    30   6 C        2.955    -0.045    29.114     8.850
    31   6 C        2.923    -0.037    28.932     8.821
    32   8 O        0.858    -0.400    21.685     6.243
    33   6 C        3.768     0.080    19.282     6.258
    34   6 C        2.686     0.346    21.120     7.521
    35   8 O        1.659    -0.353    19.954     6.030
    36   8 O        0.856    -0.338    20.488     6.069
    37   7 N        2.770    -0.123    23.675     7.227
    38   6 C        2.758     0.275    22.349     7.742
    39   6 C        2.975    -0.026    28.636     8.778
    40   6 C        2.924    -0.032    28.793     8.800
    41   6 C        2.954    -0.040    28.986     8.830
    42   6 C        2.888     0.100    25.781     8.324
    43  17 Cl       0.967    -0.162   104.215    15.618
    44   6 C        2.954    -0.038    28.955     8.826
    45   6 C        2.924    -0.023    28.573     8.766
    46   8 O        0.858    -0.394    21.565     6.226
    47   1 H        0.926     0.035     2.518     2.482
    48   1 H        0.926     0.033     2.548     2.496
    49   1 H        0.926     0.032     2.556     2.500
    50   1 H        0.926     0.030     2.581     2.512
    51   1 H        0.926     0.038     2.482     2.464
    52   1 H        0.926     0.036     2.501     2.473
    53   1 H        0.926     0.034     2.529     2.487
    54   1 H        0.924     0.077     2.007     2.215
    55   1 H        0.923     0.046     2.368     2.407
    56   1 H        0.926     0.031     2.577     2.510
    57   1 H        0.926     0.038     2.481     2.463
    58   1 H        0.926     0.038     2.479     2.462
    59   1 H        0.926     0.041     2.439     2.442
    60   1 H        0.926     0.035     2.518     2.482
    61   1 H        0.926     0.033     2.550     2.497
    62   1 H        0.926     0.034     2.526     2.485
    63   1 H        0.926     0.063     2.162     2.299
    64   1 H        0.926     0.072     2.064     2.247
    65   1 H        0.926     0.063     2.162     2.299
    66   1 H        0.926     0.043     2.409     2.427
    67   1 H        0.923     0.032     2.558     2.501
    68   1 H        0.805     0.326     0.647     1.264
    69   1 H        0.926     0.053     2.288     2.365
    70   1 H        0.926     0.069     2.094     2.263
    71   1 H        0.926     0.067     2.117     2.275
    72   1 H        0.926     0.061     2.193     2.316

Wiberg/Mayer (AO) data.
largest (>0.10) Wiberg bond orders for each atom

     #   Z sym  total        # sym  WBO       # sym  WBO       # sym  WBO
 ---------------------------------------------------------------------------
     1   6 C    3.991 --     2 C    1.554     6 C    1.282    47 H    0.968
                             4 C    0.118
     2   6 C    3.992 --     1 C    1.554     3 C    1.326    48 H    0.971
     3   6 C    3.992 --     4 C    1.551     2 C    1.326    49 H    0.971
     4   6 C    3.992 --     3 C    1.551     5 C    1.289    50 H    0.965
                             1 C    0.118
     5   6 C    3.989 --     4 C    1.289     6 C    1.258    10 C    1.240
     6   6 C    3.990 --     1 C    1.282     7 C    1.273     5 C    1.258
     7   6 C    3.991 --     8 C    1.561     6 C    1.273    51 H    0.968
                            10 C    0.114
     8   6 C    3.992 --     7 C    1.561     9 C    1.317    52 H    0.970
     9   6 C    3.991 --    10 C    1.534     8 C    1.317    53 H    0.963
    10   6 C    3.982 --     9 C    1.534     5 C    1.240    11 C    0.996
                             7 C    0.114
    11   6 C    3.951 --    10 C    0.996    12 C    0.958    37 N    0.937
                            54 H    0.935
    12   6 C    3.956 --    13 C    0.996    11 C    0.958    55 H    0.951
                            23 N    0.939
    13   6 C    3.982 --    14 C    1.519    18 C    1.252    12 C    0.996
                            16 C    0.115
    14   6 C    3.989 --    13 C    1.519    15 C    1.328    56 H    0.965
    15   6 C    3.991 --    16 C    1.551    14 C    1.328    57 H    0.970
    16   6 C    3.990 --    15 C    1.551    17 C    1.280    58 H    0.968
                            13 C    0.115
    17   6 C    3.990 --    22 C    1.281    16 C    1.280    18 C    1.251
    18   6 C    3.989 --    19 C    1.286    13 C    1.252    17 C    1.251
    19   6 C    3.991 --    20 C    1.551    18 C    1.286    59 H    0.955
                            22 C    0.118
    20   6 C    3.992 --    19 C    1.551    21 C    1.324    60 H    0.971
    21   6 C    3.992 --    22 C    1.556    20 C    1.324    61 H    0.971
    22   6 C    3.991 --    21 C    1.556    17 C    1.281    62 H    0.968
                            19 C    0.118
    23   7 N    3.455 --    24 C    1.210    33 C    0.975    12 C    0.939
                            32 O    0.197
    24   6 C    3.949 --    32 O    1.711    23 N    1.210    25 C    0.948
    25   6 C    3.986 --    31 C    1.403    26 C    1.402    24 C    0.948
    26   6 C    3.989 --    27 C    1.445    25 C    1.402    63 H    0.966
                            30 C    0.108
    27   6 C    3.987 --    26 C    1.445    28 C    1.401    64 H    0.965
                            31 C    0.108
    28   6 C    3.923 --    27 C    1.401    30 C    1.397    29 Cl   0.988
    29  17 Cl   1.129 --    28 C    0.988
    30   6 C    3.988 --    31 C    1.442    28 C    1.397    65 H    0.966
                            26 C    0.108
    31   6 C    3.990 --    30 C    1.442    25 C    1.403    66 H    0.968
                            27 C    0.108
    32   8 O    2.046 --    24 C    1.711    23 N    0.197
    33   6 C    3.974 --    37 N    0.989    23 N    0.975    67 H    0.946
                            34 C    0.904
    34   6 C    3.922 --    36 O    1.799    35 O    1.144    33 C    0.904
    35   8 O    2.229 --    34 C    1.144    68 H    0.861    36 O    0.170
    36   8 O    2.098 --    34 C    1.799    35 O    0.170
    37   7 N    3.445 --    38 C    1.191    33 C    0.989    11 C    0.937
                            46 O    0.188
    38   6 C    3.947 --    46 O    1.717    37 N    1.191    39 C    0.958
    39   6 C    3.986 --    45 C    1.400    40 C    1.397    38 C    0.958
    40   6 C    3.990 --    41 C    1.447    39 C    1.397    69 H    0.966
                            44 C    0.107
    41   6 C    3.988 --    40 C    1.447    42 C    1.399    70 H    0.965
                            45 C    0.108
    42   6 C    3.921 --    41 C    1.399    44 C    1.399    43 Cl   0.986
    43  17 Cl   1.126 --    42 C    0.986
    44   6 C    3.987 --    45 C    1.447    42 C    1.399    71 H    0.966
                            40 C    0.107
    45   6 C    3.989 --    44 C    1.447    39 C    1.400    72 H    0.967
                            41 C    0.108
    46   8 O    2.054 --    38 C    1.717    37 N    0.188
    47   1 H    0.998 --     1 C    0.968
    48   1 H    0.998 --     2 C    0.971
    49   1 H    0.999 --     3 C    0.971
    50   1 H    0.999 --     4 C    0.965
    51   1 H    0.998 --     7 C    0.968
    52   1 H    0.998 --     8 C    0.970
    53   1 H    0.998 --     9 C    0.963
    54   1 H    0.993 --    11 C    0.935
    55   1 H    0.997 --    12 C    0.951
    56   1 H    0.999 --    14 C    0.965
    57   1 H    0.997 --    15 C    0.970
    58   1 H    0.997 --    16 C    0.968
    59   1 H    0.998 --    19 C    0.955
    60   1 H    0.998 --    20 C    0.971
    61   1 H    0.998 --    21 C    0.971
    62   1 H    0.998 --    22 C    0.968
    63   1 H    0.996 --    26 C    0.966
    64   1 H    0.994 --    27 C    0.965
    65   1 H    0.995 --    30 C    0.966
    66   1 H    0.998 --    31 C    0.968
    67   1 H    0.999 --    33 C    0.946
    68   1 H    0.894 --    35 O    0.861
    69   1 H    0.997 --    40 C    0.966
    70   1 H    0.995 --    41 C    0.965
    71   1 H    0.995 --    44 C    0.966
    72   1 H    0.996 --    45 C    0.967
 ---------------------------------------------------------------------------

molecular dipole:
                 x           y           z       tot (Debye)
 q only:        0.150      -0.524      -0.264
   full:       -0.452       0.389      -0.371       1.785

           -------------------------------------------------
          | TOTAL ENERGY             -125.881262320895 Eh   |
          | GRADIENT NORM               0.000443879919 Eh/Î± |
          | HOMO-LUMO GAP               2.525092738664 eV   |
           -------------------------------------------------

 * finished run on 2022/03/16 at 21:57:48.158
