   * xtb version 6.3.3 (4ae9cef) compiled by 'conda@95abc7406d43' on 2020-10-14
          program call               : xtb acid_207.xyz --opt --chrg 0 --uhf 0 --gfn 2
          number of atoms            :                    72
          number of electrons        :                   226
          charge                     :                     0
          spin                       :                   0.0

   ID    Z sym.   atoms
    1    6 C      1-22, 24-28, 30, 31, 33, 34, 38-42, 44, 45
    2    7 N      23, 37
    3   17 Cl     29, 43
    4    8 O      32, 35, 36, 46
    5    1 H      47-72

          :  Hamiltonian                  GFN2-xTB          :
 * total energy  :  -125.8798828 Eh     change       -0.1891451E-08 Eh
 * total energy  :  -125.8953248 Eh     change       -0.1544195E-01 Eh
 * total energy  :  -125.8997729 Eh     change       -0.4448109E-02 Eh
 * total energy  :  -125.9007776 Eh     change       -0.1004693E-02 Eh
 * total energy  :  -125.9013483 Eh     change       -0.5707602E-03 Eh
 * total energy  :  -125.9015726 Eh     change       -0.2242658E-03 Eh
 * total energy  :  -125.9018100 Eh     change       -0.2374259E-03 Eh
 * total energy  :  -125.9020757 Eh     change       -0.2656469E-03 Eh
 * total energy  :  -125.9023593 Eh     change       -0.2836260E-03 Eh
 * total energy  :  -125.9025301 Eh     change       -0.1708321E-03 Eh
 * total energy  :  -125.9063008 Eh     change       -0.9102364E-05 Eh
 * total energy  :  -125.9063105 Eh     change       -0.9706255E-05 Eh
 * total energy  :  -125.9063207 Eh     change       -0.1017963E-04 Eh
 * total energy  :  -125.9063303 Eh     change       -0.9625522E-05 Eh
 * total energy  :  -125.9063386 Eh     change       -0.8321221E-05 Eh
 * total energy  :  -125.9063463 Eh     change       -0.7686445E-05 Eh
 * total energy  :  -125.9063537 Eh     change       -0.7399752E-05 Eh
 * total energy  :  -125.9063606 Eh     change       -0.6836939E-05 Eh
 * total energy  :  -125.9063633 Eh     change       -0.2776408E-05 Eh
   *** GEOMETRY OPTIMIZATION CONVERGED AFTER 94 ITERATIONS ***

 final structure:
================
72
 xtb: 6.3.3 (4ae9cef)
C         1.93075706701627   -2.60197481799224    0.10783884301230
C         3.09311015957215   -3.32080149528505    0.05494103908210
C         3.94221617877174   -3.25507062139084   -1.06792966487089
C         5.14367522200479   -3.98973854106167   -1.15206474644008
C         5.93806572050727   -3.89993192924093   -2.26022978331395
C         5.57076227290451   -3.07047260800559   -3.33288712357729
C         4.41395800825594   -2.34556358051553   -3.28149561609104
C         3.56977496084228   -2.41872709294978   -2.15288546551142
C         2.36796808209608   -1.69126632408268   -2.06994027477062
C         1.55278264523862   -1.77625489075022   -0.96799912427675
C         0.31824983477935   -0.90573231857155   -0.94902791692685
C        -0.74645100443915   -1.22716706078035    0.11915475086408
C        -2.13921365044305   -0.96089391342215   -0.39815677602108
C        -2.95349752334055   -1.99857789480133   -0.76544515190146
C        -4.24770813438603   -1.76678264167223   -1.27193602050582
C        -5.10371728353987   -2.82234168953343   -1.64981231114164
C        -6.35599941771316   -2.56563636668516   -2.13281266365485
C        -6.81016867118073   -1.24340889076569   -2.26137063515954
C        -6.00452302273183   -0.19898282828101   -1.90370188479327
C        -4.70764138543935   -0.43055166286544   -1.40122390691490
C        -3.85005294186019    0.62040052217951   -1.01630862790585
C        -2.60166020939019    0.36304215775726   -0.52863481772217
N        -0.41379662035702   -0.30987986317270    1.20541027800532
C        -0.99415540889538   -0.40805844236067    2.43035201313618
C        -0.66110731631630    0.71541533340682    3.36214367676391
C        -0.01739394687473    0.46109565660764    4.56530980493724
C         0.27680406246947    1.49827082317062    5.43187743644398
C        -0.09073579459019    2.79185903962847    5.09588506740755
Cl        0.28369985068148    4.09326152506852    6.16797213932054
C        -0.76162958835606    3.05770714395425    3.91187451149230
C        -1.04550668870257    2.01563254931808    3.04880695242986
O        -1.75081493300670   -1.31039944745170    2.71179759914740
C         0.67002928989910    0.56607589351618    0.82183106427138
C         1.99101796698658    0.08855403941592    1.46496888759219
O         3.05309494630429    0.48822107469158    0.77263167857648
O         2.04942628114764   -0.52890038516436    2.48886543528006
N         0.70174305400857    0.46514585998635   -0.60750176976403
C         0.54447106334791    1.47832985789910   -1.50787939480033
C         0.61175671816732    2.85920924896088   -0.94242013052969
C         1.69711592746941    3.31250765063658   -0.19958271028561
C         1.70113693494486    4.59607041860684    0.31522990923390
C         0.61340773894914    5.42660585592115    0.08888612313264
Cl        0.60523493690672    7.01857236115138    0.75660354976949
C        -0.46370012666555    4.99610159471060   -0.67152277427999
C        -0.45554628291586    3.71604040992658   -1.19314371013914
O         0.34551200252660    1.25889937536940   -2.68284959966595
H         1.31080323205501   -2.67313601737368    0.98828499392122
H         3.37507953721623   -3.95329441382490    0.88436235718841
H         5.42153911455567   -4.62717350249922   -0.32474688996941
H         6.85521048004451   -4.46722321108336   -2.32087152614375
H         6.21233010217981   -3.01326308466440   -4.19986726981943
H         4.12444827005977   -1.70633800907737   -4.10283981294194
H         2.08749053885720   -1.04965690350900   -2.89306174167465
H        -0.12152388408343   -0.88089898875475   -1.95165759208510
H        -0.69061240911749   -2.26248457542934    0.46585862696974
H        -2.61120482542725   -3.01867783390317   -0.66429213302931
H        -4.75024796826811   -3.83825108146210   -1.54757016904349
H        -7.00723501990633   -3.37841800218902   -2.41921364871067
H        -7.80313783245323   -1.05990431725959   -2.64489668240085
H        -6.35004216923181    0.82057963392926   -1.99961020260367
H        -4.20089449730394    1.63831198453449   -1.11129868906375
H        -1.95992237643273    1.18096837436309   -0.23284005366089
H         0.26314592441144   -0.55043176670380    4.81099785220415
H         0.78542656765757    1.30701356269423    6.36347877407335
H        -1.05849137219169    4.06659304011870    3.67153209650819
H        -1.59091721222633    2.21515087339054    2.13684660863684
H         0.51330662122491    1.59998769096463    1.15678527978701
H         3.87429308851003    0.16714746564571    1.18124931628707
H         2.54487863522753    2.66426430863857   -0.03948922860342
H         2.54074658703601    4.95252669470275    0.89069838344722
H        -1.29514439947317    5.65825330299503   -0.85406508173794
H        -1.28007870754399    3.36845569065783   -1.79738772646029

          :  Hamiltonian                  GFN2-xTB          :
         :: total energy            -125.906363332845 Eh    ::
         :: gradient norm              0.000229708758 Eh/a0 ::
         :: HOMO-LUMO gap              2.883140020338 eV    ::
         :: SCC energy              -127.822727166120 Eh    ::
         :: -> dispersion             -0.107783187059 Eh    ::
         :: repulsion energy           1.913567214441 Eh    ::

    * Orbital Energies and Occupations

         #    Occupation            Energy/Eh            Energy/eV
      -------------------------------------------------------------
         1        2.0000           -1.0678245             -29.0570
       ...           ...                  ...                  ...
       101        2.0000           -0.4246250             -11.5546
       102        2.0000           -0.4241837             -11.5426
       103        2.0000           -0.4212895             -11.4639
       104        2.0000           -0.4199154             -11.4265
       105        2.0000           -0.4156470             -11.3103
       106        2.0000           -0.4136885             -11.2570
       107        2.0000           -0.4101435             -11.1606
       108        2.0000           -0.4089602             -11.1284
       109        2.0000           -0.4052881             -11.0285
       110        2.0000           -0.4009670             -10.9109
       111        2.0000           -0.4005104             -10.8984
       112        2.0000           -0.3893918             -10.5959
       113        2.0000           -0.3831147             -10.4251 (HOMO)
       114                         -0.2771612              -7.5419 (LUMO)
       115                         -0.2711465              -7.3783
       116                         -0.2680664              -7.2945
       117                         -0.2647572              -7.2044
       118                         -0.2582191              -7.0265
       119                         -0.2577972              -7.0150
       120                         -0.2494065              -6.7867
       121                         -0.2416745              -6.5763
       122                         -0.2345641              -6.3828
       123                         -0.2208062              -6.0084
       124                         -0.2130921              -5.7985
       ...                                ...                  ...
       220                          0.6930331              18.8584
      -------------------------------------------------------------
                  HL-Gap            0.1059534 Eh            2.8831 eV

     #   Z          covCN         q      C6AA      Î±(0)
     1   6 C        2.917    -0.041    29.008     8.832
     2   6 C        2.918    -0.036    28.905     8.816
     3   6 C        2.987     0.011    27.756     8.642
     4   6 C        2.917    -0.035    28.875     8.812
     5   6 C        2.916    -0.029    28.714     8.787
     6   6 C        2.916    -0.028    28.709     8.786
     7   6 C        2.918    -0.034    28.839     8.806
     8   6 C        2.986     0.014    27.683     8.631
     9   6 C        2.926    -0.040    28.992     8.830
    10   6 C        2.968    -0.004    28.119     8.698
    11   6 C        3.850     0.034    19.975     6.357
    12   6 C        3.827     0.039    19.895     6.347
    13   6 C        2.970     0.004    27.930     8.669
    14   6 C        2.923    -0.037    28.928     8.820
    15   6 C        2.987     0.017    27.613     8.620
    16   6 C        2.918    -0.033    28.818     8.803
    17   6 C        2.916    -0.028    28.699     8.785
    18   6 C        2.916    -0.028    28.709     8.786
    19   6 C        2.918    -0.033    28.828     8.805
    20   6 C        2.988     0.015    27.678     8.630
    21   6 C        2.917    -0.033    28.819     8.803
    22   6 C        2.919    -0.030    28.756     8.794
    23   7 N        2.770    -0.118    23.573     7.211
    24   6 C        2.760     0.277    22.311     7.735
    25   6 C        2.975    -0.017    28.436     8.747
    26   6 C        2.925    -0.015    28.379     8.736
    27   6 C        2.954    -0.036    28.900     8.817
    28   6 C        2.889     0.100    25.774     8.323
    29  17 Cl       0.968    -0.169   104.460    15.636
    30   6 C        2.955    -0.040    28.998     8.832
    31   6 C        2.925    -0.033    28.810     8.802
    32   8 O        0.859    -0.410    21.874     6.271
    33   6 C        3.779     0.087    19.155     6.235
    34   6 C        2.688     0.351    21.035     7.506
    35   8 O        1.659    -0.360    20.094     6.051
    36   8 O        0.856    -0.381    21.310     6.189
    37   7 N        2.770    -0.111    23.416     7.187
    38   6 C        2.762     0.274    22.368     7.745
    39   6 C        2.974    -0.020    28.496     8.756
    40   6 C        2.922    -0.034    28.849     8.808
    41   6 C        2.955    -0.038    28.948     8.825
    42   6 C        2.889     0.103    25.728     8.316
    43  17 Cl       0.967    -0.163   104.276    15.623
    44   6 C        2.954    -0.037    28.918     8.820
    45   6 C        2.927    -0.020    28.496     8.754
    46   8 O        0.859    -0.411    21.911     6.276
    47   1 H        0.926     0.040     2.450     2.448
    48   1 H        0.926     0.039     2.457     2.451
    49   1 H        0.926     0.034     2.526     2.485
    50   1 H        0.926     0.034     2.531     2.488
    51   1 H        0.926     0.035     2.521     2.483
    52   1 H        0.926     0.039     2.468     2.457
    53   1 H        0.926     0.050     2.321     2.383
    54   1 H        0.924     0.083     1.946     2.182
    55   1 H        0.924     0.071     2.077     2.254
    56   1 H        0.926     0.038     2.470     2.458
    57   1 H        0.926     0.036     2.505     2.475
    58   1 H        0.926     0.034     2.532     2.488
    59   1 H        0.926     0.033     2.538     2.491
    60   1 H        0.926     0.034     2.534     2.489
    61   1 H        0.926     0.035     2.521     2.483
    62   1 H        0.926     0.016     2.791     2.613
    63   1 H        0.926     0.072     2.069     2.249
    64   1 H        0.926     0.066     2.131     2.283
    65   1 H        0.926     0.061     2.192     2.315
    66   1 H        0.926     0.040     2.449     2.447
    67   1 H        0.923     0.071     2.079     2.255
    68   1 H        0.804     0.345     0.599     1.216
    69   1 H        0.926     0.058     2.224     2.332
    70   1 H        0.926     0.063     2.166     2.302
    71   1 H        0.926     0.066     2.127     2.281
    72   1 H        0.926     0.064     2.151     2.294

Wiberg/Mayer (AO) data.
largest (>0.10) Wiberg bond orders for each atom

     #   Z sym  total        # sym  WBO       # sym  WBO       # sym  WBO
 ---------------------------------------------------------------------------
     1   6 C    3.991 --     2 C    1.552    10 C    1.303    47 H    0.964
     2   6 C    3.991 --     1 C    1.552     3 C    1.283    48 H    0.968
                             9 C    0.117
     3   6 C    3.990 --     2 C    1.283     4 C    1.278     8 C    1.248
     4   6 C    3.992 --     5 C    1.560     3 C    1.278    49 H    0.968
                             7 C    0.119
     5   6 C    3.990 --     4 C    1.560     6 C    1.317    50 H    0.971
     6   6 C    3.992 --     7 C    1.562     5 C    1.317    51 H    0.971
     7   6 C    3.990 --     6 C    1.562     8 C    1.274    52 H    0.968
                             4 C    0.119
     8   6 C    3.990 --     9 C    1.290     7 C    1.274     3 C    1.248
     9   6 C    3.989 --    10 C    1.517     8 C    1.290    53 H    0.965
                             2 C    0.117
    10   6 C    3.984 --     9 C    1.517     1 C    1.303    11 C    0.985
    11   6 C    3.954 --    10 C    0.985    12 C    0.961    54 H    0.949
                            37 N    0.947
    12   6 C    3.961 --    13 C    0.987    11 C    0.961    23 N    0.956
                            55 H    0.949
    13   6 C    3.985 --    14 C    1.526    22 C    1.295    12 C    0.987
    14   6 C    3.989 --    13 C    1.526    15 C    1.283    56 H    0.965
                            21 C    0.115
    15   6 C    3.990 --    14 C    1.283    16 C    1.278    20 C    1.251
    16   6 C    3.990 --    17 C    1.558    15 C    1.278    57 H    0.968
                            19 C    0.118
    17   6 C    3.992 --    16 C    1.558    18 C    1.321    58 H    0.971
    18   6 C    3.990 --    19 C    1.557    17 C    1.321    59 H    0.971
    19   6 C    3.992 --    18 C    1.557    20 C    1.281    60 H    0.968
                            16 C    0.118
    20   6 C    3.990 --    19 C    1.281    21 C    1.277    15 C    1.251
    21   6 C    3.992 --    22 C    1.563    20 C    1.277    61 H    0.968
                            14 C    0.115
    22   6 C    3.992 --    21 C    1.563    13 C    1.295    62 H    0.967
    23   7 N    3.455 --    24 C    1.201    33 C    0.983    12 C    0.956
                            32 O    0.191
    24   6 C    3.948 --    32 O    1.703    23 N    1.201    25 C    0.961
    25   6 C    3.988 --    26 C    1.406    31 C    1.397    24 C    0.961
    26   6 C    3.987 --    27 C    1.442    25 C    1.406    63 H    0.965
                            30 C    0.108
    27   6 C    3.988 --    26 C    1.442    28 C    1.404    64 H    0.966
                            31 C    0.108
    28   6 C    3.920 --    27 C    1.404    30 C    1.398    29 Cl   0.979
    29  17 Cl   1.116 --    28 C    0.979
    30   6 C    3.988 --    31 C    1.447    28 C    1.398    65 H    0.966
                            26 C    0.108
    31   6 C    3.991 --    30 C    1.447    25 C    1.397    66 H    0.966
                            27 C    0.108
    32   8 O    2.027 --    24 C    1.703    23 N    0.191
    33   6 C    3.977 --    37 N    1.001    23 N    0.983    67 H    0.921
                            34 C    0.910
    34   6 C    3.920 --    36 O    1.784    35 O    1.154    33 C    0.910
    35   8 O    2.220 --    34 C    1.154    68 H    0.854    36 O    0.181
    36   8 O    2.067 --    34 C    1.784    35 O    0.181
    37   7 N    3.457 --    38 C    1.191    33 C    1.001    11 C    0.947
                            46 O    0.187
    38   6 C    3.946 --    46 O    1.699    37 N    1.191    39 C    0.973
    39   6 C    3.988 --    45 C    1.396    40 C    1.393    38 C    0.973
    40   6 C    3.990 --    41 C    1.448    39 C    1.393    69 H    0.964
                            44 C    0.107
    41   6 C    3.988 --    40 C    1.448    42 C    1.398    70 H    0.966
                            45 C    0.107
    42   6 C    3.920 --    44 C    1.399    41 C    1.398    43 Cl   0.985
    43  17 Cl   1.124 --    42 C    0.985
    44   6 C    3.987 --    45 C    1.448    42 C    1.399    71 H    0.966
                            40 C    0.107
    45   6 C    3.988 --    44 C    1.448    39 C    1.396    72 H    0.966
                            41 C    0.107
    46   8 O    2.027 --    38 C    1.699    37 N    0.187
    47   1 H    0.998 --     1 C    0.964
    48   1 H    0.998 --     2 C    0.968
    49   1 H    0.998 --     4 C    0.968
    50   1 H    0.998 --     5 C    0.971
    51   1 H    0.998 --     6 C    0.971
    52   1 H    0.998 --     7 C    0.968
    53   1 H    0.997 --     9 C    0.965
    54   1 H    0.992 --    11 C    0.949
    55   1 H    0.994 --    12 C    0.949
    56   1 H    0.998 --    14 C    0.965
    57   1 H    0.998 --    16 C    0.968
    58   1 H    0.998 --    17 C    0.971
    59   1 H    0.998 --    18 C    0.971
    60   1 H    0.998 --    19 C    0.968
    61   1 H    0.998 --    21 C    0.968
    62   1 H    0.999 --    22 C    0.967
    63   1 H    0.995 --    26 C    0.965
    64   1 H    0.995 --    27 C    0.966
    65   1 H    0.996 --    30 C    0.966
    66   1 H    0.998 --    31 C    0.966
    67   1 H    0.995 --    33 C    0.921
    68   1 H    0.880 --    35 O    0.854
    69   1 H    0.997 --    40 C    0.964
    70   1 H    0.995 --    41 C    0.966
    71   1 H    0.995 --    44 C    0.966
    72   1 H    0.996 --    45 C    0.966
 ---------------------------------------------------------------------------

molecular dipole:
                 x           y           z       tot (Debye)
 q only:        0.965      -0.769      -1.025
   full:        1.280      -0.090      -0.612       3.614

           -------------------------------------------------
          | TOTAL ENERGY             -125.906363332845 Eh   |
          | GRADIENT NORM               0.000229708758 Eh/Î± |
          | HOMO-LUMO GAP               2.883140020338 eV   |
           -------------------------------------------------

 * finished run on 2022/03/16 at 22:31:04.455
