   * xtb version 6.3.3 (4ae9cef) compiled by 'conda@95abc7406d43' on 2020-10-14
          program call               : xtb acid_74.xyz --opt --chrg 0 --uhf 0 --gfn 2
          number of atoms            :                    72
          number of electrons        :                   226
          charge                     :                     0
          spin                       :                   0.0

   ID    Z sym.   atoms
    1    6 C      1-22, 24-29, 31, 33, 34, 38-41, 43-45
    2    7 N      23, 37
    3    9 F      30, 42
    4    8 O      32, 35, 36, 46
    5    1 H      47-72

          :  Hamiltonian                  GFN2-xTB          :
 * total energy  :  -126.2298786 Eh     change       -0.2050058E-08 Eh
 * total energy  :  -126.2454427 Eh     change       -0.1556408E-01 Eh
 * total energy  :  -126.2493307 Eh     change       -0.3888007E-02 Eh
 * total energy  :  -126.2503940 Eh     change       -0.1063345E-02 Eh
 * total energy  :  -126.2510717 Eh     change       -0.6776403E-03 Eh
 * total energy  :  -126.2514608 Eh     change       -0.3891028E-03 Eh
 * total energy  :  -126.2518031 Eh     change       -0.3423030E-03 Eh
 * total energy  :  -126.2516219 Eh     change        0.1812069E-03 Eh
 * total energy  :  -126.2521224 Eh     change       -0.5004754E-03 Eh
 * total energy  :  -126.2523169 Eh     change       -0.1945005E-03 Eh
 * total energy  :  -126.2538022 Eh     change       -0.2574204E-04 Eh
 * total energy  :  -126.2538179 Eh     change       -0.1561207E-04 Eh
 * total energy  :  -126.2538453 Eh     change       -0.2740926E-04 Eh
 * total energy  :  -126.2538681 Eh     change       -0.2287523E-04 Eh
 * total energy  :  -126.2538759 Eh     change       -0.7769780E-05 Eh
 * total energy  :  -126.2538856 Eh     change       -0.9739090E-05 Eh
 * total energy  :  -126.2538944 Eh     change       -0.8787270E-05 Eh
 * total energy  :  -126.2539041 Eh     change       -0.9683760E-05 Eh
 * total energy  :  -126.2539080 Eh     change       -0.3896129E-05 Eh
   *** GEOMETRY OPTIMIZATION CONVERGED AFTER 44 ITERATIONS ***

 final structure:
================
72
 xtb: 6.3.3 (4ae9cef)
C        -1.44137634827688   -2.50229892326716    1.08802261095883
C        -2.24502605444197   -3.60262469477900    1.01706689281152
C        -3.25020517091385   -3.70295734857332    0.03165765866615
C        -4.09458008736547   -4.82670179927186   -0.07386692961481
C        -5.06173784601654   -4.88121232918964   -1.03858517511445
C        -5.22726930889331   -3.81814401693052   -1.94051259392007
C        -4.42545899415596   -2.71380784364995   -1.86327168535578
C        -3.42068597410063   -2.62821390961637   -0.87824842954802
C        -2.58028801597655   -1.50013689635102   -0.77484958028017
C        -1.59749198317422   -1.43722930876315    0.17626685091198
C        -0.67175320060543   -0.24899356337838    0.31688508009709
C         0.81687881827751   -0.64571836445237    0.11372154148534
C         1.72586479521967    0.01329695695839    1.12026945886875
C         2.42539966141256   -0.73458196744939    2.02840123717414
C         3.28280270073485   -0.12559884254620    2.96616944409090
C         4.02350850991353   -0.87840997236817    3.90093647753111
C         4.85900090224334   -0.25968717507554    4.78792592382152
C         4.99016675627565    1.13807685340368    4.78341560359685
C         4.28340540582416    1.89540821906688    3.89169881259525
C         3.41499733798952    1.28735133121423    2.96220199342402
C         2.67835824390340    2.03500373905060    2.01994018798322
C         1.85677770754018    1.41688130849818    1.12259673631160
N         1.10913312848840   -0.17664658336873   -1.24114723616120
C         2.37641880529474   -0.22012688690753   -1.74679422941547
C         2.55426452665605    0.56205442994440   -3.01342182588227
C         2.35274628324037   -0.01516521637576   -4.26030385837858
C         2.55019530648813    0.73346241647094   -5.40883271426610
C         2.95261111730112    2.05445453644327   -5.32619994942356
C         3.15937283955236    2.60781666808043   -4.07505083826979
F         3.56138203564432    3.88841740964861   -3.98296338232092
C         2.96610376451049    1.88497163202049   -2.91267047168986
O         3.25731610743180   -0.85379962956939   -1.21212495604666
C        -0.00385039623225    0.55421470220180   -1.80186008770967
C        -0.72447981885097   -0.25515020542715   -2.91642678165685
O        -0.32435289309036   -1.51911915005582   -3.04396304492015
O        -1.57206182956710    0.22651020417651   -3.60434911656428
N        -0.88715010119414    0.78491480128017   -0.67870873169086
C        -1.28813726373370    2.07042988077054   -0.41864085620503
C        -2.08893606770419    2.27844366106606    0.81978651883154
C        -3.11545922331105    1.41827550284600    1.19372672500099
C        -3.85172728183278    1.72263978510773    2.32313215240314
F        -4.84698637072811    0.89055882476303    2.68804551356286
C        -3.60096407181739    2.84641760397220    3.09052773272128
C        -2.58189373962099    3.69924703757608    2.70143060813937
C        -1.83554453767881    3.42360639480890    1.57031390618199
O        -1.01373846200130    2.98188490641101   -1.16966159607625
H        -0.68277010286063   -2.42652976688294    1.85405621728123
H        -2.12445393039588   -4.41265548116273    1.72160019767831
H        -3.96238265079257   -5.64314659713664    0.62161534986060
H        -5.70606108107940   -5.74463921096999   -1.11482597440061
H        -5.99556594845397   -3.88106616039509   -2.69668885854946
H        -4.54269175278549   -1.89336765028921   -2.55599368655393
H        -2.73905698975271   -0.68366262878861   -1.46417167208841
H        -0.79977847678285    0.17962465756370    1.31755543371068
H         0.94991577799123   -1.73253687415732    0.16474841089386
H         2.34147696057596   -1.81214953074312    2.02634753030533
H         3.92182167072316   -1.95410701325543    3.89826097650683
H         5.42681342022678   -0.84171074660099    5.49880917595048
H         5.65674688266735    1.60916736576043    5.49066590879188
H         4.38233368774066    2.97145894040883    3.88278675101647
H         2.78035787015845    3.11068380196792    2.01408174368338
H         1.30818232951403    2.00625845400720    0.40152498706101
H         2.05018372928920   -1.04829584156243   -4.33816328400985
H         2.38925371342010    0.28241229503872   -6.37541870820593
H         3.11114360318652    2.65324021470221   -6.20867667565916
H         3.14227059641458    2.34427598207954   -1.95212839879405
H         0.27291138366565    1.52918907573764   -2.23208234882999
H         0.36693579028535   -1.74425992313443   -2.39761037191782
H        -3.36217227348305    0.54084613384911    0.61779900701212
H        -4.20252678575027    3.04386239664709    3.96346884422949
H        -2.37664957271424    4.58643590855005    3.28013706394011
H        -1.05178156367100    4.09265702034707    1.25061878442797

          :  Hamiltonian                  GFN2-xTB          :
         :: total energy            -126.253908016971 Eh    ::
         :: gradient norm              0.000456127161 Eh/a0 ::
         :: HOMO-LUMO gap              3.017561089966 eV    ::
         :: SCC energy              -128.178338306652 Eh    ::
         :: -> dispersion             -0.103441687701 Eh    ::
         :: repulsion energy           1.921800636703 Eh    ::

    * Orbital Energies and Occupations

         #    Occupation            Energy/Eh            Energy/eV
      -------------------------------------------------------------
         1        2.0000           -0.8290253             -22.5589
       ...           ...                  ...                  ...
       101        2.0000           -0.4343434             -11.8191
       102        2.0000           -0.4290843             -11.6760
       103        2.0000           -0.4276233             -11.6362
       104        2.0000           -0.4272295             -11.6255
       105        2.0000           -0.4245482             -11.5525
       106        2.0000           -0.4234746             -11.5233
       107        2.0000           -0.4214523             -11.4683
       108        2.0000           -0.4169092             -11.3447
       109        2.0000           -0.4143665             -11.2755
       110        2.0000           -0.4102173             -11.1626
       111        2.0000           -0.4086299             -11.1194
       112        2.0000           -0.3934903             -10.7074
       113        2.0000           -0.3911247             -10.6430 (HOMO)
       114                         -0.2802314              -7.6255 (LUMO)
       115                         -0.2745786              -7.4717
       116                         -0.2726966              -7.4205
       117                         -0.2619637              -7.1284
       118                         -0.2559648              -6.9652
       119                         -0.2532192              -6.8904
       120                         -0.2484432              -6.7605
       121                         -0.2467996              -6.7158
       122                         -0.2438497              -6.6355
       123                         -0.2386939              -6.4952
       124                         -0.2163992              -5.8885
       ...                                ...                  ...
       210                          0.6849369              18.6381
      -------------------------------------------------------------
                  HL-Gap            0.1108933 Eh            3.0176 eV

     #   Z          covCN         q      C6AA      Î±(0)
     1   6 C        2.920    -0.042    29.048     8.838
     2   6 C        2.917    -0.032    28.802     8.801
     3   6 C        2.987     0.014    27.690     8.632
     4   6 C        2.918    -0.033    28.832     8.805
     5   6 C        2.916    -0.026    28.659     8.779
     6   6 C        2.916    -0.026    28.643     8.776
     7   6 C        2.918    -0.031    28.782     8.798
     8   6 C        2.988     0.017    27.617     8.620
     9   6 C        2.921    -0.042    29.043     8.838
    10   6 C        2.967    -0.012    28.300     8.726
    11   6 C        3.827     0.036    19.945     6.355
    12   6 C        3.821     0.045    19.811     6.334
    13   6 C        2.969     0.001    28.009     8.681
    14   6 C        2.923    -0.035    28.870     8.811
    15   6 C        2.987     0.017    27.617     8.620
    16   6 C        2.918    -0.033    28.811     8.802
    17   6 C        2.916    -0.027    28.680     8.782
    18   6 C        2.916    -0.027    28.685     8.783
    19   6 C        2.918    -0.033    28.825     8.804
    20   6 C        2.988     0.015    27.679     8.630
    21   6 C        2.917    -0.033    28.831     8.805
    22   6 C        2.919    -0.037    28.908     8.817
    23   7 N        2.761    -0.143    24.098     7.291
    24   6 C        2.761     0.272    22.412     7.753
    25   6 C        2.981    -0.019    28.486     8.755
    26   6 C        2.920    -0.035    28.880     8.813
    27   6 C        2.924    -0.022    28.566     8.765
    28   6 C        2.917    -0.045    29.106     8.847
    29   6 C        2.787     0.177    24.189     8.056
    30   9 F        0.787    -0.215    11.387     3.986
    31   6 C        2.921    -0.045    29.110     8.848
    32   8 O        0.859    -0.409    21.862     6.269
    33   6 C        3.770     0.074    19.380     6.274
    34   6 C        2.685     0.348    21.093     7.516
    35   8 O        1.659    -0.355    19.998     6.037
    36   8 O        0.856    -0.343    20.575     6.081
    37   7 N        2.759    -0.120    23.611     7.217
    38   6 C        2.768     0.274    22.364     7.745
    39   6 C        2.978    -0.012    28.304     8.727
    40   6 C        2.918    -0.051    29.263     8.871
    41   6 C        2.787     0.174    24.258     8.068
    42   9 F        0.787    -0.220    11.445     3.996
    43   6 C        2.917    -0.044    29.092     8.845
    44   6 C        2.923    -0.025    28.627     8.774
    45   6 C        2.924    -0.025    28.630     8.775
    46   8 O        0.859    -0.410    21.881     6.272
    47   1 H        0.926     0.029     2.597     2.520
    48   1 H        0.926     0.040     2.448     2.447
    49   1 H        0.926     0.036     2.507     2.476
    50   1 H        0.926     0.036     2.500     2.472
    51   1 H        0.926     0.038     2.473     2.459
    52   1 H        0.926     0.045     2.388     2.417
    53   1 H        0.926     0.041     2.429     2.437
    54   1 H        0.924     0.057     2.236     2.338
    55   1 H        0.924     0.054     2.265     2.354
    56   1 H        0.926     0.037     2.483     2.464
    57   1 H        0.926     0.036     2.498     2.471
    58   1 H        0.926     0.036     2.508     2.477
    59   1 H        0.926     0.035     2.511     2.478
    60   1 H        0.926     0.036     2.504     2.475
    61   1 H        0.926     0.039     2.466     2.456
    62   1 H        0.926     0.026     2.645     2.543
    63   1 H        0.926     0.049     2.330     2.387
    64   1 H        0.926     0.058     2.217     2.328
    65   1 H        0.926     0.069     2.101     2.267
    66   1 H        0.926     0.063     2.161     2.299
    67   1 H        0.923     0.096     1.824     2.112
    68   1 H        0.804     0.332     0.631     1.248
    69   1 H        0.926     0.067     2.123     2.278
    70   1 H        0.926     0.067     2.121     2.278
    71   1 H        0.926     0.057     2.237     2.339
    72   1 H        0.926     0.065     2.141     2.288

Wiberg/Mayer (AO) data.
largest (>0.10) Wiberg bond orders for each atom

     #   Z sym  total        # sym  WBO       # sym  WBO       # sym  WBO
 ---------------------------------------------------------------------------
     1   6 C    3.991 --     2 C    1.569    10 C    1.287    47 H    0.968
     2   6 C    3.991 --     1 C    1.569     3 C    1.273    48 H    0.968
                             9 C    0.112
     3   6 C    3.990 --     4 C    1.282     2 C    1.273     8 C    1.253
     4   6 C    3.992 --     5 C    1.555     3 C    1.282    49 H    0.968
                             7 C    0.118
     5   6 C    3.990 --     4 C    1.555     6 C    1.323    50 H    0.971
     6   6 C    3.992 --     7 C    1.556     5 C    1.323    51 H    0.971
     7   6 C    3.989 --     6 C    1.556     8 C    1.281    52 H    0.967
                             4 C    0.118
     8   6 C    3.990 --     7 C    1.281     9 C    1.275     3 C    1.253
     9   6 C    3.990 --    10 C    1.532     8 C    1.275    53 H    0.960
                             2 C    0.112
    10   6 C    3.983 --     9 C    1.532     1 C    1.287    11 C    0.985
    11   6 C    3.962 --    10 C    0.985    37 N    0.973    54 H    0.948
                            12 C    0.947
    12   6 C    3.960 --    13 C    0.989    55 H    0.956    23 N    0.951
                            11 C    0.947
    13   6 C    3.984 --    14 C    1.527    22 C    1.293    12 C    0.989
    14   6 C    3.989 --    13 C    1.527    15 C    1.281    56 H    0.965
                            21 C    0.114
    15   6 C    3.990 --    14 C    1.281    16 C    1.279    20 C    1.251
    16   6 C    3.989 --    17 C    1.558    15 C    1.279    57 H    0.968
                            19 C    0.118
    17   6 C    3.992 --    16 C    1.558    18 C    1.321    58 H    0.971
    18   6 C    3.990 --    19 C    1.556    17 C    1.321    59 H    0.971
    19   6 C    3.992 --    18 C    1.556    20 C    1.282    60 H    0.968
                            16 C    0.118
    20   6 C    3.990 --    19 C    1.282    21 C    1.276    15 C    1.251
    21   6 C    3.992 --    22 C    1.565    20 C    1.276    61 H    0.968
                            14 C    0.114
    22   6 C    3.992 --    21 C    1.565    13 C    1.293    62 H    0.968
    23   7 N    3.455 --    24 C    1.189    33 C    0.982    12 C    0.951
                            32 O    0.190
    24   6 C    3.947 --    32 O    1.715    23 N    1.189    25 C    0.954
    25   6 C    3.987 --    26 C    1.412    31 C    1.405    24 C    0.954
                            28 C    0.109
    26   6 C    3.990 --    27 C    1.436    25 C    1.412    63 H    0.968
    27   6 C    3.990 --    28 C    1.444    26 C    1.436    64 H    0.968
                            31 C    0.111
    28   6 C    3.989 --    27 C    1.444    29 C    1.393    65 H    0.966
                            25 C    0.109
    29   6 C    3.891 --    31 C    1.398    28 C    1.393    30 F    0.968
    30   9 F    1.102 --    29 C    0.968
    31   6 C    3.989 --    25 C    1.405    29 C    1.398    66 H    0.966
                            27 C    0.111
    32   8 O    2.034 --    24 C    1.715    23 N    0.190
    33   6 C    3.958 --    37 N    0.983    23 N    0.982    67 H    0.930
                            34 C    0.900
    34   6 C    3.924 --    36 O    1.807    35 O    1.151    33 C    0.900
    35   8 O    2.228 --    34 C    1.151    68 H    0.847    36 O    0.173
    36   8 O    2.096 --    34 C    1.807    35 O    0.173
    37   7 N    3.442 --    38 C    1.173    33 C    0.983    11 C    0.973
                            46 O    0.180
    38   6 C    3.946 --    46 O    1.701    37 N    1.173    39 C    0.986
    39   6 C    3.987 --    40 C    1.396    45 C    1.395    38 C    0.986
                            43 C    0.105
    40   6 C    3.988 --    41 C    1.403    39 C    1.396    69 H    0.960
                            44 C    0.109
    41   6 C    3.890 --    40 C    1.403    43 C    1.393    42 F    0.963
    42   9 F    1.096 --    41 C    0.963
    43   6 C    3.988 --    44 C    1.438    41 C    1.393    70 H    0.966
                            39 C    0.105
    44   6 C    3.990 --    45 C    1.446    43 C    1.438    71 H    0.968
                            40 C    0.109
    45   6 C    3.988 --    44 C    1.446    39 C    1.395    72 H    0.967
    46   8 O    2.037 --    38 C    1.701    37 N    0.180
    47   1 H    0.999 --     1 C    0.968
    48   1 H    0.997 --     2 C    0.968
    49   1 H    0.998 --     4 C    0.968
    50   1 H    0.998 --     5 C    0.971
    51   1 H    0.998 --     6 C    0.971
    52   1 H    0.998 --     7 C    0.967
    53   1 H    0.998 --     9 C    0.960
    54   1 H    0.995 --    11 C    0.948
    55   1 H    0.997 --    12 C    0.956
    56   1 H    0.998 --    14 C    0.965
    57   1 H    0.998 --    16 C    0.968
    58   1 H    0.998 --    17 C    0.971
    59   1 H    0.998 --    18 C    0.971
    60   1 H    0.998 --    19 C    0.968
    61   1 H    0.998 --    21 C    0.968
    62   1 H    0.999 --    22 C    0.968
    63   1 H    0.998 --    26 C    0.968
    64   1 H    0.996 --    27 C    0.968
    65   1 H    0.995 --    28 C    0.966
    66   1 H    0.996 --    31 C    0.966
    67   1 H    0.990 --    33 C    0.930
    68   1 H    0.889 --    35 O    0.847
    69   1 H    0.996 --    40 C    0.960
    70   1 H    0.995 --    43 C    0.966
    71   1 H    0.996 --    44 C    0.968
    72   1 H    0.996 --    45 C    0.967
 ---------------------------------------------------------------------------

molecular dipole:
                 x           y           z       tot (Debye)
 q only:       -0.050      -1.133       1.529
   full:        0.148      -1.093       1.752       5.263

           -------------------------------------------------
          | TOTAL ENERGY             -126.253908016971 Eh   |
          | GRADIENT NORM               0.000456127161 Eh/Î± |
          | HOMO-LUMO GAP               3.017561089966 eV   |
           -------------------------------------------------

 * finished run on 2022/03/17 at 02:02:24.512
