   * xtb version 6.3.3 (4ae9cef) compiled by 'conda@95abc7406d43' on 2020-10-14
          program call               : xtb acid_318.xyz --opt --chrg 0 --uhf 0 --gfn 2
          number of atoms            :                    80
          number of electrons        :                   274
          charge                     :                     0
          spin                       :                   0.0

   ID    Z sym.   atoms
    1    6 C      1, 2, 6-15, 19-22, 24-34, 37, 38, 42-52
    2    9 F      3-5, 16-18
    3    7 N      23, 41
    4    8 O      35, 36, 39, 40, 53, 54
    5    1 H      55-80

          :  Hamiltonian                  GFN2-xTB          :
 * total energy  :  -157.5735709 Eh     change       -0.3238625E-08 Eh
 * total energy  :  -157.5921111 Eh     change       -0.1854021E-01 Eh
 * total energy  :  -157.5982179 Eh     change       -0.6106810E-02 Eh
 * total energy  :  -157.6004261 Eh     change       -0.2208209E-02 Eh
 * total energy  :  -157.6021552 Eh     change       -0.1729103E-02 Eh
 * total energy  :  -157.6035676 Eh     change       -0.1412384E-02 Eh
 * total energy  :  -157.6047063 Eh     change       -0.1138744E-02 Eh
 * total energy  :  -157.6059183 Eh     change       -0.1211973E-02 Eh
 * total energy  :  -157.6070454 Eh     change       -0.1127119E-02 Eh
 * total energy  :  -157.6076117 Eh     change       -0.5662815E-03 Eh
 * total energy  :  -157.6291164 Eh     change       -0.2741535E-04 Eh
 * total energy  :  -157.6291425 Eh     change       -0.2614607E-04 Eh
 * total energy  :  -157.6291608 Eh     change       -0.1830594E-04 Eh
 * total energy  :  -157.6291738 Eh     change       -0.1291528E-04 Eh
 * total energy  :  -157.6291838 Eh     change       -0.1005931E-04 Eh
 * total energy  :  -157.6291911 Eh     change       -0.7256323E-05 Eh
 * total energy  :  -157.6291967 Eh     change       -0.5670874E-05 Eh
 * total energy  :  -157.6292020 Eh     change       -0.5291188E-05 Eh
 * total energy  :  -157.6292066 Eh     change       -0.4530828E-05 Eh
   *** GEOMETRY OPTIMIZATION CONVERGED AFTER 109 ITERATIONS ***

 final structure:
================
80
 xtb: 6.3.3 (4ae9cef)
C        -2.97470358944151   -1.55809770823738   -0.07233398429853
C        -2.90541240086979   -1.49716971740043    1.42967809622308
F        -1.88224326029047   -2.22030392467736    1.92471124211589
F        -2.73966750243133   -0.25594500903098    1.92327866792223
F        -4.00856598405327   -1.97290641594597    2.01995308883005
C        -4.05149226744311   -2.22511115824197   -0.64454686281381
C        -4.15175934302150   -2.34446403539255   -2.01727679169377
C        -3.16112537704009   -1.81695404403220   -2.82610047186555
C        -2.08826344458165   -1.15658101153267   -2.25913253033961
C        -1.98292258372710   -0.99774500026466   -0.88122968766938
C        -0.79265298503572   -0.25270889222636   -0.33376217745072
C         0.49209705659859   -1.11680216676699   -0.45769785291349
C         0.82362212525959   -1.83267567599437    0.82918009825506
C         0.73055215593922   -3.21761037529442    0.97239560642019
C         0.26989187309756   -4.09005322252247   -0.15997310928796
F        -0.98016543118941   -3.76648946393824   -0.58313244592278
F         0.20772011885192   -5.38666080909124    0.16226969999762
F         1.03974507999532   -4.02042193766624   -1.25959149936421
C         1.04480990858244   -3.81972392883433    2.18452097956887
C         1.45131678295866   -3.05198946855585    3.25855759458160
C         1.54167973848995   -1.67760810900025    3.12607325900334
C         1.22641095123476   -1.07512679632645    1.92365241504044
N         1.52666641280284   -0.15563913012526   -0.81722782630106
C         2.85049134406131   -0.46187628071460   -0.66753243337259
C         3.80917152363639    0.62075733443497   -0.97762737477281
C         3.92708735625054    1.55280539376650   -1.98097388998874
C         5.11355232667986    2.26120357263459   -1.72387267445411
C         5.64700780683602    1.72081818008308   -0.57475298605885
C         6.83491827609425    2.05728234995592    0.18621519459802
C         7.65976782813547    3.11598867004495   -0.19597235220358
C         8.78357624012867    3.42468075472991    0.54546618924326
C         9.10153801878674    2.68681675438027    1.67455490831137
C         8.28772707436170    1.63384978750250    2.06044580782036
C         7.16256086719802    1.31839086836793    1.32462972525520
O         4.85954220578201    0.72049968486305   -0.14396497532021
O         3.20913120064935   -1.55766316884414   -0.29397817303588
C         0.98194909233000    1.11396544637831   -1.19042154010519
C         1.45187878188641    2.26694439024883   -0.24589292236379
O         1.21784134910699    3.47327142807757   -0.71458095969452
O         1.95350060661672    2.04401894083960    0.81758513209431
N        -0.46090450243678    0.95120323324515   -1.08512028238696
C        -1.23197316465404    1.84768776195533   -1.74526879409064
C        -2.68365623603009    1.72223337201447   -1.74916049172901
C        -3.53443598124145    2.05415676877857   -2.77767570657414
C        -4.82328392529087    1.70203033108065   -2.34814940978729
C        -4.68600290831110    1.20886265538591   -1.07094731604147
C        -5.67755348056703    0.70032024153896   -0.13904206313997
C        -6.82123704588333    0.06009204347269   -0.61563463425892
C        -7.75033147361760   -0.44847510380423    0.27106066688794
C        -7.55275700073145   -0.32398497167730    1.63726176528660
C        -6.42412017901799    0.32003531226737    2.11626392500653
C        -5.49074258911489    0.83250789945771    1.23595245489248
O        -3.38831668695022    1.22800585629796   -0.70790682143121
O        -0.69002293321353    2.75613018781850   -2.38330361855395
H        -4.81422478264534   -2.64673050162141   -0.00936364738880
H        -4.99578567846645   -2.85769722107141   -2.44960825016767
H        -3.21989798373398   -1.91983897670511   -3.89856532839254
H        -1.31827388627529   -0.74647086837877   -2.89597381551118
H        -0.93497774048880    0.02643913632191    0.71471286818118
H         0.37823286685482   -1.82559105028531   -1.28560049743254
H         0.97226384726571   -4.89159531318870    2.28144345073896
H         1.69886278622833   -3.52912418391327    4.19392631284514
H         1.86209021094469   -1.06978162293207    3.95812635686104
H         1.32649256017490   -0.00437522715979    1.82176962216026
H         3.28286769938028    1.69731385742633   -2.82431933998457
H         5.51095566031353    3.06154540320509   -2.31266706952438
H         7.41669531489520    3.69654405726778   -1.07200942986819
H         9.41582435461837    4.24659758763474    0.24300082586106
H         9.98048270458973    2.93285265038671    2.25173458982752
H         8.53246044119183    1.05685561721590    2.94009466216763
H         6.52448385617847    0.49983439264846    1.61991854337021
H         1.22202908238496    1.38397283117459   -2.23225490837792
H         0.63058164578784    3.45337647013312   -1.51639241218998
H        -3.24663340971369    2.47997917456099   -3.71655470129555
H        -5.73662198174920    1.82033627293571   -2.89300621878102
H        -6.96367836217483   -0.05092965610337   -1.67972657880903
H        -8.63071046123289   -0.94912100767782   -0.10356805854028
H        -8.27866580337810   -0.72727285787351    2.32693662452255
H        -6.26971324854749    0.42300240862551    3.17931782058355
H        -4.61658051835451    1.34610793399405    1.60402372109479

          :  Hamiltonian                  GFN2-xTB          :
         :: total energy            -157.629206572136 Eh    ::
         :: gradient norm              0.000489175495 Eh/a0 ::
         :: HOMO-LUMO gap              2.329560701337 eV    ::
         :: SCC energy              -159.620413048104 Eh    ::
         :: -> dispersion             -0.122161221262 Eh    ::
         :: repulsion energy           1.987443800571 Eh    ::

    * Orbital Energies and Occupations

         #    Occupation            Energy/Eh            Energy/eV
      -------------------------------------------------------------
         1        2.0000           -0.8897080             -24.2102
       ...           ...                  ...                  ...
       125        2.0000           -0.4351883             -11.8421
       126        2.0000           -0.4324071             -11.7664
       127        2.0000           -0.4288743             -11.6703
       128        2.0000           -0.4281724             -11.6512
       129        2.0000           -0.4273642             -11.6292
       130        2.0000           -0.4259154             -11.5897
       131        2.0000           -0.4245470             -11.5525
       132        2.0000           -0.4218889             -11.4802
       133        2.0000           -0.4077946             -11.0967
       134        2.0000           -0.4064014             -11.0587
       135        2.0000           -0.4040039             -10.9935
       136        2.0000           -0.4011752             -10.9165
       137        2.0000           -0.3792171             -10.3190 (HOMO)
       138                         -0.2936073              -7.9895 (LUMO)
       139                         -0.2797664              -7.6128
       140                         -0.2699105              -7.3446
       141                         -0.2655388              -7.2257
       142                         -0.2574391              -7.0053
       143                         -0.2550685              -6.9408
       144                         -0.2539139              -6.9093
       145                         -0.2457994              -6.6885
       146                         -0.2418315              -6.5806
       147                         -0.2313541              -6.2955
       148                         -0.2235216              -6.0823
       ...                                ...                  ...
       242                          0.7146277              19.4460
      -------------------------------------------------------------
                  HL-Gap            0.0856098 Eh            2.3296 eV

     #   Z          covCN         q      C6AA      Î±(0)
     1   6 C        2.975    -0.025    28.617     8.775
     2   6 C        3.336     0.486    17.290     6.586
     3   9 F        0.791    -0.213    11.374     3.984
     4   9 F        0.791    -0.208    11.320     3.974
     5   9 F        0.792    -0.200    11.233     3.959
     6   6 C        2.924    -0.019    28.481     8.752
     7   6 C        2.920    -0.021    28.527     8.759
     8   6 C        2.918    -0.017    28.439     8.745
     9   6 C        2.927    -0.028    28.691     8.784
    10   6 C        2.970     0.018    27.602     8.618
    11   6 C        3.815     0.040    19.890     6.348
    12   6 C        3.824     0.050    19.714     6.318
    13   6 C        2.972     0.024    27.463     8.596
    14   6 C        2.976    -0.024    28.587     8.770
    15   6 C        3.336     0.485    17.301     6.588
    16   9 F        0.791    -0.231    11.565     4.017
    17   9 F        0.792    -0.199    11.225     3.958
    18   9 F        0.791    -0.205    11.284     3.968
    19   6 C        2.923    -0.018    28.469     8.750
    20   6 C        2.920    -0.020    28.498     8.754
    21   6 C        2.919    -0.013    28.349     8.731
    22   6 C        2.926    -0.024    28.607     8.771
    23   7 N        2.759    -0.118    23.577     7.212
    24   6 C        2.756     0.272    22.411     7.752
    25   6 C        3.100     0.079    26.114     8.374
    26   6 C        3.010    -0.067    29.652     8.932
    27   6 C        3.014    -0.066    29.620     8.927
    28   6 C        3.104     0.119    25.261     8.235
    29   6 C        2.971     0.007    27.852     8.657
    30   6 C        2.924    -0.034    28.852     8.809
    31   6 C        2.919    -0.027    28.682     8.782
    32   6 C        2.920    -0.028    28.705     8.786
    33   6 C        2.918    -0.027    28.664     8.780
    34   6 C        2.925    -0.027    28.681     8.783
    35   8 O        1.733    -0.155    16.634     5.507
    36   8 O        0.859    -0.402    21.724     6.249
    37   6 C        3.765     0.074    19.387     6.276
    38   6 C        2.684     0.352    21.028     7.504
    39   8 O        1.656    -0.359    20.073     6.048
    40   8 O        0.856    -0.363    20.957     6.138
    41   7 N        2.758    -0.105    23.291     7.168
    42   6 C        2.765     0.258    22.649     7.794
    43   6 C        3.108     0.083    26.005     8.355
    44   6 C        3.013    -0.047    29.135     8.854
    45   6 C        3.016    -0.068    29.665     8.934
    46   6 C        3.112     0.121    25.209     8.225
    47   6 C        2.972     0.000    28.024     8.683
    48   6 C        2.925    -0.035    28.871     8.812
    49   6 C        2.919    -0.026    28.662     8.779
    50   6 C        2.920    -0.025    28.624     8.773
    51   6 C        2.919    -0.023    28.571     8.765
    52   6 C        2.925    -0.028    28.690     8.784
    53   8 O        1.728    -0.193    17.215     5.602
    54   8 O        0.861    -0.470    23.136     6.449
    55   1 H        0.926     0.069     2.093     2.263
    56   1 H        0.926     0.061     2.183     2.310
    57   1 H        0.926     0.061     2.191     2.315
    58   1 H        0.926     0.051     2.305     2.374
    59   1 H        0.924     0.074     2.046     2.237
    60   1 H        0.924     0.064     2.156     2.296
    61   1 H        0.926     0.067     2.120     2.277
    62   1 H        0.926     0.058     2.227     2.334
    63   1 H        0.926     0.060     2.195     2.317
    64   1 H        0.926     0.073     2.056     2.242
    65   1 H        0.926     0.032     2.554     2.499
    66   1 H        0.927     0.046     2.367     2.406
    67   1 H        0.926     0.037     2.492     2.469
    68   1 H        0.926     0.036     2.509     2.477
    69   1 H        0.926     0.035     2.516     2.481
    70   1 H        0.926     0.037     2.491     2.468
    71   1 H        0.926     0.053     2.283     2.363
    72   1 H        0.923     0.071     2.070     2.250
    73   1 H        0.801     0.368     0.549     1.164
    74   1 H        0.926     0.065     2.146     2.291
    75   1 H        0.927     0.053     2.283     2.363
    76   1 H        0.926     0.036     2.498     2.471
    77   1 H        0.926     0.041     2.435     2.440
    78   1 H        0.926     0.043     2.408     2.427
    79   1 H        0.926     0.047     2.361     2.403
    80   1 H        0.926     0.052     2.295     2.369

Wiberg/Mayer (AO) data.
largest (>0.10) Wiberg bond orders for each atom

     #   Z sym  total        # sym  WBO       # sym  WBO       # sym  WBO
 ---------------------------------------------------------------------------
     1   6 C    3.970 --     6 C    1.414    10 C    1.384     2 C    0.951
                             8 C    0.104
     2   6 C    3.823 --     5 F    0.956     1 C    0.951     4 F    0.940
                             3 F    0.938
     3   9 F    1.066 --     2 C    0.938
     4   9 F    1.072 --     2 C    0.940
     5   9 F    1.079 --     2 C    0.956
     6   6 C    3.987 --     7 C    1.442     1 C    1.414    55 H    0.965
                             9 C    0.108
     7   6 C    3.988 --     6 C    1.442     8 C    1.433    56 H    0.968
                            10 C    0.109
     8   6 C    3.989 --     9 C    1.446     7 C    1.433    57 H    0.968
                             1 C    0.104
     9   6 C    3.990 --     8 C    1.446    10 C    1.409    58 H    0.966
                             6 C    0.108
    10   6 C    3.987 --     9 C    1.409     1 C    1.384    11 C    0.997
                             7 C    0.109
    11   6 C    3.964 --    10 C    0.997    41 N    0.962    59 H    0.949
                            12 C    0.945
    12   6 C    3.966 --    13 C    0.992    23 N    0.960    60 H    0.953
                            11 C    0.945
    13   6 C    3.985 --    22 C    1.409    14 C    1.385    12 C    0.992
                            20 C    0.108
    14   6 C    3.968 --    19 C    1.411    13 C    1.385    15 C    0.953
                            21 C    0.105
    15   6 C    3.818 --    17 F    0.959    14 C    0.953    18 F    0.946
                            16 F    0.920
    16   9 F    1.046 --    15 C    0.920
    17   9 F    1.081 --    15 C    0.959
    18   9 F    1.076 --    15 C    0.946
    19   6 C    3.987 --    20 C    1.443    14 C    1.411    61 H    0.966
                            22 C    0.109
    20   6 C    3.989 --    19 C    1.443    21 C    1.433    62 H    0.969
                            13 C    0.108
    21   6 C    3.989 --    22 C    1.447    20 C    1.433    63 H    0.968
                            14 C    0.105
    22   6 C    3.986 --    21 C    1.447    13 C    1.409    64 H    0.960
                            19 C    0.109
    23   7 N    3.444 --    24 C    1.175    37 C    1.001    12 C    0.960
                            36 O    0.186
    24   6 C    3.953 --    36 O    1.689    23 N    1.175    25 C    0.995
    25   6 C    3.900 --    26 C    1.503    35 O    1.130    24 C    0.995
                            28 C    0.121
    26   6 C    3.981 --    25 C    1.503    27 C    1.344    65 H    0.971
    27   6 C    3.982 --    28 C    1.484    26 C    1.344    66 H    0.973
    28   6 C    3.908 --    27 C    1.484    35 O    1.127    29 C    1.086
                            25 C    0.121
    29   6 C    3.988 --    30 C    1.370    34 C    1.370    28 C    1.086
    30   6 C    3.988 --    31 C    1.460    29 C    1.370    67 H    0.968
                            33 C    0.105
    31   6 C    3.992 --    30 C    1.460    32 C    1.429    68 H    0.971
                            34 C    0.105
    32   6 C    3.978 --    33 C    1.431    31 C    1.429    69 H    0.971
    33   6 C    3.992 --    34 C    1.459    32 C    1.431    70 H    0.971
                            30 C    0.105
    34   6 C    3.989 --    33 C    1.459    29 C    1.370    71 H    0.968
                            31 C    0.105
    35   8 O    2.470 --    25 C    1.130    28 C    1.127
    36   8 O    2.035 --    24 C    1.689    23 N    0.186
    37   6 C    3.956 --    23 N    1.001    41 N    0.968    72 H    0.935
                            38 C    0.885
    38   6 C    3.930 --    40 O    1.778    39 O    1.205    37 C    0.885
    39   8 O    2.243 --    38 C    1.205    73 H    0.779    40 O    0.182
    40   8 O    2.085 --    38 C    1.778    39 O    0.182
    41   7 N    3.491 --    42 C    1.239    37 C    0.968    11 C    0.962
                            54 O    0.178
    42   6 C    3.953 --    54 O    1.555    41 N    1.239    43 C    1.044
    43   6 C    3.897 --    44 C    1.495    53 O    1.099    42 C    1.044
                            46 C    0.121
    44   6 C    3.982 --    43 C    1.495    45 C    1.347    74 H    0.972
    45   6 C    3.981 --    46 C    1.491    44 C    1.347    75 H    0.973
    46   6 C    3.906 --    45 C    1.491    53 O    1.119    47 C    1.071
                            43 C    0.121
    47   6 C    3.987 --    52 C    1.379    48 C    1.372    46 C    1.071
                            50 C    0.101
    48   6 C    3.986 --    49 C    1.459    47 C    1.372    76 H    0.969
                            51 C    0.107
    49   6 C    3.991 --    48 C    1.459    50 C    1.429    77 H    0.970
                            52 C    0.106
    50   6 C    3.980 --    51 C    1.434    49 C    1.429    78 H    0.971
                            47 C    0.101
    51   6 C    3.991 --    52 C    1.453    50 C    1.434    79 H    0.970
                            48 C    0.107
    52   6 C    3.986 --    51 C    1.453    47 C    1.379    80 H    0.968
                            49 C    0.106
    53   8 O    2.434 --    46 C    1.119    43 C    1.099
    54   8 O    1.969 --    42 C    1.555    41 N    0.178
    55   1 H    0.995 --     6 C    0.965
    56   1 H    0.995 --     7 C    0.968
    57   1 H    0.996 --     8 C    0.968
    58   1 H    0.997 --     9 C    0.966
    59   1 H    0.994 --    11 C    0.949
    60   1 H    0.995 --    12 C    0.953
    61   1 H    0.995 --    19 C    0.966
    62   1 H    0.996 --    20 C    0.969
    63   1 H    0.996 --    21 C    0.968
    64   1 H    0.994 --    22 C    0.960
    65   1 H    0.999 --    26 C    0.971
    66   1 H    0.997 --    27 C    0.973
    67   1 H    0.999 --    30 C    0.968
    68   1 H    0.998 --    31 C    0.971
    69   1 H    0.998 --    32 C    0.971
    70   1 H    0.998 --    33 C    0.971
    71   1 H    0.997 --    34 C    0.968
    72   1 H    0.994 --    37 C    0.935
    73   1 H    0.865 --    39 O    0.779
    74   1 H    0.995 --    44 C    0.972
    75   1 H    0.997 --    45 C    0.973
    76   1 H    0.999 --    48 C    0.969
    77   1 H    0.998 --    49 C    0.970
    78   1 H    0.998 --    50 C    0.971
    79   1 H    0.997 --    51 C    0.970
    80   1 H    0.997 --    52 C    0.968
 ---------------------------------------------------------------------------

molecular dipole:
                 x           y           z       tot (Debye)
 q only:       -1.964       0.447      -0.557
   full:       -2.225       0.475      -1.015       6.333

           -------------------------------------------------
          | TOTAL ENERGY             -157.629206572136 Eh   |
          | GRADIENT NORM               0.000489175495 Eh/Î± |
          | HOMO-LUMO GAP               2.329560701337 eV   |
           -------------------------------------------------

 * finished run on 2022/03/16 at 23:46:26.831
