   * xtb version 6.3.3 (4ae9cef) compiled by 'conda@95abc7406d43' on 2020-10-14
          program call               : xtb acid_108.xyz --opt --chrg 0 --uhf 0 --gfn 2
          number of atoms            :                    70
          number of electrons        :                   218
          charge                     :                     0
          spin                       :                   0.0

   ID    Z sym.   atoms
    1    6 C      1, 3-16, 18, 20-22, 24, 25, 27, 29, 30, 34-36, 38, 39, 41
    2    8 O      2, 17, 26, 28, 31, 32, 40, 42
    3    7 N      19, 33
    4   16 S      23, 37
    5    1 H      43-70

          :  Hamiltonian                  GFN2-xTB          :
 * total energy  :  -123.3821819 Eh     change       -0.2068532E-08 Eh
 * total energy  :  -123.3956656 Eh     change       -0.1348369E-01 Eh
 * total energy  :  -123.4011007 Eh     change       -0.5435116E-02 Eh
 * total energy  :  -123.4035856 Eh     change       -0.2484871E-02 Eh
 * total energy  :  -123.4056771 Eh     change       -0.2091501E-02 Eh
 * total energy  :  -123.4073067 Eh     change       -0.1629585E-02 Eh
 * total energy  :  -123.4086598 Eh     change       -0.1353076E-02 Eh
 * total energy  :  -123.4098644 Eh     change       -0.1204625E-02 Eh
 * total energy  :  -123.4109945 Eh     change       -0.1130110E-02 Eh
 * total energy  :  -123.4121680 Eh     change       -0.1173497E-02 Eh
 * total energy  :  -123.4190195 Eh     change       -0.3888217E-04 Eh
 * total energy  :  -123.4190357 Eh     change       -0.1614505E-04 Eh
 * total energy  :  -123.4190499 Eh     change       -0.1425912E-04 Eh
 * total energy  :  -123.4190637 Eh     change       -0.1376821E-04 Eh
 * total energy  :  -123.4190706 Eh     change       -0.6920024E-05 Eh
 * total energy  :  -123.4190845 Eh     change       -0.1390929E-04 Eh
 * total energy  :  -123.4190912 Eh     change       -0.6695637E-05 Eh
 * total energy  :  -123.4190978 Eh     change       -0.6590662E-05 Eh
 * total energy  :  -123.4191010 Eh     change       -0.3203718E-05 Eh
   *** GEOMETRY OPTIMIZATION CONVERGED AFTER 44 ITERATIONS ***

 final structure:
================
70
 xtb: 6.3.3 (4ae9cef)
C        -3.14455134628729   -1.58906683781826    0.40521175450257
O        -3.17304414453873   -0.54928025006319    1.28312985724523
C        -4.41681253254339   -0.10741290439873    1.76327097151093
C        -4.23829341169998   -2.37498425127003    0.07588704414767
C        -4.09356939320625   -3.42550105711988   -0.81612405229311
C        -2.86490351984160   -3.69680005335172   -1.38141079210214
C        -1.76939433839854   -2.90701825023781   -1.06484244484081
C        -1.89401479362086   -1.85166741282300   -0.18268224074365
C        -0.75360817383186   -0.97188641754272    0.24032578298313
C         0.65876211084966   -1.31332340869226   -0.26572751901479
C         1.33664855063555   -2.40384547103946    0.51622489341901
C         1.59940596547484   -2.23915934957507    1.86599848015671
C         2.24513780961556   -3.22505944679630    2.59146715685062
C         2.63574393332521   -4.38872380308808    1.95810637244147
C         2.38363823604462   -4.57200619550345    0.60957763819842
C         1.73557148631479   -3.58595122638210   -0.12392494379831
O         1.44122161175362   -3.69180256966074   -1.45101202673629
C         1.93813940818524   -4.79544211488921   -2.16790587856065
N         1.34413501159425   -0.02564825630886   -0.11702726879184
C         2.67847618573071    0.10220805970815   -0.29315033932389
C         3.22344227320592    1.47959175395130   -0.08790745696970
C         4.12103358396359    1.75941810086299    0.89272718103277
S         4.64254777504584    3.39210584290157    0.86249683783560
C         3.66526146777472    3.71906068848270   -0.51650065552420
C         2.96744426191165    2.61986389771310   -0.91541178596366
O         2.10414411894335    2.52210051706016   -1.96156536566883
C         1.98182374051261    3.65366716242421   -2.79160501131158
O         3.40025678553546   -0.83623489719756   -0.55581053610098
C         0.39138438844277    1.04487119746917    0.13633099868330
C         0.53706872381280    1.49951358018417    1.59811512400351
O         1.12212756396829    2.69933941352079    1.66818712742511
O         0.25366683542546    0.85538387111598    2.56755115569591
N        -0.87863945742315    0.43649676286672   -0.14513466129520
C        -1.79054807216414    0.96831727039546   -0.99614669349978
C        -1.66091911821090    2.44874368115563   -1.15572714372964
C        -1.64699610130105    3.08549412544947   -2.35552406288347
S        -1.57747824602484    4.79091830860108   -2.19258971851538
C        -1.59943066694446    4.66839965650341   -0.47228343212854
C        -1.64374834538253    3.37162838508604   -0.05896015837306
O        -1.68757939940525    2.90027257628586    1.21199485193318
C        -1.79152670523522    3.85465383773747    2.24151820421091
O        -2.66277239326720    0.34799538453463   -1.56305324003860
H        -4.20123543566651    0.77946045202029    2.35783790836287
H        -4.89784733891705   -0.85946331643798    2.39847280416293
H        -5.08750127891788    0.16058828524603    0.94102085103162
H        -5.20791773943703   -2.17853715537400    0.50563676704363
H        -4.95356926835749   -4.03003568364888   -1.06460081748584
H        -2.75317585894031   -4.51641146901233   -2.07489465892080
H        -0.81499821159252   -3.12688718927873   -1.51321679437775
H        -0.73862435008353   -0.97119093854948    1.33989142822699
H         0.64884235075088   -1.57388444519919   -1.32902659881937
H         1.30395085754011   -1.32246839819429    2.35497818306143
H         2.44582219355587   -3.08088276229782    3.64206921277291
H         3.14559273570442   -5.16436741523322    2.51037705402885
H         2.70354750130043   -5.48719354372766    0.13715936703150
H         1.49300525759532   -5.73415877016919   -1.82114980730435
H         1.65079882069677   -4.62451393122701   -3.20468453267881
H         3.02805692416735   -4.85746879582170   -2.10084908387876
H         4.49731985211531    1.08716304924148    1.63729058503001
H         3.67716971890299    4.70198112155060   -0.94017439585632
H         1.56919235900189    4.50631170709278   -2.24258921850358
H         1.29609486559642    3.36800248289830   -3.58673566124368
H         2.94760146728211    3.93338496557034   -3.22218270329718
H         0.57171258752410    1.90444717803697   -0.51561645203863
H         1.26918708147961    2.95237369676077    2.59501020177560
H        -1.66697941010837    2.63627993689806   -3.32773689161743
H        -1.58702013623272    5.56632017042729    0.11061839798970
H        -0.92929556115040    4.53018854616459    2.24560538711210
H        -2.70777525054639    4.44478169381211    2.14138076590873
H        -1.82120440200205    3.28695162821367    3.17001069842674

          :  Hamiltonian                  GFN2-xTB          :
         :: total energy            -123.419101002646 Eh    ::
         :: gradient norm              0.000289752097 Eh/a0 ::
         :: HOMO-LUMO gap              2.785516418004 eV    ::
         :: SCC energy              -124.969764042333 Eh    ::
         :: -> dispersion             -0.103650311781 Eh    ::
         :: repulsion energy           1.546449368913 Eh    ::

    * Orbital Energies and Occupations

         #    Occupation            Energy/Eh            Energy/eV
      -------------------------------------------------------------
         1        2.0000           -0.7695825             -20.9414
       ...           ...                  ...                  ...
        97        2.0000           -0.4135795             -11.2541
        98        2.0000           -0.4101451             -11.1606
        99        2.0000           -0.4086194             -11.1191
       100        2.0000           -0.4031999             -10.9716
       101        2.0000           -0.4026532             -10.9568
       102        2.0000           -0.3941868             -10.7264
       103        2.0000           -0.3927277             -10.6867
       104        2.0000           -0.3907374             -10.6325
       105        2.0000           -0.3886167             -10.5748
       106        2.0000           -0.3869355             -10.5291
       107        2.0000           -0.3841478             -10.4532
       108        2.0000           -0.3711152             -10.0986
       109        2.0000           -0.3641237              -9.9083 (HOMO)
       110                         -0.2617578              -7.1228 (LUMO)
       111                         -0.2608078              -7.0969
       112                         -0.2542374              -6.9182
       113                         -0.2237625              -6.0889
       114                         -0.2226783              -6.0594
       115                         -0.2174076              -5.9160
       116                         -0.2140091              -5.8235
       117                         -0.2107613              -5.7351
       118                         -0.2068965              -5.6299
       119                         -0.2037819              -5.5452
       120                         -0.2016865              -5.4882
       ...                                ...                  ...
       206                          0.6978825              18.9903
      -------------------------------------------------------------
                  HL-Gap            0.1023658 Eh            2.7855 eV

     #   Z          covCN         q      C6AA      Î±(0)
     1   6 C        2.873     0.150    24.740     8.154
     2   8 O        1.706    -0.268    18.438     5.797
     3   6 C        3.645     0.042    20.203     6.460
     4   6 C        2.917    -0.063    29.569     8.917
     5   6 C        2.921    -0.031    28.769     8.796
     6   6 C        2.919    -0.040    28.998     8.831
     7   6 C        2.922    -0.038    28.940     8.822
     8   6 C        2.970    -0.005    28.138     8.701
     9   6 C        3.853     0.039    19.878     6.341
    10   6 C        3.826     0.043    19.841     6.338
    11   6 C        2.972    -0.008    28.217     8.713
    12   6 C        2.924    -0.036    28.884     8.814
    13   6 C        2.918    -0.040    28.989     8.829
    14   6 C        2.921    -0.031    28.776     8.797
    15   6 C        2.918    -0.064    29.588     8.920
    16   6 C        2.867     0.147    24.804     8.164
    17   8 O        1.705    -0.269    18.467     5.802
    18   6 C        3.643     0.039    20.266     6.471
    19   7 N        2.772    -0.114    23.492     7.199
    20   6 C        2.757     0.278    22.305     7.734
    21   6 C        3.162    -0.050    28.901     8.787
    22   6 C        2.942    -0.019    28.490     8.754
    23  16 S        2.302    -0.011   141.492    20.020
    24   6 C        2.932    -0.068    29.686     8.935
    25   6 C        3.069     0.133    25.038     8.205
    26   8 O        1.704    -0.277    18.594     5.822
    27   6 C        3.651     0.037    20.264     6.465
    28   8 O        0.859    -0.418    22.039     6.294
    29   6 C        3.783     0.084    19.209     6.243
    30   6 C        2.689     0.360    20.895     7.481
    31   8 O        1.659    -0.377    20.400     6.097
    32   8 O        0.856    -0.379    21.270     6.183
    33   7 N        2.770    -0.095    23.097     7.138
    34   6 C        2.756     0.283    22.199     7.716
    35   6 C        3.166    -0.050    28.877     8.782
    36   6 C        2.938    -0.016    28.401     8.740
    37  16 S        2.302    -0.013   141.578    20.026
    38   6 C        2.931    -0.070    29.750     8.945
    39   6 C        3.066     0.132    25.058     8.208
    40   8 O        1.704    -0.271    18.493     5.806
    41   6 C        3.652     0.038    20.237     6.461
    42   8 O        0.858    -0.413    21.949     6.281
    43   1 H        0.925     0.058     2.220     2.330
    44   1 H        0.924     0.037     2.484     2.465
    45   1 H        0.924     0.044     2.394     2.420
    46   1 H        0.926     0.037     2.491     2.468
    47   1 H        0.926     0.035     2.515     2.480
    48   1 H        0.926     0.035     2.518     2.481
    49   1 H        0.926     0.055     2.263     2.353
    50   1 H        0.923     0.086     1.916     2.165
    51   1 H        0.924     0.075     2.035     2.231
    52   1 H        0.926     0.047     2.356     2.400
    53   1 H        0.926     0.036     2.499     2.472
    54   1 H        0.926     0.037     2.495     2.470
    55   1 H        0.926     0.040     2.455     2.450
    56   1 H        0.924     0.039     2.457     2.451
    57   1 H        0.925     0.062     2.179     2.309
    58   1 H        0.924     0.046     2.364     2.405
    59   1 H        0.926     0.061     2.191     2.315
    60   1 H        0.927     0.052     2.300     2.371
    61   1 H        0.924     0.041     2.431     2.439
    62   1 H        0.925     0.067     2.121     2.277
    63   1 H        0.924     0.047     2.357     2.401
    64   1 H        0.924     0.083     1.952     2.185
    65   1 H        0.804     0.340     0.612     1.229
    66   1 H        0.926     0.066     2.132     2.283
    67   1 H        0.927     0.050     2.315     2.379
    68   1 H        0.924     0.040     2.450     2.448
    69   1 H        0.924     0.046     2.372     2.409
    70   1 H        0.925     0.069     2.098     2.265

Wiberg/Mayer (AO) data.
largest (>0.10) Wiberg bond orders for each atom

     #   Z sym  total        # sym  WBO       # sym  WBO       # sym  WBO
 ---------------------------------------------------------------------------
     1   6 C    3.935 --     4 C    1.392     8 C    1.309     2 O    1.064
     2   8 O    2.236 --     1 C    1.064     3 C    0.985
     3   6 C    3.947 --     2 O    0.985    43 H    0.980    45 H    0.977
                            44 H    0.976
     4   6 C    3.987 --     5 C    1.424     1 C    1.392    46 H    0.966
     5   6 C    3.991 --     6 C    1.454     4 C    1.424    47 H    0.971
                             8 C    0.106
     6   6 C    3.991 --     5 C    1.454     7 C    1.412    48 H    0.971
     7   6 C    3.987 --     8 C    1.450     6 C    1.412    49 H    0.960
     8   6 C    3.981 --     7 C    1.450     1 C    1.309     9 C    0.999
                             5 C    0.106
     9   6 C    3.956 --     8 C    0.999    10 C    0.962    33 N    0.944
                            50 H    0.935
    10   6 C    3.957 --    11 C    0.995     9 C    0.962    51 H    0.948
                            19 N    0.943
    11   6 C    3.983 --    12 C    1.435    16 C    1.326    10 C    0.995
                            14 C    0.106
    12   6 C    3.990 --    11 C    1.435    13 C    1.427    52 H    0.963
                            15 C    0.103
    13   6 C    3.991 --    14 C    1.442    12 C    1.427    53 H    0.971
    14   6 C    3.990 --    13 C    1.442    15 C    1.436    54 H    0.971
                            11 C    0.106
    15   6 C    3.987 --    14 C    1.436    16 C    1.381    55 H    0.965
                            12 C    0.103
    16   6 C    3.935 --    15 C    1.381    11 C    1.326    17 O    1.059
    17   8 O    2.235 --    16 C    1.059    18 C    0.982
    18   6 C    3.945 --    17 O    0.982    57 H    0.979    58 H    0.977
                            56 H    0.976
    19   7 N    3.479 --    20 C    1.228    29 C    0.962    10 C    0.943
                            28 O    0.196
    20   6 C    3.953 --    28 O    1.683    19 N    1.228    21 C    0.956
    21   6 C    3.979 --    22 C    1.605    25 C    1.178    20 C    0.956
                            23 S    0.101
    22   6 C    3.953 --    21 C    1.605    23 S    1.199    59 H    0.970
                            24 C    0.110
    23  16 S    2.625 --    22 C    1.199    24 C    1.166    21 C    0.101
    24   6 C    3.928 --    25 C    1.558    23 S    1.166    60 H    0.969
                            22 C    0.110
    25   6 C    3.933 --    24 C    1.558    21 C    1.178    26 O    1.050
    26   8 O    2.225 --    25 C    1.050    27 C    0.979
    27   6 C    3.940 --    62 H    0.979    26 O    0.979    63 H    0.977
                            61 H    0.977
    28   8 O    2.024 --    20 C    1.683    19 N    0.196
    29   6 C    3.968 --    33 N    0.998    19 N    0.962    64 H    0.938
                            30 C    0.915
    30   6 C    3.917 --    32 O    1.782    31 O    1.136    29 C    0.915
    31   8 O    2.201 --    30 C    1.136    65 H    0.858    32 O    0.177
    32   8 O    2.070 --    30 C    1.782    31 O    0.177
    33   7 N    3.478 --    34 C    1.213    29 C    0.998     9 C    0.944
                            42 O    0.189
    34   6 C    3.952 --    42 O    1.689    33 N    1.213    35 C    0.962
    35   6 C    3.978 --    36 C    1.602    39 C    1.171    34 C    0.962
    36   6 C    3.953 --    35 C    1.602    37 S    1.202    66 H    0.968
                            38 C    0.108
    37  16 S    2.626 --    36 C    1.202    38 C    1.161
    38   6 C    3.926 --    39 C    1.559    37 S    1.161    67 H    0.969
                            36 C    0.108
    39   6 C    3.933 --    38 C    1.559    35 C    1.171    40 O    1.055
    40   8 O    2.237 --    39 C    1.055    41 C    0.979
    41   6 C    3.941 --    70 H    0.980    40 O    0.979    69 H    0.977
                            68 H    0.976
    42   8 O    2.030 --    34 C    1.689    33 N    0.189
    43   1 H    0.996 --     3 C    0.980
    44   1 H    0.999 --     3 C    0.976
    45   1 H    0.998 --     3 C    0.977
    46   1 H    0.998 --     4 C    0.966
    47   1 H    0.998 --     5 C    0.971
    48   1 H    0.998 --     6 C    0.971
    49   1 H    0.996 --     7 C    0.960
    50   1 H    0.991 --     9 C    0.935
    51   1 H    0.993 --    10 C    0.948
    52   1 H    0.997 --    12 C    0.963
    53   1 H    0.998 --    13 C    0.971
    54   1 H    0.998 --    14 C    0.971
    55   1 H    0.998 --    15 C    0.965
    56   1 H    0.998 --    18 C    0.976
    57   1 H    0.996 --    18 C    0.979
    58   1 H    0.998 --    18 C    0.977
    59   1 H    0.996 --    22 C    0.970
    60   1 H    0.996 --    24 C    0.969
    61   1 H    0.998 --    27 C    0.977
    62   1 H    0.995 --    27 C    0.979
    63   1 H    0.998 --    27 C    0.977
    64   1 H    0.992 --    29 C    0.938
    65   1 H    0.884 --    31 O    0.858
    66   1 H    0.995 --    36 C    0.968
    67   1 H    0.997 --    38 C    0.969
    68   1 H    0.998 --    41 C    0.976
    69   1 H    0.998 --    41 C    0.977
    70   1 H    0.995 --    41 C    0.980
 ---------------------------------------------------------------------------

molecular dipole:
                 x           y           z       tot (Debye)
 q only:       -0.204       1.405       0.697
   full:       -0.348       1.602       0.813       4.651

           -------------------------------------------------
          | TOTAL ENERGY             -123.419101002646 Eh   |
          | GRADIENT NORM               0.000289752097 Eh/Î± |
          | HOMO-LUMO GAP               2.785516418004 eV   |
           -------------------------------------------------

 * finished run on 2022/03/16 at 21:23:52.808
