   * xtb version 6.3.3 (4ae9cef) compiled by 'conda@95abc7406d43' on 2020-10-14
          program call               : xtb acid_281.xyz --opt --chrg 0 --uhf 0 --gfn 2
          number of atoms            :                    74
          number of electrons        :                   250
          charge                     :                     0
          spin                       :                   0.0

   ID    Z sym.   atoms
    1    6 C      1, 2, 6-15, 19-22, 24-29, 31, 32, 34, 35, 39-42, 44-47
    2    9 F      3-5, 16-18
    3    7 N      23, 38
    4    8 O      30, 33, 36, 37, 43, 48
    5    1 H      49-74

          :  Hamiltonian                  GFN2-xTB          :
 * total energy  :  -144.7396152 Eh     change       -0.2018425E-08 Eh
 * total energy  :  -144.7584919 Eh     change       -0.1887671E-01 Eh
 * total energy  :  -144.7648814 Eh     change       -0.6389456E-02 Eh
 * total energy  :  -144.7668627 Eh     change       -0.1981360E-02 Eh
 * total energy  :  -144.7683837 Eh     change       -0.1520952E-02 Eh
 * total energy  :  -144.7693033 Eh     change       -0.9196049E-03 Eh
 * total energy  :  -144.7699749 Eh     change       -0.6716184E-03 Eh
 * total energy  :  -144.7705873 Eh     change       -0.6123906E-03 Eh
 * total energy  :  -144.7712023 Eh     change       -0.6150163E-03 Eh
 * total energy  :  -144.7717215 Eh     change       -0.5192009E-03 Eh
 * total energy  :  -144.7836659 Eh     change       -0.1394019E-04 Eh
 * total energy  :  -144.7836792 Eh     change       -0.1329595E-04 Eh
 * total energy  :  -144.7836900 Eh     change       -0.1081385E-04 Eh
 * total energy  :  -144.7836991 Eh     change       -0.9111055E-05 Eh
 * total energy  :  -144.7837077 Eh     change       -0.8574077E-05 Eh
 * total energy  :  -144.7837151 Eh     change       -0.7489895E-05 Eh
 * total energy  :  -144.7837214 Eh     change       -0.6250748E-05 Eh
 * total energy  :  -144.7837269 Eh     change       -0.5502228E-05 Eh
 * total energy  :  -144.7837310 Eh     change       -0.4111349E-05 Eh
   *** GEOMETRY OPTIMIZATION CONVERGED AFTER 84 ITERATIONS ***

 final structure:
================
74
 xtb: 6.3.3 (4ae9cef)
C         1.05638156696478    3.19061907153231   -1.52350840423123
C         0.26747677688296    4.25058521600913   -0.80793472688504
F         0.30728561000746    5.43930826850605   -1.41978854861483
F         0.66785630936604    4.47162337232158    0.45560124019614
F        -1.04939441656112    3.93714972889918   -0.71321874838957
C         1.75572588310017    3.54051799645191   -2.67178072935546
C         2.47282054639348    2.58647625370272   -3.36764081381462
C         2.48583420297977    1.27534363132051   -2.92402973344114
C         1.78864278154591    0.92528060599762   -1.78460428940616
C         1.07546170458008    1.87523158730408   -1.06167014260991
C         0.34226305588432    1.42517755908668    0.17595645408824
C        -0.83648185869887    0.47885611842904   -0.15471681204803
C        -2.16549699801543    1.18613442596676   -0.06473659221602
C        -2.92532076356583    1.54423620220948   -1.17958476834665
C        -2.43286145520772    1.31701223807676   -2.58240580525848
F        -2.14488458534681    0.02954606566986   -2.86738139318981
F        -3.31324208842580    1.69720124428256   -3.51320743673153
F        -1.29773263842454    1.99444597436248   -2.84654180308542
C        -4.14827499568303    2.18512792386629   -1.01598221974055
C        -4.61682072545003    2.48741256529034    0.24767741581556
C        -3.85553746998940    2.16599228724574    1.35753291565672
C        -2.64516899935961    1.52109268705036    1.19668682530899
N        -0.71162787991489   -0.57511538419412    0.84008760983296
C        -1.40497767851487   -1.74204225855631    0.86904063315708
C        -2.67417340829936   -1.76134772200986    0.08344954664902
C        -3.84791339481009   -1.32971678339203    0.68326625449917
C        -5.02944612279588   -1.36118488260113   -0.03894242709049
C        -5.04269347228105   -1.82993661031306   -1.33491752658760
C        -3.86916559376738   -2.29682893132880   -1.93200255879066
O        -3.99390563968715   -2.75560388666067   -3.19925424330355
C        -2.84294618295363   -3.20943107444362   -3.87389630667609
C        -2.67889887069883   -2.26116795680302   -1.21105807758941
O        -1.00951413742355   -2.67473612097484    1.54013441686562
C         0.50022612951663   -0.47314188673220    1.63214745027006
C         1.27033766750500   -1.81303009062693    1.61213874239434
O         1.53937491647348   -2.18216547641897    0.35730954274746
O         1.64365286143989   -2.39925658461126    2.58413862114891
N         1.21416108334612    0.61906385843352    1.02358707624190
C         2.48197454061282    1.03497718244189    1.30510607094773
C         3.23862695271910    0.12424862853746    2.21389283206627
C         4.14509586875610   -0.76218074031928    1.66163241212927
C         4.85482575475128   -1.64187473703420    2.47877154488212
O         5.68891131781670   -2.50047168439157    1.83293566595994
C         6.43506871652704   -3.41629037847600    2.59966509357668
C         4.66431060327051   -1.59395585463296    3.85508891382286
C         3.77797386026747   -0.67950693272851    4.39801234471554
C         3.05896874221648    0.17933344950754    3.59094004603512
O         2.94309081340450    2.04443078382180    0.82104600751081
H         1.73735394144233    4.56247900174584   -3.01631068469529
H         3.01904691861405    2.86811226035222   -4.25420816894921
H         3.04181534474559    0.52483217336524   -3.46534027542822
H         1.80746024478871   -0.09564261988264   -1.43062656529586
H        -0.02123866701747    2.28026545766163    0.75683011260858
H        -0.68683824345397    0.04645766391717   -1.14923630088668
H        -4.72900214914496    2.45363064729246   -1.88411455195045
H        -5.56665363979689    2.98524880659045    0.36157406168589
H        -4.20362972044941    2.41734016079547    2.34762415253874
H        -2.05486200181306    1.26089837424401    2.06241858732597
H        -3.83636442415776   -0.97889324170460    1.70301840082653
H        -5.94550802098930   -1.01779681123368    0.41680406793050
H        -5.95331586049459   -1.85869323130711   -1.91154650330230
H        -2.39521238697478   -4.06986626492878   -3.36700107477078
H        -2.10114187733086   -2.41204895421945   -3.97256998308787
H        -3.18424517249051   -3.51166909609559   -4.86254854631052
H        -1.75406454989453   -2.61104295684015   -1.64087030829056
H         0.25076256661532   -0.27250007594666    2.69012264089321
H         2.00921542751350   -3.03142045601585    0.35853555680940
H         4.30441015377303   -0.79667671341543    0.59481597995818
H         7.11081709760127   -2.90378651806419    3.29132186162338
H         7.02173350212286   -3.98959511378100    1.88340033946344
H         5.78325533477542   -4.09378962520676    3.15999002381668
H         5.19530160221215   -2.26326918470374    4.51256878428529
H         3.64293213003445   -0.64892700592941    5.46847580739506
H         2.36810355933183    0.88891037422279    4.01982601670856

          :  Hamiltonian                  GFN2-xTB          :
         :: total energy            -144.783731007239 Eh    ::
         :: gradient norm              0.000340819379 Eh/a0 ::
         :: HOMO-LUMO gap              3.021180907209 eV    ::
         :: SCC energy              -146.497816199857 Eh    ::
         :: -> dispersion             -0.110248008126 Eh    ::
         :: repulsion energy           1.709752059623 Eh    ::

    * Orbital Energies and Occupations

         #    Occupation            Energy/Eh            Energy/eV
      -------------------------------------------------------------
         1        2.0000           -0.8896917             -24.2097
       ...           ...                  ...                  ...
       113        2.0000           -0.4458317             -12.1317
       114        2.0000           -0.4424319             -12.0392
       115        2.0000           -0.4381507             -11.9227
       116        2.0000           -0.4354889             -11.8503
       117        2.0000           -0.4290441             -11.6749
       118        2.0000           -0.4232385             -11.5169
       119        2.0000           -0.4215413             -11.4707
       120        2.0000           -0.4131446             -11.2422
       121        2.0000           -0.4103814             -11.1670
       122        2.0000           -0.4070618             -11.0767
       123        2.0000           -0.3980772             -10.8322
       124        2.0000           -0.3920523             -10.6683
       125        2.0000           -0.3874319             -10.5426 (HOMO)
       126                         -0.2764056              -7.5214 (LUMO)
       127                         -0.2674017              -7.2764
       128                         -0.2599481              -7.0735
       129                         -0.2550473              -6.9402
       130                         -0.2507736              -6.8239
       131                         -0.2414158              -6.5693
       132                         -0.2361536              -6.4261
       133                         -0.2338217              -6.3626
       134                         -0.2294518              -6.2437
       135                         -0.2253419              -6.1319
       136                         -0.2172702              -5.9122
       ...                                ...                  ...
       218                          0.6656685              18.1138
      -------------------------------------------------------------
                  HL-Gap            0.1110264 Eh            3.0212 eV

     #   Z          covCN         q      C6AA      Î±(0)
     1   6 C        2.976    -0.021    28.516     8.759
     2   6 C        3.335     0.486    17.294     6.587
     3   9 F        0.792    -0.199    11.222     3.957
     4   9 F        0.791    -0.203    11.270     3.966
     5   9 F        0.791    -0.228    11.524     4.010
     6   6 C        2.923    -0.017    28.444     8.746
     7   6 C        2.920    -0.020    28.516     8.757
     8   6 C        2.919    -0.016    28.419     8.742
     9   6 C        2.927    -0.024    28.614     8.772
    10   6 C        2.973     0.027    27.400     8.586
    11   6 C        3.826     0.051    19.695     6.315
    12   6 C        3.814     0.040    19.892     6.348
    13   6 C        2.971     0.011    27.761     8.642
    14   6 C        2.975    -0.030    28.738     8.793
    15   6 C        3.336     0.485    17.301     6.588
    16   9 F        0.792    -0.216    11.406     3.989
    17   9 F        0.792    -0.196    11.195     3.952
    18   9 F        0.792    -0.215    11.388     3.986
    19   6 C        2.924    -0.020    28.500     8.755
    20   6 C        2.920    -0.021    28.519     8.757
    21   6 C        2.918    -0.016    28.420     8.742
    22   6 C        2.928    -0.025    28.619     8.773
    23   7 N        2.766    -0.114    23.479     7.197
    24   6 C        2.769     0.274    22.360     7.744
    25   6 C        2.978    -0.016    28.411     8.743
    26   6 C        2.922    -0.042    29.055     8.840
    27   6 C        2.919    -0.029    28.736     8.791
    28   6 C        2.921    -0.055    29.373     8.888
    29   6 C        2.866     0.151    24.713     8.149
    30   8 O        1.706    -0.255    18.221     5.763
    31   6 C        3.645     0.030    20.400     6.492
    32   6 C        2.920    -0.063    29.558     8.916
    33   8 O        0.860    -0.412    21.924     6.278
    34   6 C        3.758     0.096    19.045     6.222
    35   6 C        2.687     0.368    20.755     7.456
    36   8 O        1.659    -0.370    20.269     6.078
    37   8 O        0.856    -0.377    21.226     6.177
    38   7 N        2.764    -0.119    23.583     7.212
    39   6 C        2.764     0.275    22.353     7.743
    40   6 C        2.979    -0.019    28.479     8.754
    41   6 C        2.926    -0.052    29.287     8.875
    42   6 C        2.866     0.150    24.736     8.152
    43   8 O        1.706    -0.266    18.411     5.793
    44   6 C        3.644     0.034    20.331     6.481
    45   6 C        2.918    -0.059    29.456     8.900
    46   6 C        2.922    -0.021    28.521     8.758
    47   6 C        2.920    -0.037    28.922     8.819
    48   8 O        0.859    -0.410    21.885     6.272
    49   1 H        0.926     0.069     2.095     2.263
    50   1 H        0.926     0.058     2.220     2.330
    51   1 H        0.926     0.055     2.253     2.347
    52   1 H        0.926     0.057     2.239     2.340
    53   1 H        0.924     0.062     2.177     2.307
    54   1 H        0.924     0.062     2.171     2.304
    55   1 H        0.926     0.072     2.065     2.247
    56   1 H        0.926     0.063     2.169     2.303
    57   1 H        0.926     0.061     2.184     2.311
    58   1 H        0.926     0.056     2.249     2.345
    59   1 H        0.926     0.036     2.498     2.472
    60   1 H        0.926     0.045     2.386     2.416
    61   1 H        0.926     0.058     2.227     2.333
    62   1 H        0.924     0.044     2.392     2.419
    63   1 H        0.924     0.051     2.304     2.374
    64   1 H        0.925     0.068     2.112     2.272
    65   1 H        0.926     0.045     2.379     2.412
    66   1 H        0.922     0.063     2.169     2.303
    67   1 H        0.804     0.344     0.602     1.218
    68   1 H        0.926     0.050     2.321     2.382
    69   1 H        0.924     0.043     2.403     2.424
    70   1 H        0.925     0.064     2.153     2.294
    71   1 H        0.924     0.046     2.376     2.411
    72   1 H        0.926     0.046     2.369     2.407
    73   1 H        0.926     0.048     2.348     2.396
    74   1 H        0.926     0.036     2.500     2.473

Wiberg/Mayer (AO) data.
largest (>0.10) Wiberg bond orders for each atom

     #   Z sym  total        # sym  WBO       # sym  WBO       # sym  WBO
 ---------------------------------------------------------------------------
     1   6 C    3.970 --     6 C    1.412    10 C    1.387     2 C    0.952
                             8 C    0.104
     2   6 C    3.820 --     3 F    0.958     1 C    0.952     4 F    0.947
                             5 F    0.924
     3   9 F    1.081 --     2 C    0.958
     4   9 F    1.077 --     2 C    0.947
     5   9 F    1.050 --     2 C    0.924
     6   6 C    3.987 --     7 C    1.444     1 C    1.412    49 H    0.965
                             9 C    0.109
     7   6 C    3.988 --     6 C    1.444     8 C    1.431    50 H    0.969
                            10 C    0.108
     8   6 C    3.990 --     9 C    1.451     7 C    1.431    51 H    0.969
                             1 C    0.104
     9   6 C    3.989 --     8 C    1.451    10 C    1.406    52 H    0.965
                             6 C    0.109
    10   6 C    3.986 --     9 C    1.406     1 C    1.387    11 C    0.994
                             7 C    0.108
    11   6 C    3.969 --    10 C    0.994    38 N    0.958    53 H    0.953
                            12 C    0.949
    12   6 C    3.969 --    13 C    0.993    23 N    0.963    54 H    0.953
                            11 C    0.949
    13   6 C    3.986 --    22 C    1.407    14 C    1.386    12 C    0.993
                            20 C    0.108
    14   6 C    3.969 --    19 C    1.410    13 C    1.386    15 C    0.951
                            21 C    0.104
    15   6 C    3.821 --    17 F    0.960    14 C    0.951    18 F    0.937
                            16 F    0.933
    16   9 F    1.063 --    15 C    0.933
    17   9 F    1.083 --    15 C    0.960
    18   9 F    1.065 --    15 C    0.937
    19   6 C    3.986 --    20 C    1.445    14 C    1.410    55 H    0.965
                            22 C    0.109
    20   6 C    3.987 --    19 C    1.445    21 C    1.431    56 H    0.968
                            13 C    0.108
    21   6 C    3.989 --    22 C    1.449    20 C    1.431    57 H    0.968
                            14 C    0.104
    22   6 C    3.989 --    21 C    1.449    13 C    1.407    58 H    0.966
                            19 C    0.109
    23   7 N    3.456 --    24 C    1.213    34 C    0.974    12 C    0.963
                            33 O    0.186
    24   6 C    3.940 --    33 O    1.681    23 N    1.213    25 C    0.960
    25   6 C    3.987 --    32 C    1.410    26 C    1.407    24 C    0.960
                            28 C    0.106
    26   6 C    3.989 --    27 C    1.419    25 C    1.407    59 H    0.969
    27   6 C    3.991 --    28 C    1.471    26 C    1.419    60 H    0.969
                            32 C    0.100
    28   6 C    3.987 --    27 C    1.471    29 C    1.343    61 H    0.967
                            25 C    0.106
    29   6 C    3.940 --    32 C    1.366    28 C    1.343    30 O    1.084
    30   8 O    2.254 --    29 C    1.084    31 C    0.980
    31   6 C    3.941 --    30 O    0.980    64 H    0.979    62 H    0.977
                            63 H    0.976
    32   6 C    3.986 --    25 C    1.410    29 C    1.366    65 H    0.965
                            27 C    0.100
    33   8 O    2.057 --    24 C    1.681    23 N    0.186
    34   6 C    3.964 --    38 N    0.987    23 N    0.974    66 H    0.943
                            35 C    0.908
    35   6 C    3.927 --    37 O    1.784    36 O    1.136    34 C    0.908
    36   8 O    2.199 --    35 C    1.136    67 H    0.857    37 O    0.173
    37   8 O    2.074 --    35 C    1.784    36 O    0.173
    38   7 N    3.448 --    39 C    1.192    34 C    0.987    11 C    0.958
                            48 O    0.189
    39   6 C    3.942 --    48 O    1.707    38 N    1.192    40 C    0.959
    40   6 C    3.986 --    41 C    1.431    47 C    1.386    39 C    0.959
                            45 C    0.101
    41   6 C    3.987 --    40 C    1.431    42 C    1.350    68 H    0.967
                            46 C    0.107
    42   6 C    3.938 --    45 C    1.373    41 C    1.350    43 O    1.068
    43   8 O    2.236 --    42 C    1.068    44 C    0.982
    44   6 C    3.943 --    43 O    0.982    70 H    0.980    69 H    0.977
                            71 H    0.977
    45   6 C    3.988 --    46 C    1.437    42 C    1.373    72 H    0.966
                            40 C    0.101
    46   6 C    3.991 --    47 C    1.447    45 C    1.437    73 H    0.969
                            41 C    0.107
    47   6 C    3.990 --    46 C    1.447    40 C    1.386    74 H    0.970
    48   8 O    2.038 --    39 C    1.707    38 N    0.189
    49   1 H    0.995 --     6 C    0.965
    50   1 H    0.996 --     7 C    0.969
    51   1 H    0.996 --     8 C    0.969
    52   1 H    0.996 --     9 C    0.965
    53   1 H    0.996 --    11 C    0.953
    54   1 H    0.996 --    12 C    0.953
    55   1 H    0.994 --    19 C    0.965
    56   1 H    0.995 --    20 C    0.968
    57   1 H    0.995 --    21 C    0.968
    58   1 H    0.997 --    22 C    0.966
    59   1 H    0.999 --    26 C    0.969
    60   1 H    0.997 --    27 C    0.969
    61   1 H    0.996 --    28 C    0.967
    62   1 H    0.998 --    31 C    0.977
    63   1 H    0.997 --    31 C    0.976
    64   1 H    0.995 --    31 C    0.979
    65   1 H    0.998 --    32 C    0.965
    66   1 H    0.996 --    34 C    0.943
    67   1 H    0.881 --    36 O    0.857
    68   1 H    0.997 --    41 C    0.967
    69   1 H    0.998 --    44 C    0.977
    70   1 H    0.995 --    44 C    0.980
    71   1 H    0.998 --    44 C    0.977
    72   1 H    0.997 --    45 C    0.966
    73   1 H    0.997 --    46 C    0.969
    74   1 H    0.999 --    47 C    0.970
 ---------------------------------------------------------------------------

molecular dipole:
                 x           y           z       tot (Debye)
 q only:       -0.304      -0.935      -0.450
   full:       -0.192      -1.110      -0.284       2.952

           -------------------------------------------------
          | TOTAL ENERGY             -144.783731007239 Eh   |
          | GRADIENT NORM               0.000340819379 Eh/Î± |
          | HOMO-LUMO GAP               3.021180907209 eV   |
           -------------------------------------------------

 * finished run on 2022/03/16 at 23:20:01.103
