   * xtb version 6.3.3 (4ae9cef) compiled by 'conda@95abc7406d43' on 2020-10-14
          program call               : xtb acid_58.xyz --opt --chrg 0 --uhf 0 --gfn 2
          number of atoms            :                    66
          number of electrons        :                   226
          charge                     :                     0
          spin                       :                   0.0

   ID    Z sym.   atoms
    1    6 C      1, 2, 6-15, 19-22, 24-30, 32, 33, 37-43
    2    9 F      3-5, 16-18
    3    7 N      23, 36
    4    8 O      31, 34, 35, 44
    5    1 H      45-66

          :  Hamiltonian                  GFN2-xTB          :
 * total energy  :  -130.2569203 Eh     change       -0.1299981E-08 Eh
 * total energy  :  -130.2748504 Eh     change       -0.1793007E-01 Eh
 * total energy  :  -130.2805170 Eh     change       -0.5666640E-02 Eh
 * total energy  :  -130.2823321 Eh     change       -0.1815077E-02 Eh
 * total energy  :  -130.2832559 Eh     change       -0.9238513E-03 Eh
 * total energy  :  -130.2836988 Eh     change       -0.4428457E-03 Eh
 * total energy  :  -130.2840050 Eh     change       -0.3062133E-03 Eh
 * total energy  :  -130.2843557 Eh     change       -0.3506562E-03 Eh
 * total energy  :  -130.2847437 Eh     change       -0.3880667E-03 Eh
 * total energy  :  -130.2851147 Eh     change       -0.3710031E-03 Eh
 * total energy  :  -130.3170398 Eh     change       -0.1224021E-04 Eh
 * total energy  :  -130.3170496 Eh     change       -0.9749261E-05 Eh
 * total energy  :  -130.3170569 Eh     change       -0.7374833E-05 Eh
 * total energy  :  -130.3170630 Eh     change       -0.6081618E-05 Eh
 * total energy  :  -130.3170690 Eh     change       -0.5993962E-05 Eh
 * total energy  :  -130.3170746 Eh     change       -0.5534863E-05 Eh
 * total energy  :  -130.3170800 Eh     change       -0.5468201E-05 Eh
 * total energy  :  -130.3170850 Eh     change       -0.5024685E-05 Eh
 * total energy  :  -130.3170900 Eh     change       -0.4905814E-05 Eh
   *** GEOMETRY OPTIMIZATION CONVERGED AFTER 93 ITERATIONS ***

 final structure:
================
66
 xtb: 6.3.3 (4ae9cef)
C        -2.67705135963759   -1.07897411011493    1.10896366324929
C        -2.22244767814556   -1.35246410504168    2.51630776423563
F        -3.16433463460291   -1.93241181466590    3.26758826244753
F        -1.85167913196038   -0.24833063854628    3.19704805654352
F        -1.15455324172010   -2.17525655281638    2.56042938892610
C        -3.94555533783340   -1.51049094924048    0.73808013982420
C        -4.38915607990238   -1.34283128791381   -0.55880141887193
C        -3.55767200149765   -0.75898088340562   -1.49805468370858
C        -2.29970656263400   -0.32451151368556   -1.13082074606629
C        -1.84322000585712   -0.45947369391129    0.17644876125797
C        -0.45635763152196    0.02834909029758    0.50351618007145
C         0.62151945924124   -0.83897170426647   -0.19895546270349
C         1.11861886171512   -1.97019575913780    0.66196731570477
C         0.83969233138607   -3.31204847581772    0.40191075131547
C        -0.01474964762444   -3.72143351308932   -0.76483771784156
F         0.45185074455394   -3.32573338838363   -1.95926673781538
F        -1.26883935841405   -3.21110836439120   -0.68124366184736
F        -0.17857144675020   -5.04659802126702   -0.85672306794539
C         1.33050943927190   -4.30635284489039    1.23948757536387
C         2.09892356651008   -3.97713495621492    2.33897881490218
C         2.37429672141044   -2.64878243762290    2.61056078395148
C         1.88432175185737   -1.66045800048016    1.78045958539350
N         1.69030530241589    0.12007602332169   -0.45021014901787
C         2.90357924657270   -0.30314956271994   -0.92033040240082
C         3.90006644236856    0.77786291843808   -1.16095429229946
C         4.30746297988480    1.61277281583207   -0.12695609929766
C         5.26501899134391    2.58265812328716   -0.35848024279316
C         5.81461066384097    2.72838452791345   -1.62106726975328
C         5.42380803363682    1.88648309643573   -2.64785147385282
C         4.47785731865200    0.90450810938226   -2.41740786483200
O         3.14227100917794   -1.48087301343974   -1.08035479365776
C         1.16406198094869    1.45808056069170   -0.55046873619338
C         1.14353030532703    1.95905379572167   -2.01221408960360
O         0.30731446590478    1.22806675196014   -2.76141564199798
O         1.89759613705477    2.77567559846221   -2.45436806698991
N        -0.17948598506077    1.35945675754283   -0.01658090565860
C        -1.03367687780754    2.35446443732509   -0.37286371619553
C        -2.38917808971465    2.34817473503759    0.22909434712566
C        -3.49359166570702    2.54886505177564   -0.59202925997615
C        -4.76513147347295    2.55204678667586   -0.05130431251911
C        -4.93891352827222    2.38566896440394    1.31316939888546
C        -3.83765822465386    2.23152498933409    2.13846407459320
C        -2.56344342694913    2.21231362352299    1.60079959841266
O        -0.64863450846643    3.22522569627496   -1.13643199488986
H        -4.58040475206661   -1.98680263972592    1.46846194457459
H        -5.37462720095419   -1.68256279345557   -0.83531308862190
H        -3.88712254050032   -0.64559739245136   -2.51913707947940
H        -1.65518015515666    0.13340090100602   -1.86625088767049
H        -0.26554038055335    0.02075808600482    1.58222489038146
H         0.23006774190319   -1.20457855409287   -1.15443091753980
H         1.11010926804077   -5.34017006078447    1.02454087157716
H         2.47961291930127   -4.75673118841314    2.97975196069355
H         2.97218163430561   -2.38199477802056    3.46856569621684
H         2.10868564300580   -0.62511165369723    1.98968511711054
H         3.89261277049416    1.48722675169066    0.86357372636066
H         5.58095941375163    3.22807373508424    0.44774360727237
H         6.55315023218876    3.49502116706390   -1.80166442386903
H         5.85873533665690    1.99291160160386   -3.63010140060378
H         4.17321150470157    0.23543920612169   -3.20811978122716
H         1.76131736412207    2.18308253813299    0.02215976504145
H         0.32873628431679    1.54388035851997   -3.67862561175540
H        -3.34197712169448    2.69089937978476   -1.65100524267963
H        -5.62162334930616    2.69464128343380   -0.69238146327281
H        -5.93279565431123    2.38940744328088    1.73500297824806
H        -3.96798044932020    2.12515333638714    3.20469377743720
H        -1.70573336382724    2.11050741004210    2.24734790833519

          :  Hamiltonian                  GFN2-xTB          :
         :: total energy            -130.317089951135 Eh    ::
         :: gradient norm              0.000991952667 Eh/a0 ::
         :: HOMO-LUMO gap              3.279114604093 eV    ::
         :: SCC energy              -131.932517726444 Eh    ::
         :: -> dispersion             -0.101788160641 Eh    ::
         :: repulsion energy           1.611666992913 Eh    ::

    * Orbital Energies and Occupations

         #    Occupation            Energy/Eh            Energy/eV
      -------------------------------------------------------------
         1        2.0000           -0.8912082             -24.2510
       ...           ...                  ...                  ...
       101        2.0000           -0.4452164             -12.1150
       102        2.0000           -0.4440361             -12.0828
       103        2.0000           -0.4382452             -11.9253
       104        2.0000           -0.4332061             -11.7881
       105        2.0000           -0.4316583             -11.7460
       106        2.0000           -0.4265171             -11.6061
       107        2.0000           -0.4237459             -11.5307
       108        2.0000           -0.4232351             -11.5168
       109        2.0000           -0.4161131             -11.3230
       110        2.0000           -0.4140074             -11.2657
       111        2.0000           -0.4123959             -11.2219
       112        2.0000           -0.4034064             -10.9772
       113        2.0000           -0.3991044             -10.8602 (HOMO)
       114                         -0.2785991              -7.5811 (LUMO)
       115                         -0.2714230              -7.3858
       116                         -0.2660136              -7.2386
       117                         -0.2623919              -7.1400
       118                         -0.2545834              -6.9276
       119                         -0.2504454              -6.8150
       120                         -0.2465034              -6.7077
       121                         -0.2440461              -6.6408
       122                         -0.2310569              -6.2874
       123                         -0.2145184              -5.8373
       124                         -0.2071431              -5.6367
       ...                                ...                  ...
       198                          0.6654174              18.1069
      -------------------------------------------------------------
                  HL-Gap            0.1205052 Eh            3.2791 eV

     #   Z          covCN         q      C6AA      Î±(0)
     1   6 C        2.976    -0.032    28.790     8.801
     2   6 C        3.336     0.484    17.312     6.590
     3   9 F        0.792    -0.198    11.212     3.955
     4   9 F        0.791    -0.213    11.370     3.983
     5   9 F        0.791    -0.216    11.402     3.989
     6   6 C        2.924    -0.021    28.542     8.761
     7   6 C        2.920    -0.021    28.523     8.758
     8   6 C        2.919    -0.016    28.407     8.740
     9   6 C        2.927    -0.028    28.691     8.784
    10   6 C        2.971     0.012    27.750     8.641
    11   6 C        3.818     0.041    19.875     6.345
    12   6 C        3.830     0.051    19.692     6.314
    13   6 C        2.972     0.026    27.427     8.590
    14   6 C        2.976    -0.023    28.572     8.768
    15   6 C        3.336     0.486    17.292     6.586
    16   9 F        0.791    -0.201    11.250     3.962
    17   9 F        0.791    -0.228    11.529     4.011
    18   9 F        0.792    -0.200    11.235     3.959
    19   6 C        2.924    -0.018    28.466     8.749
    20   6 C        2.920    -0.020    28.499     8.754
    21   6 C        2.919    -0.015    28.389     8.737
    22   6 C        2.928    -0.022    28.543     8.762
    23   7 N        2.764    -0.125    23.722     7.234
    24   6 C        2.763     0.272    22.409     7.752
    25   6 C        2.977    -0.017    28.438     8.747
    26   6 C        2.923    -0.028    28.692     8.784
    27   6 C        2.920    -0.023    28.589     8.768
    28   6 C        2.921    -0.021    28.542     8.761
    29   6 C        2.920    -0.020    28.505     8.755
    30   6 C        2.924    -0.015    28.397     8.739
    31   8 O        0.859    -0.414    21.970     6.284
    32   6 C        3.773     0.095    19.047     6.219
    33   6 C        2.688     0.367    20.784     7.461
    34   8 O        1.659    -0.376    20.385     6.095
    35   8 O        0.856    -0.384    21.370     6.198
    36   7 N        2.763    -0.114    23.477     7.196
    37   6 C        2.776     0.272    22.406     7.753
    38   6 C        2.976    -0.014    28.362     8.736
    39   6 C        2.925    -0.021    28.539     8.761
    40   6 C        2.919    -0.027    28.685     8.783
    41   6 C        2.920    -0.026    28.645     8.777
    42   6 C        2.920    -0.026    28.663     8.780
    43   6 C        2.922    -0.030    28.753     8.793
    44   8 O        0.862    -0.418    22.047     6.295
    45   1 H        0.926     0.070     2.087     2.259
    46   1 H        0.926     0.062     2.178     2.308
    47   1 H        0.926     0.061     2.182     2.310
    48   1 H        0.926     0.069     2.098     2.265
    49   1 H        0.924     0.061     2.184     2.311
    50   1 H        0.924     0.066     2.132     2.283
    51   1 H        0.926     0.069     2.096     2.264
    52   1 H        0.926     0.059     2.206     2.323
    53   1 H        0.926     0.057     2.229     2.334
    54   1 H        0.926     0.049     2.332     2.388
    55   1 H        0.926     0.027     2.624     2.533
    56   1 H        0.926     0.041     2.436     2.441
    57   1 H        0.926     0.043     2.414     2.429
    58   1 H        0.926     0.045     2.387     2.416
    59   1 H        0.926     0.045     2.388     2.416
    60   1 H        0.923     0.073     2.049     2.238
    61   1 H        0.804     0.341     0.609     1.225
    62   1 H        0.926     0.050     2.320     2.382
    63   1 H        0.926     0.044     2.395     2.420
    64   1 H        0.926     0.044     2.397     2.421
    65   1 H        0.926     0.048     2.348     2.396
    66   1 H        0.926     0.044     2.395     2.420

Wiberg/Mayer (AO) data.
largest (>0.10) Wiberg bond orders for each atom

     #   Z sym  total        # sym  WBO       # sym  WBO       # sym  WBO
 ---------------------------------------------------------------------------
     1   6 C    3.969 --     6 C    1.409    10 C    1.387     2 C    0.951
                             8 C    0.104
     2   6 C    3.821 --     3 F    0.959     1 C    0.951     5 F    0.936
                             4 F    0.936
     3   9 F    1.081 --     2 C    0.959
     4   9 F    1.066 --     2 C    0.936
     5   9 F    1.064 --     2 C    0.936
     6   6 C    3.987 --     7 C    1.445     1 C    1.409    45 H    0.965
                             9 C    0.109
     7   6 C    3.988 --     6 C    1.445     8 C    1.431    46 H    0.968
                            10 C    0.108
     8   6 C    3.989 --     9 C    1.449     7 C    1.431    47 H    0.968
                             1 C    0.104
     9   6 C    3.988 --     8 C    1.449    10 C    1.406    48 H    0.960
                             6 C    0.109
    10   6 C    3.986 --     9 C    1.406     1 C    1.387    11 C    0.998
                             7 C    0.108
    11   6 C    3.969 --    10 C    0.998    36 N    0.963    49 H    0.952
                            12 C    0.942
    12   6 C    3.968 --    13 C    0.996    23 N    0.960    50 H    0.951
                            11 C    0.942
    13   6 C    3.986 --    22 C    1.407    14 C    1.386    12 C    0.996
                            20 C    0.108
    14   6 C    3.970 --    19 C    1.412    13 C    1.386    15 C    0.952
                            21 C    0.105
    15   6 C    3.820 --    18 F    0.957    14 C    0.952    16 F    0.949
                            17 F    0.924
    16   9 F    1.080 --    15 C    0.949
    17   9 F    1.050 --    15 C    0.924
    18   9 F    1.079 --    15 C    0.957
    19   6 C    3.987 --    20 C    1.444    14 C    1.412    51 H    0.965
                            22 C    0.109
    20   6 C    3.988 --    19 C    1.444    21 C    1.432    52 H    0.969
                            13 C    0.108
    21   6 C    3.990 --    22 C    1.450    20 C    1.432    53 H    0.969
                            14 C    0.105
    22   6 C    3.990 --    21 C    1.450    13 C    1.407    54 H    0.966
                            19 C    0.109
    23   7 N    3.435 --    24 C    1.178    32 C    0.983    12 C    0.960
                            31 O    0.182
    24   6 C    3.941 --    31 O    1.704    23 N    1.178    25 C    0.973
    25   6 C    3.986 --    30 C    1.405    26 C    1.397    24 C    0.973
                            28 C    0.109
    26   6 C    3.991 --    27 C    1.448    25 C    1.397    55 H    0.969
                            29 C    0.111
    27   6 C    3.992 --    26 C    1.448    28 C    1.435    56 H    0.970
                            30 C    0.110
    28   6 C    3.991 --    29 C    1.441    27 C    1.435    57 H    0.971
                            25 C    0.109
    29   6 C    3.991 --    30 C    1.443    28 C    1.441    58 H    0.970
                            26 C    0.111
    30   6 C    3.990 --    29 C    1.443    25 C    1.405    59 H    0.969
                            27 C    0.110
    31   8 O    2.033 --    24 C    1.704    23 N    0.182
    32   6 C    3.962 --    23 N    0.983    36 N    0.978    60 H    0.944
                            33 C    0.906
    33   6 C    3.925 --    35 O    1.777    34 O    1.125    32 C    0.906
    34   8 O    2.191 --    33 C    1.125    61 H    0.859    35 O    0.168
    35   8 O    2.067 --    33 C    1.777    34 O    0.168
    36   7 N    3.457 --    37 C    1.211    32 C    0.978    11 C    0.963
                            44 O    0.181
    37   6 C    3.941 --    44 O    1.650    36 N    1.211    38 C    0.987
    38   6 C    3.987 --    43 C    1.397    39 C    1.394    37 C    0.987
                            41 C    0.107
    39   6 C    3.989 --    40 C    1.450    38 C    1.394    62 H    0.968
                            42 C    0.110
    40   6 C    3.991 --    39 C    1.450    41 C    1.434    63 H    0.970
                            43 C    0.109
    41   6 C    3.991 --    42 C    1.438    40 C    1.434    64 H    0.971
                            38 C    0.107
    42   6 C    3.991 --    43 C    1.445    41 C    1.438    65 H    0.969
                            39 C    0.110
    43   6 C    3.990 --    42 C    1.445    38 C    1.397    66 H    0.969
                            40 C    0.109
    44   8 O    2.060 --    37 C    1.650    36 N    0.181
    45   1 H    0.995 --     6 C    0.965
    46   1 H    0.995 --     7 C    0.968
    47   1 H    0.995 --     8 C    0.968
    48   1 H    0.995 --     9 C    0.960
    49   1 H    0.996 --    11 C    0.952
    50   1 H    0.995 --    12 C    0.951
    51   1 H    0.995 --    19 C    0.965
    52   1 H    0.996 --    20 C    0.969
    53   1 H    0.996 --    21 C    0.969
    54   1 H    0.997 --    22 C    0.966
    55   1 H    0.999 --    26 C    0.969
    56   1 H    0.998 --    27 C    0.970
    57   1 H    0.998 --    28 C    0.971
    58   1 H    0.998 --    29 C    0.970
    59   1 H    0.998 --    30 C    0.969
    60   1 H    0.993 --    32 C    0.944
    61   1 H    0.883 --    34 O    0.859
    62   1 H    0.997 --    39 C    0.968
    63   1 H    0.998 --    40 C    0.970
    64   1 H    0.998 --    41 C    0.971
    65   1 H    0.997 --    42 C    0.969
    66   1 H    0.998 --    43 C    0.969
 ---------------------------------------------------------------------------

molecular dipole:
                 x           y           z       tot (Debye)
 q only:       -1.098       0.149       0.721
   full:       -1.216       0.246       0.670       3.584

           -------------------------------------------------
          | TOTAL ENERGY             -130.317089951135 Eh   |
          | GRADIENT NORM               0.000991952667 Eh/Î± |
          | HOMO-LUMO GAP               3.279114604093 eV   |
           -------------------------------------------------

 * finished run on 2022/03/17 at 01:52:35.085
