   * xtb version 6.3.3 (4ae9cef) compiled by 'conda@95abc7406d43' on 2020-10-14
          program call               : xtb acid_305.xyz --opt --chrg 0 --uhf 0 --gfn 2
          number of atoms            :                    86
          number of electrons        :                   250
          charge                     :                     0
          spin                       :                   0.0

   ID    Z sym.   atoms
    1    6 C      1-22, 24-32, 35, 36, 40-48
    2    7 N      23, 39
    3   16 S      33, 49
    4    8 O      34, 37, 38, 50
    5    1 H      51-86

          :  Hamiltonian                  GFN2-xTB          :
 * total energy  :  -136.9554270 Eh     change       -0.4288125E-08 Eh
 * total energy  :  -136.9717620 Eh     change       -0.1633502E-01 Eh
 * total energy  :  -136.9769194 Eh     change       -0.5157370E-02 Eh
 * total energy  :  -136.9788832 Eh     change       -0.1963821E-02 Eh
 * total energy  :  -136.9802560 Eh     change       -0.1372817E-02 Eh
 * total energy  :  -136.9809064 Eh     change       -0.6503041E-03 Eh
 * total energy  :  -136.9813873 Eh     change       -0.4809634E-03 Eh
 * total energy  :  -136.9817978 Eh     change       -0.4104879E-03 Eh
 * total energy  :  -136.9820696 Eh     change       -0.2717624E-03 Eh
 * total energy  :  -136.9824277 Eh     change       -0.3581635E-03 Eh
 * total energy  :  -136.9898771 Eh     change        0.1627206E-05 Eh
 * total energy  :  -136.9898874 Eh     change       -0.1030342E-04 Eh
 * total energy  :  -136.9898901 Eh     change       -0.2673429E-05 Eh
 * total energy  :  -136.9899006 Eh     change       -0.1045656E-04 Eh
 * total energy  :  -136.9898944 Eh     change        0.6123275E-05 Eh
 * total energy  :  -136.9899034 Eh     change       -0.8990029E-05 Eh
 * total energy  :  -136.9899040 Eh     change       -0.6128954E-06 Eh
 * total energy  :  -136.9899092 Eh     change       -0.5173959E-05 Eh
 * total energy  :  -136.9899104 Eh     change       -0.1187442E-05 Eh
   *** GEOMETRY OPTIMIZATION CONVERGED AFTER 73 ITERATIONS ***

 final structure:
================
86
 xtb: 6.3.3 (4ae9cef)
C        -2.15300288714077    2.63705892009727   -2.52940581159429
C        -3.05445598695811    3.59953835846439   -2.87309411115373
C        -3.31450576075237    4.68563632545642   -2.01144638303199
C        -4.23501897524929    5.70254029284309   -2.33519800735982
C        -4.45274372240964    6.74452948597432   -1.47736105580092
C        -3.75883544887140    6.81595368643216   -0.25956063606064
C        -2.86065767984804    5.84377499069410    0.08193772024333
C        -2.61604628531766    4.75461902953745   -0.77960499740504
C        -1.69990810671523    3.73574654551021   -0.44613130765791
C        -1.47300901452316    2.68625687975928   -1.29267284123861
C        -0.47376954563806    1.59735824711216   -1.01798468540739
C         0.28426319418086    1.59761237476123    0.32369962272409
C         1.46791662121972    2.52639397128455    0.33416122521350
C         1.50453510511820    3.61994830955522    1.15685115837984
C         2.60792337070982    4.49528151831642    1.15973024246570
C         2.66378765563056    5.62580437933557    2.00130777904014
C         3.75350468372462    6.45029320493779    1.99111107628425
C         4.83670172236413    6.18391732491818    1.13886241163344
C         4.81190814471135    5.09688552679029    0.31071260990138
C         3.70269788067102    4.22671658452503    0.29841530758689
C         3.64787591766794    3.08623502101228   -0.52879312530568
C         2.56123094456474    2.26104456212458   -0.51440535664127
N         0.68440147913372    0.19160029434272    0.43495899862263
C         1.55239850626605   -0.20456080745145    1.40519818172077
C         1.98318794655908   -1.60985013266076    1.46344460468365
C         3.20920508248189   -1.96869978384553    1.94668152672824
C         3.42132196028433   -3.36379216150315    1.99261948136283
C         4.67990005508134   -4.03662660830320    2.44240011669483
C         4.41570623261066   -5.50755801255104    2.76227432141760
C         3.63107557237490   -6.16508929362897    1.62932679158817
C         2.23165398492343   -5.55493222892176    1.52666314177697
C         2.33910245624600   -4.07069645098186    1.56392929912123
S         1.04688368760925   -3.02522696700370    1.07897110955251
O         1.99392789001064    0.59975393169396    2.20568481005032
C         0.04885759879146   -0.59795931892814   -0.59834348837430
C         1.02810660432065   -0.94136131234034   -1.75159554507881
O         0.47435459375619   -0.85269353213000   -2.96167846252862
O         2.16047944351884   -1.27460046751833   -1.57462610981104
N        -1.03117178639805    0.23035987234627   -1.08851977330655
C        -2.33987449061864   -0.01601148963559   -0.66036812781265
C        -2.73534050850086   -1.42375051692758   -0.69105675760460
C        -2.26304109564542   -2.50374514597466   -1.39584843977522
C        -2.99179951603004   -3.68297999064275   -1.15112601971650
C        -4.01265098494916   -3.49177768798033   -0.25951244904181
C        -4.95436737859330   -4.55014450438876    0.19710868383519
C        -4.37949254997536   -5.92845029255733   -0.13637259903847
C        -3.88625438271005   -5.96167801508686   -1.58094960412663
C        -2.69569056266428   -5.02030699966549   -1.75484374621706
S        -4.11324543287333   -1.85458335362365    0.27269784188559
O        -3.11058806268402    0.86357136049390   -0.34972304306961
H        -1.95904579284246    1.81257785051331   -3.20211787939482
H        -3.57951782751477    3.54506076457716   -3.81607599725094
H        -4.76609254709873    5.64296479610145   -3.27475762086148
H        -5.15995519079724    7.52100048225065   -1.73031836340212
H        -3.94237612275961    7.64701671208047    0.40580972011955
H        -2.32526256990530    5.89504960064490    1.01920442054528
H        -1.18491951340644    3.80928532116581    0.49743466258663
H         0.28365215807407    1.64649787843015   -1.81802745234973
H        -0.39311412639437    1.83170628962343    1.15455330497040
H         0.69312359569444    3.81722414744038    1.84299721509036
H         1.82941671885755    5.82595271973026    2.65831783387968
H         3.79111311464932    7.31307308807002    2.64025514702316
H         5.69071975494295    6.84552412856227    1.14572940254549
H         5.64426400796214    4.88591198524334   -0.34576440541902
H         4.48819502827512    2.86811111161645   -1.17224718010256
H         2.55329434540786    1.37593578253649   -1.13478225006485
H         3.93450608759250   -1.23607281744434    2.25061052957921
H         5.42428113848885   -3.95907051610413    1.64354636599120
H         5.08239749288941   -3.51990739968278    3.31592503494676
H         5.36286113546158   -6.02803369123755    2.91301353965384
H         3.83969628363774   -5.58087569906042    3.68722049955909
H         4.16281137026020   -6.01062790564783    0.68841593569338
H         3.54862824043786   -7.23974498550618    1.80014210360421
H         1.73705185533356   -5.87830760791454    0.60773829506231
H         1.61539865486947   -5.89583655458601    2.36620507572335
H        -0.33361824866494   -1.54245559358575   -0.19547824134759
H        -0.42994670664080   -0.48971001405486   -2.89499765076731
H        -1.44258910740305   -2.47049836937479   -2.09100700305593
H        -5.13755292506170   -4.45609713361241    1.26958473617706
H        -5.91685479431404   -4.41838877679574   -0.30849073687168
H        -3.54489571584367   -6.14584352411740    0.53287289983172
H        -5.14492459523554   -6.68967837122590    0.01875434524366
H        -4.69652942147939   -5.65072133124473   -2.24351414368396
H        -3.59573510468384   -6.97649579676530   -1.85670215369222
H        -1.81495980325547   -5.44188837765789   -1.25983754332529
H        -2.45095903899799   -4.90399611699754   -2.81274002459897

          :  Hamiltonian                  GFN2-xTB          :
         :: total energy            -136.989910399309 Eh    ::
         :: gradient norm              0.000898057626 Eh/a0 ::
         :: HOMO-LUMO gap              2.366187548720 eV    ::
         :: SCC energy              -139.054560852224 Eh    ::
         :: -> dispersion             -0.122105573274 Eh    ::
         :: repulsion energy           2.062876346194 Eh    ::

    * Orbital Energies and Occupations

         #    Occupation            Energy/Eh            Energy/eV
      -------------------------------------------------------------
         1        2.0000           -0.7692145             -20.9314
       ...           ...                  ...                  ...
       113        2.0000           -0.4147234             -11.2852
       114        2.0000           -0.4138223             -11.2607
       115        2.0000           -0.4099124             -11.1543
       116        2.0000           -0.4074070             -11.0861
       117        2.0000           -0.4001220             -10.8879
       118        2.0000           -0.3975742             -10.8185
       119        2.0000           -0.3945440             -10.7361
       120        2.0000           -0.3942760             -10.7288
       121        2.0000           -0.3927880             -10.6883
       122        2.0000           -0.3898887             -10.6094
       123        2.0000           -0.3793990             -10.3240
       124        2.0000           -0.3776091             -10.2753
       125        2.0000           -0.3725524             -10.1377 (HOMO)
       126                         -0.2855967              -7.7715 (LUMO)
       127                         -0.2621109              -7.1324
       128                         -0.2595816              -7.0636
       129                         -0.2577567              -7.0139
       130                         -0.2550246              -6.9396
       131                         -0.2299450              -6.2571
       132                         -0.2253171              -6.1312
       133                         -0.2185536              -5.9471
       134                         -0.2107119              -5.7338
       135                         -0.2086537              -5.6778
       136                         -0.1933137              -5.2603
       ...                                ...                  ...
       246                          0.7023270              19.1113
      -------------------------------------------------------------
                  HL-Gap            0.0869558 Eh            2.3662 eV

     #   Z          covCN         q      C6AA      Î±(0)
     1   6 C        2.922    -0.030    28.748     8.793
     2   6 C        2.917    -0.031    28.778     8.797
     3   6 C        2.988     0.016    27.657     8.627
     4   6 C        2.918    -0.033    28.834     8.806
     5   6 C        2.916    -0.029    28.731     8.790
     6   6 C        2.916    -0.029    28.718     8.788
     7   6 C        2.919    -0.033    28.817     8.803
     8   6 C        2.988     0.019    27.586     8.616
     9   6 C        2.922    -0.036    28.908     8.817
    10   6 C        2.965     0.015    27.674     8.629
    11   6 C        3.867     0.050    19.695     6.311
    12   6 C        3.824     0.050    19.722     6.320
    13   6 C        2.968     0.012    27.753     8.641
    14   6 C        2.923    -0.032    28.791     8.799
    15   6 C        2.987     0.017    27.614     8.620
    16   6 C        2.919    -0.033    28.818     8.803
    17   6 C        2.916    -0.029    28.735     8.790
    18   6 C        2.916    -0.030    28.744     8.792
    19   6 C        2.918    -0.034    28.839     8.806
    20   6 C        2.988     0.014    27.681     8.630
    21   6 C        2.917    -0.032    28.800     8.800
    22   6 C        2.920    -0.031    28.783     8.798
    23   7 N        2.763    -0.130    23.814     7.248
    24   6 C        2.768     0.273    22.379     7.747
    25   6 C        2.982    -0.008    28.218     8.714
    26   6 C        3.126    -0.035    28.667     8.767
    27   6 C        3.157    -0.005    27.844     8.628
    28   6 C        3.808    -0.057    21.588     6.614
    29   6 C        3.807    -0.058    21.605     6.617
    30   6 C        3.809    -0.057    21.589     6.614
    31   6 C        3.823    -0.055    21.541     6.605
    32   6 C        2.999     0.028    27.359     8.580
    33  16 S        2.329    -0.091   144.853    20.257
    34   8 O        0.861    -0.431    22.302     6.332
    35   6 C        3.798     0.077    19.308     6.257
    36   6 C        2.686     0.347    21.108     7.519
    37   8 O        1.658    -0.360    20.086     6.050
    38   8 O        0.856    -0.349    20.688     6.098
    39   7 N        2.755    -0.183    24.949     7.419
    40   6 C        2.808     0.276    22.340     7.744
    41   6 C        2.991    -0.032    28.782     8.800
    42   6 C        3.102    -0.058    29.311     8.872
    43   6 C        3.152    -0.008    27.916     8.641
    44   6 C        2.999     0.021    27.537     8.608
    45   6 C        3.824    -0.060    21.631     6.618
    46   6 C        3.808    -0.058    21.617     6.618
    47   6 C        3.807    -0.059    21.630     6.621
    48   6 C        3.808    -0.058    21.615     6.618
    49  16 S        2.345     0.022   140.163    19.926
    50   8 O        0.858    -0.397    21.622     6.234
    51   1 H        0.925     0.020     2.738     2.588
    52   1 H        0.926     0.036     2.498     2.472
    53   1 H        0.926     0.033     2.548     2.496
    54   1 H        0.926     0.032     2.561     2.503
    55   1 H        0.926     0.032     2.551     2.498
    56   1 H        0.926     0.034     2.529     2.487
    57   1 H        0.926     0.040     2.444     2.445
    58   1 H        0.923     0.044     2.401     2.423
    59   1 H        0.924     0.055     2.260     2.351
    60   1 H        0.926     0.036     2.506     2.476
    61   1 H        0.926     0.033     2.541     2.493
    62   1 H        0.926     0.031     2.572     2.508
    63   1 H        0.926     0.031     2.579     2.511
    64   1 H        0.926     0.032     2.554     2.499
    65   1 H        0.926     0.037     2.485     2.465
    66   1 H        0.926     0.028     2.608     2.525
    67   1 H        0.926     0.058     2.227     2.333
    68   1 H        0.924     0.047     2.363     2.404
    69   1 H        0.924     0.045     2.386     2.416
    70   1 H        0.924     0.035     2.520     2.483
    71   1 H        0.924     0.037     2.486     2.466
    72   1 H        0.924     0.041     2.434     2.440
    73   1 H        0.924     0.035     2.514     2.479
    74   1 H        0.924     0.045     2.386     2.416
    75   1 H        0.924     0.047     2.354     2.399
    76   1 H        0.924     0.080     1.979     2.200
    77   1 H        0.804     0.336     0.623     1.240
    78   1 H        0.926     0.036     2.503     2.474
    79   1 H        0.924     0.053     2.285     2.364
    80   1 H        0.924     0.055     2.259     2.350
    81   1 H        0.924     0.042     2.421     2.433
    82   1 H        0.924     0.039     2.457     2.451
    83   1 H        0.924     0.039     2.456     2.451
    84   1 H        0.924     0.037     2.484     2.464
    85   1 H        0.924     0.047     2.356     2.400
    86   1 H        0.924     0.045     2.380     2.412

Wiberg/Mayer (AO) data.
largest (>0.10) Wiberg bond orders for each atom

     #   Z sym  total        # sym  WBO       # sym  WBO       # sym  WBO
 ---------------------------------------------------------------------------
     1   6 C    3.991 --     2 C    1.574    10 C    1.282    51 H    0.970
     2   6 C    3.991 --     1 C    1.574     3 C    1.271    52 H    0.968
                             9 C    0.111
     3   6 C    3.990 --     4 C    1.284     2 C    1.271     8 C    1.254
     4   6 C    3.992 --     5 C    1.554     3 C    1.284    53 H    0.968
                             7 C    0.118
     5   6 C    3.990 --     4 C    1.554     6 C    1.323    54 H    0.971
     6   6 C    3.992 --     7 C    1.555     5 C    1.323    55 H    0.971
     7   6 C    3.990 --     6 C    1.555     8 C    1.281    56 H    0.968
                             4 C    0.118
     8   6 C    3.990 --     7 C    1.281     9 C    1.276     3 C    1.254
     9   6 C    3.990 --    10 C    1.534     8 C    1.276    57 H    0.960
                             2 C    0.111
    10   6 C    3.984 --     9 C    1.534     1 C    1.282    11 C    0.996
    11   6 C    3.959 --    10 C    0.996    12 C    0.962    58 H    0.945
                            39 N    0.945
    12   6 C    3.961 --    13 C    0.991    11 C    0.962    59 H    0.953
                            23 N    0.951
    13   6 C    3.985 --    14 C    1.526    22 C    1.292    12 C    0.991
    14   6 C    3.990 --    13 C    1.526    15 C    1.282    60 H    0.963
                            21 C    0.114
    15   6 C    3.990 --    14 C    1.282    16 C    1.279    20 C    1.251
    16   6 C    3.990 --    17 C    1.557    15 C    1.279    61 H    0.968
                            19 C    0.118
    17   6 C    3.992 --    16 C    1.557    18 C    1.321    62 H    0.971
    18   6 C    3.990 --    19 C    1.556    17 C    1.321    63 H    0.971
    19   6 C    3.992 --    18 C    1.556    20 C    1.282    64 H    0.968
                            16 C    0.118
    20   6 C    3.990 --    19 C    1.282    21 C    1.276    15 C    1.251
    21   6 C    3.991 --    22 C    1.565    20 C    1.276    65 H    0.968
                            14 C    0.114
    22   6 C    3.992 --    21 C    1.565    13 C    1.292    66 H    0.966
    23   7 N    3.447 --    24 C    1.193    35 C    0.978    12 C    0.951
                            34 O    0.182
    24   6 C    3.951 --    34 O    1.651    23 N    1.193    25 C    1.023
    25   6 C    3.939 --    26 C    1.566    33 S    1.121    24 C    1.023
                            32 C    0.109
    26   6 C    3.986 --    25 C    1.566    27 C    1.261    67 H    0.961
    27   6 C    3.985 --    32 C    1.561    26 C    1.261    28 C    1.007
    28   6 C    3.997 --    27 C    1.007    29 C    1.006    69 H    0.968
                            68 H    0.960
    29   6 C    3.997 --    30 C    1.009    28 C    1.006    71 H    0.978
                            70 H    0.978
    30   6 C    3.996 --    29 C    1.009    31 C    0.999    72 H    0.978
                            73 H    0.977
    31   6 C    3.996 --    32 C    1.025    30 C    0.999    74 H    0.967
                            75 H    0.957
    32   6 C    3.944 --    27 C    1.561    33 S    1.142    31 C    1.025
                            25 C    0.109
    33  16 S    2.582 --    32 C    1.142    25 C    1.121
    34   8 O    2.008 --    24 C    1.651    23 N    0.182
    35   6 C    3.966 --    39 N    0.986    23 N    0.978    76 H    0.919
                            36 C    0.906
    36   6 C    3.925 --    38 O    1.807    37 O    1.149    35 C    0.906
    37   8 O    2.222 --    36 C    1.149    77 H    0.840    38 O    0.172
    38   8 O    2.094 --    36 C    1.807    37 O    0.172
    39   7 N    3.349 --    40 C    1.094    35 C    0.986    11 C    0.945
                            50 O    0.147
    40   6 C    3.947 --    50 O    1.714    39 N    1.094    41 C    1.054
    41   6 C    3.943 --    42 C    1.510    49 S    1.142    40 C    1.054
    42   6 C    3.987 --    41 C    1.510    43 C    1.293    78 H    0.961
                            49 S    0.110
    43   6 C    3.984 --    44 C    1.520    42 C    1.293    48 C    1.009
    44   6 C    3.952 --    43 C    1.520    49 S    1.197    45 C    1.029
    45   6 C    3.995 --    44 C    1.029    46 C    1.000    79 H    0.964
                            80 H    0.954
    46   6 C    3.996 --    47 C    1.009    45 C    1.000    81 H    0.978
                            82 H    0.977
    47   6 C    3.997 --    46 C    1.009    48 C    1.006    83 H    0.978
                            84 H    0.978
    48   6 C    3.997 --    43 C    1.009    47 C    1.006    86 H    0.968
                            85 H    0.960
    49  16 S    2.646 --    44 C    1.197    41 C    1.142    42 C    0.110
    50   8 O    2.054 --    40 C    1.714    39 N    0.147
    51   1 H    0.999 --     1 C    0.970
    52   1 H    0.998 --     2 C    0.968
    53   1 H    0.998 --     4 C    0.968
    54   1 H    0.999 --     5 C    0.971
    55   1 H    0.998 --     6 C    0.971
    56   1 H    0.998 --     7 C    0.968
    57   1 H    0.998 --     9 C    0.960
    58   1 H    0.995 --    11 C    0.945
    59   1 H    0.995 --    12 C    0.953
    60   1 H    0.998 --    14 C    0.963
    61   1 H    0.998 --    16 C    0.968
    62   1 H    0.999 --    17 C    0.971
    63   1 H    0.999 --    18 C    0.971
    64   1 H    0.998 --    19 C    0.968
    65   1 H    0.998 --    21 C    0.968
    66   1 H    0.999 --    22 C    0.966
    67   1 H    0.997 --    26 C    0.961
    68   1 H    0.998 --    28 C    0.960
    69   1 H    0.998 --    28 C    0.968
    70   1 H    0.998 --    29 C    0.978
    71   1 H    0.999 --    29 C    0.978
    72   1 H    0.998 --    30 C    0.978
    73   1 H    0.998 --    30 C    0.977
    74   1 H    0.997 --    31 C    0.967
    75   1 H    0.996 --    31 C    0.957
    76   1 H    0.993 --    35 C    0.919
    77   1 H    0.887 --    37 O    0.840
    78   1 H    0.999 --    42 C    0.961
    79   1 H    0.996 --    45 C    0.964
    80   1 H    0.995 --    45 C    0.954
    81   1 H    0.998 --    46 C    0.978
    82   1 H    0.998 --    46 C    0.977
    83   1 H    0.998 --    47 C    0.978
    84   1 H    0.998 --    47 C    0.978
    85   1 H    0.997 --    48 C    0.960
    86   1 H    0.998 --    48 C    0.968
 ---------------------------------------------------------------------------

molecular dipole:
                 x           y           z       tot (Debye)
 q only:       -1.042      -1.683      -0.742
   full:       -0.855      -1.901      -0.744       5.626

           -------------------------------------------------
          | TOTAL ENERGY             -136.989910399309 Eh   |
          | GRADIENT NORM               0.000898057626 Eh/Î± |
          | HOMO-LUMO GAP               2.366187548720 eV   |
           -------------------------------------------------

 * finished run on 2022/03/16 at 23:37:32.815
