   * xtb version 6.3.3 (4ae9cef) compiled by 'conda@95abc7406d43' on 2020-10-14
          program call               : xtb alk_7.xyz --opt --chrg 0 --uhf 0 --gfn 2
          number of atoms            :                    24
          number of electrons        :                    64
          charge                     :                     0
          spin                       :                   0.0

   ID    Z sym.   atoms
    1    6 C      1, 3-11
    2    8 O      2, 12
    3    1 H      13-24

          :  Hamiltonian                  GFN2-xTB          :
 * total energy  :   -35.6188070 Eh     change       -0.3120597E-08 Eh
 * total energy  :   -35.6214867 Eh     change       -0.2679715E-02 Eh
 * total energy  :   -35.6218403 Eh     change       -0.3535509E-03 Eh
 * total energy  :   -35.6219042 Eh     change       -0.6396670E-04 Eh
 * total energy  :   -35.6218428 Eh     change        0.6145698E-04 Eh
 * total energy  :   -35.6219440 Eh     change       -0.1012106E-03 Eh
 * total energy  :   -35.6219612 Eh     change       -0.1718653E-04 Eh
 * total energy  :   -35.6219745 Eh     change       -0.1328667E-04 Eh
 * total energy  :   -35.6219823 Eh     change       -0.7816701E-05 Eh
 * total energy  :   -35.6219856 Eh     change       -0.3320136E-05 Eh
 * total energy  :   -35.6219843 Eh     change        0.1339173E-05 Eh
 * total energy  :   -35.6219898 Eh     change       -0.5507973E-05 Eh
 * total energy  :   -35.6219943 Eh     change       -0.4566740E-05 Eh
   *** GEOMETRY OPTIMIZATION CONVERGED AFTER 13 ITERATIONS ***

 final structure:
================
24
 xtb: 6.3.3 (4ae9cef)
C        -4.00999931385580    0.28372957237929    1.08649484884746
O        -3.18990659488823   -0.40892752588735    0.18182712584336
C        -1.87600687602688   -0.05627827354948    0.10196955996421
C        -1.25963105945514    0.92609198486431    0.85892431776985
C         0.08944363760637    1.20891952893518    0.69501250152554
C         0.85150784658928    0.52157102305630   -0.23029229156931
C         2.32368051687122    0.79025540964017   -0.39983652428700
C         3.11798183851556   -0.27839530275986    0.29068354705266
C         3.99460712642564   -1.06319787444474   -0.30584179717457
C         0.23785556973434   -0.47147433926824   -0.98787869388619
C        -1.10330106328038   -0.76676589783293   -0.83732065628213
O        -1.72104229083983   -1.73191141026641   -1.57279140487097
H        -4.04853355967355    1.35471494246168    0.85879113124883
H        -5.00439338592070   -0.14414036184364    0.96875259126146
H        -3.67826443284387    0.14550484741301    2.12151075815732
H        -1.82317350019940    1.48550109151234    1.58848857435270
H         0.54073854178059    1.98150609469568    1.29995064398493
H         2.58398287558743    0.81512700804021   -1.45987980898939
H         2.56799679259098    1.75989130822113    0.04145092470708
H         2.91030983152692   -0.38927903536074    1.34693953499102
H         4.53822185952639   -1.82330491676060    0.22908272774209
H         4.21510559314056   -0.97272705616524   -1.35739497320337
H         0.82186341977649   -1.02689854491709   -1.71084561923966
H        -1.07904237268812   -2.13951327216280   -2.16670401794599

          :  Hamiltonian                  GFN2-xTB          :
         :: total energy             -35.621994335379 Eh    ::
         :: gradient norm              0.000369165142 Eh/a0 ::
         :: HOMO-LUMO gap              4.015512696533 eV    ::
         :: SCC energy               -36.146248156810 Eh    ::
         :: -> dispersion             -0.019843205891 Eh    ::
         :: repulsion energy           0.524222919538 Eh    ::

    * Orbital Energies and Occupations

         #    Occupation            Energy/Eh            Energy/eV
      -------------------------------------------------------------
         1        2.0000           -0.7081260             -19.2691
       ...           ...                  ...                  ...
        20        2.0000           -0.4896438             -13.3239
        21        2.0000           -0.4866522             -13.2425
        22        2.0000           -0.4765152             -12.9666
        23        2.0000           -0.4640717             -12.6280
        24        2.0000           -0.4602208             -12.5232
        25        2.0000           -0.4501740             -12.2499
        26        2.0000           -0.4421397             -12.0312
        27        2.0000           -0.4350704             -11.8389
        28        2.0000           -0.4274800             -11.6323
        29        2.0000           -0.4238416             -11.5333
        30        2.0000           -0.4008824             -10.9086
        31        2.0000           -0.3900264             -10.6132
        32        2.0000           -0.3623953              -9.8613 (HOMO)
        33                         -0.2148280              -5.8458 (LUMO)
        34                         -0.2117236              -5.7613
        35                         -0.1957331              -5.3262
        36                         -0.0840064              -2.2859
        37                          0.0372955               1.0149
        38                          0.0691616               1.8820
        39                          0.1056279               2.8743
        40                          0.1191996               3.2436
        41                          0.1248681               3.3978
        42                          0.1267830               3.4499
        43                          0.1420800               3.8662
       ...                                ...                  ...
        60                          0.6734942              18.3267
      -------------------------------------------------------------
                  HL-Gap            0.1475674 Eh            4.0155 eV

     #   Z          covCN         q      C6AA      Î±(0)
     1   6 C        3.646     0.037    20.273     6.471
     2   8 O        1.705    -0.254    18.208     5.761
     3   6 C        2.865     0.122    25.325     8.249
     4   6 C        2.918    -0.073    29.817     8.954
     5   6 C        2.924    -0.053    29.324     8.880
     6   6 C        2.972     0.005    27.907     8.665
     7   6 C        3.812    -0.063    21.693     6.629
     8   6 C        2.890    -0.022    28.558     8.761
     9   6 C        2.837    -0.095    30.390     9.034
    10   6 C        2.924    -0.082    30.048     8.989
    11   6 C        2.844     0.124    25.271     8.239
    12   8 O        1.659    -0.381    20.489     6.111
    13   1 H        0.924     0.038     2.470     2.458
    14   1 H        0.925     0.063     2.170     2.303
    15   1 H        0.924     0.038     2.471     2.458
    16   1 H        0.926     0.039     2.467     2.456
    17   1 H        0.926     0.034     2.533     2.489
    18   1 H        0.924     0.044     2.392     2.418
    19   1 H        0.924     0.046     2.371     2.408
    20   1 H        0.925     0.032     2.554     2.499
    21   1 H        0.926     0.034     2.527     2.486
    22   1 H        0.926     0.035     2.519     2.482
    23   1 H        0.925     0.032     2.560     2.502
    24   1 H        0.805     0.300     0.721     1.333

Wiberg/Mayer (AO) data.
largest (>0.10) Wiberg bond orders for each atom

     #   Z sym  total        # sym  WBO       # sym  WBO       # sym  WBO
 ---------------------------------------------------------------------------
     1   6 C    3.948 --     2 O    0.989    14 H    0.979    13 H    0.976
                            15 H    0.976
     2   8 O    2.237 --     3 C    1.061     1 C    0.989
     3   6 C    3.936 --     4 C    1.404    11 C    1.272     2 O    1.061
     4   6 C    3.986 --     5 C    1.410     3 C    1.404    16 H    0.966
     5   6 C    3.989 --     6 C    1.433     4 C    1.410    17 H    0.969
     6   6 C    3.988 --     5 C    1.433    10 C    1.380     7 C    0.996
     7   6 C    3.997 --     8 C    1.010     6 C    0.996    18 H    0.968
                            19 H    0.959
     8   6 C    3.989 --     9 C    1.977     7 C    1.010    20 H    0.967
     9   6 C    3.989 --     8 C    1.977    21 H    0.976    22 H    0.975
    10   6 C    3.983 --    11 C    1.418     6 C    1.380    23 H    0.964
    11   6 C    3.941 --    10 C    1.418     3 C    1.272    12 O    1.072
    12   8 O    2.125 --    11 C    1.072    24 H    0.889
    13   1 H    0.998 --     1 C    0.976
    14   1 H    0.996 --     1 C    0.979
    15   1 H    0.998 --     1 C    0.976
    16   1 H    0.998 --     4 C    0.966
    17   1 H    0.999 --     5 C    0.969
    18   1 H    0.997 --     7 C    0.968
    19   1 H    0.998 --     7 C    0.959
    20   1 H    0.999 --     8 C    0.967
    21   1 H    0.998 --     9 C    0.976
    22   1 H    0.999 --     9 C    0.975
    23   1 H    0.998 --    10 C    0.964
    24   1 H    0.910 --    12 O    0.889
 ---------------------------------------------------------------------------

molecular dipole:
                 x           y           z       tot (Debye)
 q only:        0.181       0.277       0.089
   full:        0.329       0.332       0.109       1.221

           -------------------------------------------------
          | TOTAL ENERGY              -35.621994335379 Eh   |
          | GRADIENT NORM               0.000369165142 Eh/Î± |
          | HOMO-LUMO GAP               4.015512696533 eV   |
           -------------------------------------------------

 * finished run on 2022/03/17 at 02:19:48.568
