   * xtb version 6.3.3 (4ae9cef) compiled by 'conda@95abc7406d43' on 2020-10-14
          program call               : xtb acid_336.xyz --opt --chrg 0 --uhf 0 --gfn 2
          number of atoms            :                    92
          number of electrons        :                   270
          charge                     :                     0
          spin                       :                   0.0

   ID    Z sym.   atoms
    1    6 C      1-22, 24-36, 38, 39, 43-55
    2    7 N      23, 42
    3    8 O      37, 40, 41, 56
    4    1 H      57-92

          :  Hamiltonian                  GFN2-xTB          :
 * total energy  :  -147.5400812 Eh     change       -0.3672369E-08 Eh
 * total energy  :  -147.5575490 Eh     change       -0.1746777E-01 Eh
 * total energy  :  -147.5630077 Eh     change       -0.5458762E-02 Eh
 * total energy  :  -147.5644526 Eh     change       -0.1444850E-02 Eh
 * total energy  :  -147.5653940 Eh     change       -0.9414368E-03 Eh
 * total energy  :  -147.5659024 Eh     change       -0.5083629E-03 Eh
 * total energy  :  -147.5663960 Eh     change       -0.4936552E-03 Eh
 * total energy  :  -147.5668703 Eh     change       -0.4742960E-03 Eh
 * total energy  :  -147.5672836 Eh     change       -0.4132638E-03 Eh
 * total energy  :  -147.5676454 Eh     change       -0.3617978E-03 Eh
 * total energy  :  -147.5849056 Eh     change       -0.1192685E-04 Eh
 * total energy  :  -147.5849152 Eh     change       -0.9659143E-05 Eh
 * total energy  :  -147.5849249 Eh     change       -0.9687699E-05 Eh
 * total energy  :  -147.5849375 Eh     change       -0.1261501E-04 Eh
 * total energy  :  -147.5849519 Eh     change       -0.1438953E-04 Eh
 * total energy  :  -147.5849627 Eh     change       -0.1081547E-04 Eh
 * total energy  :  -147.5849694 Eh     change       -0.6644923E-05 Eh
 * total energy  :  -147.5849746 Eh     change       -0.5180824E-05 Eh
 * total energy  :  -147.5849787 Eh     change       -0.4122269E-05 Eh
   *** GEOMETRY OPTIMIZATION CONVERGED AFTER 163 ITERATIONS ***

 final structure:
================
92
 xtb: 6.3.3 (4ae9cef)
C         2.23132446093126    4.25782991057611   -0.15317754911420
C         3.51594521265345    4.68994001998855   -0.31199224103014
C         4.60538286469807    3.89619925305209    0.10481535404279
C         5.94480384649928    4.30352182252302   -0.05988990032552
C         6.97290587885847    3.51091281676560    0.36879768892441
C         6.70830328196243    2.27676289545639    0.98275404742297
C         5.42010052242376    1.85410456469919    1.15642002018772
C         4.33795681973955    2.64806027519094    0.72311257434809
C         2.99974604343808    2.23364679291487    0.88077514483327
C         1.96070389819315    3.00392818312289    0.43166104035310
C         0.52677688515192    2.55931087960925    0.56650350293488
C        -0.27004485138727    2.67666262193825   -0.77464250760190
C        -1.49119045049097    3.54386699013514   -0.62778017950601
C        -2.46106378786356    3.22731283874793    0.28883884670388
C        -3.60165747416098    4.03580328543048    0.45017128739418
C        -4.61302301400797    3.72572093840219    1.38352086312826
C        -5.70945336551435    4.52994359457517    1.51683460514655
C        -5.84603641633754    5.68044433646380    0.72365226000270
C        -4.88256101206587    6.00829880137765   -0.18840986492261
C        -3.73850782871311    5.19988566296832   -0.35011643058445
C        -2.72538474879782    5.50512689597712   -1.28163265786425
C        -1.63175511419434    4.69917438613748   -1.41672547073390
N        -0.61635829267389    1.28767745907086   -1.07887515976004
C        -1.72154037746303    0.91760114367532   -1.78172664418885
C        -2.11792054561166   -0.51800268093187   -1.61666548515406
C        -3.38376369762576   -0.75073685538623   -1.08973397328680
C        -3.80551784388614   -2.04808573900817   -0.86358444634762
C        -2.97386218248279   -3.11186903812230   -1.15750079587277
C        -1.70743440414459   -2.89990969342728   -1.70035231585604
C        -0.82283005765545   -4.03506027150892   -2.00335144531579
C        -0.81996401684805   -5.16630530470739   -1.18911196700728
C         0.00676442113984   -6.23713512642977   -1.46849268647914
C         0.85124826119010   -6.19651433739268   -2.56466383848979
C         0.85866957285238   -5.07868928922456   -3.38154120438149
C         0.02915842907557   -4.00775192380938   -3.10545398594267
C        -1.29488707118488   -1.58951538644597   -1.93523135913251
O        -2.38087630545789    1.70617276113250   -2.42224425725584
C         0.24748405569443    0.43303008673588   -0.31153539597943
C         1.60257419463889    0.28023148683898   -1.02812356555676
O         2.39564066512127   -0.58135033701447   -0.39062424489694
O         1.90616364678693    0.83280478264614   -2.04492705967202
N         0.41547674201054    1.15146697283382    0.92736678274746
C        -0.19405891776203    0.78491457759714    2.10353535041496
C        -0.61360592726731   -0.64589800456050    2.16585350597193
C         0.26873414433760   -1.67902861403983    1.87451588394647
C        -0.16287072413667   -3.00182165238060    1.86581222578020
C         0.77144098955388   -4.08078996478204    1.51262121567115
C         0.75068551278883   -5.29609168027944    2.19188674199277
C         1.63104364948589   -6.30614109286087    1.85155979812405
C         2.54095573845871   -6.12044275162593    0.82455377787170
C         2.56773727766557   -4.91677459800673    0.14091089599835
C         1.69225330513335   -3.90385722377410    0.48232246879011
C        -1.49535692393460   -3.27214868975994    2.17153673944656
C        -2.36891480395194   -2.24818356284604    2.48688582706368
C        -1.93462531214837   -0.93464549443412    2.48858510778601
O        -0.37005121538231    1.57685446434060    3.00234516884874
H         1.40482954115697    4.88003834261466   -0.46333009020223
H         3.71677690457095    5.65200110865831   -0.76082351930188
H         6.14384920912007    5.25507357775068   -0.53172837919777
H         7.99710236644273    3.82874412568955    0.23997366311057
H         7.53282009129195    1.66430884119793    1.31756855083298
H         5.21061320027299    0.90555618670655    1.63133051367794
H         2.80743986546063    1.29262053220971    1.37590017037092
H         0.04410142911369    3.14612435526136    1.35804594428947
H         0.37719668959977    3.06148789169443   -1.57086995746794
H        -2.36795406594505    2.34035368085593    0.90214066198525
H        -4.50176793136312    2.84090326783271    1.99442091360264
H        -6.48029367688198    4.28752684663732    2.23399277668885
H        -6.72033386311732    6.30387289981975    0.84226839588262
H        -4.98321173544534    6.89285921380095   -0.80129337753343
H        -2.83265762281154    6.38847756112438   -1.89472370443613
H        -0.86776029162984    4.93294564421101   -2.14391610852907
H        -4.02268286533676    0.08992234676395   -0.86528712592587
H        -4.78960426964618   -2.23032780395701   -0.45831558584552
H        -3.32005386869227   -4.12104920226887   -0.99318989596148
H        -1.45680978955401   -5.19902092025053   -0.31831946687231
H        -0.00335978862631   -7.10396345120868   -0.82456029099621
H         1.49851166563010   -7.03289016772372   -2.78247581421690
H         1.50978475506013   -5.04304503761431   -4.24298290565785
H         0.02375066172489   -3.15290794726805   -3.76575441860815
H        -0.32309443708037   -1.40210691432439   -2.37052261839385
H        -0.17667537773991   -0.56120350357204   -0.14843630879188
H         3.26163321575208   -0.64171004642458   -0.82796640246590
H         1.30400667017913   -1.45443066452718    1.66658722026663
H         0.05576649987185   -5.44011578965177    3.00645903232025
H         1.60896225865139   -7.24159923222732    2.39156183067231
H         3.22643270579367   -6.91105121037401    0.55792681497775
H         3.27068585503363   -4.76966969841247   -0.66586805058300
H         1.70599969930220   -2.97406419759054   -0.06594700871134
H        -1.85036646648019   -4.29188842399033    2.15203960912008
H        -3.39736925979902   -2.47318988709925    2.72616805539706
H        -2.61112861125927   -0.12904151260946    2.72988778302077

          :  Hamiltonian                  GFN2-xTB          :
         :: total energy            -147.584978693935 Eh    ::
         :: gradient norm              0.000302876477 Eh/a0 ::
         :: HOMO-LUMO gap              2.840918119234 eV    ::
         :: SCC energy              -150.119111529145 Eh    ::
         :: -> dispersion             -0.144878827283 Eh    ::
         :: repulsion energy           2.528350312204 Eh    ::

    * Orbital Energies and Occupations

         #    Occupation            Energy/Eh            Energy/eV
      -------------------------------------------------------------
         1        2.0000           -0.7774064             -21.1543
       ...           ...                  ...                  ...
       123        2.0000           -0.4160945             -11.3225
       124        2.0000           -0.4152268             -11.2989
       125        2.0000           -0.4111278             -11.1874
       126        2.0000           -0.4108050             -11.1786
       127        2.0000           -0.4054943             -11.0341
       128        2.0000           -0.4038444             -10.9892
       129        2.0000           -0.4019219             -10.9369
       130        2.0000           -0.4000778             -10.8867
       131        2.0000           -0.3962598             -10.7828
       132        2.0000           -0.3949558             -10.7473
       133        2.0000           -0.3878844             -10.5549
       134        2.0000           -0.3846019             -10.4656
       135        2.0000           -0.3736414             -10.1673 (HOMO)
       136                         -0.2692396              -7.3264 (LUMO)
       137                         -0.2653654              -7.2210
       138                         -0.2627711              -7.1504
       139                         -0.2599049              -7.0724
       140                         -0.2568909              -6.9904
       141                         -0.2555426              -6.9537
       142                         -0.2476333              -6.7384
       143                         -0.2353043              -6.4030
       144                         -0.2339040              -6.3649
       145                         -0.2291918              -6.2366
       146                         -0.2260385              -6.1508
       ...                                ...                  ...
       260                          0.7017409              19.0953
      -------------------------------------------------------------
                  HL-Gap            0.1044018 Eh            2.8409 eV

     #   Z          covCN         q      C6AA      Î±(0)
     1   6 C        2.920    -0.036    28.898     8.815
     2   6 C        2.917    -0.032    28.795     8.800
     3   6 C        2.987     0.014    27.701     8.634
     4   6 C        2.918    -0.033    28.824     8.804
     5   6 C        2.916    -0.030    28.738     8.791
     6   6 C        2.916    -0.029    28.736     8.790
     7   6 C        2.919    -0.037    28.916     8.818
     8   6 C        2.987     0.014    27.699     8.633
     9   6 C        2.923    -0.043    29.079     8.843
    10   6 C        2.967     0.002    27.984     8.677
    11   6 C        3.848     0.036    19.943     6.352
    12   6 C        3.830     0.041    19.866     6.342
    13   6 C        2.969     0.013    27.731     8.638
    14   6 C        2.923    -0.033    28.824     8.804
    15   6 C        2.987     0.017    27.622     8.621
    16   6 C        2.918    -0.033    28.814     8.803
    17   6 C        2.916    -0.029    28.731     8.790
    18   6 C        2.916    -0.030    28.740     8.791
    19   6 C        2.918    -0.033    28.830     8.805
    20   6 C        2.988     0.015    27.663     8.628
    21   6 C        2.918    -0.031    28.775     8.796
    22   6 C        2.919    -0.028    28.708     8.786
    23   7 N        2.767    -0.122    23.655     7.223
    24   6 C        2.760     0.274    22.376     7.746
    25   6 C        2.973    -0.020    28.507     8.758
    26   6 C        2.927    -0.024    28.594     8.769
    27   6 C        2.917    -0.027    28.681     8.782
    28   6 C        2.926    -0.033    28.813     8.803
    29   6 C        2.975     0.012    27.752     8.641
    30   6 C        2.976     0.009    27.823     8.652
    31   6 C        2.926    -0.032    28.804     8.801
    32   6 C        2.918    -0.027    28.687     8.783
    33   6 C        2.920    -0.029    28.729     8.790
    34   6 C        2.919    -0.029    28.727     8.789
    35   6 C        2.925    -0.034    28.838     8.807
    36   6 C        2.925    -0.039    28.968     8.826
    37   8 O        0.859    -0.413    21.937     6.280
    38   6 C        3.801     0.087    19.140     6.229
    39   6 C        2.690     0.354    20.986     7.497
    40   8 O        1.659    -0.367    20.218     6.070
    41   8 O        0.856    -0.377    21.218     6.176
    42   7 N        2.764    -0.128    23.784     7.243
    43   6 C        2.764     0.274    22.371     7.746
    44   6 C        2.974    -0.020    28.502     8.757
    45   6 C        2.928    -0.040    29.004     8.832
    46   6 C        2.976     0.013    27.720     8.636
    47   6 C        2.978     0.010    27.778     8.645
    48   6 C        2.925    -0.032    28.801     8.801
    49   6 C        2.919    -0.028    28.710     8.787
    50   6 C        2.920    -0.029    28.716     8.788
    51   6 C        2.919    -0.028    28.693     8.784
    52   6 C        2.926    -0.034    28.840     8.807
    53   6 C        2.925    -0.031    28.765     8.795
    54   6 C        2.917    -0.027    28.687     8.783
    55   6 C        2.924    -0.024    28.601     8.770
    56   8 O        0.859    -0.408    21.848     6.267
    57   1 H        0.926     0.036     2.497     2.471
    58   1 H        0.926     0.039     2.456     2.451
    59   1 H        0.926     0.035     2.519     2.482
    60   1 H        0.926     0.033     2.548     2.496
    61   1 H        0.926     0.032     2.564     2.504
    62   1 H        0.925     0.030     2.589     2.516
    63   1 H        0.926     0.035     2.518     2.482
    64   1 H        0.924     0.082     1.954     2.186
    65   1 H        0.924     0.064     2.155     2.296
    66   1 H        0.925     0.024     2.679     2.560
    67   1 H        0.926     0.030     2.580     2.512
    68   1 H        0.926     0.031     2.579     2.511
    69   1 H        0.926     0.031     2.578     2.511
    70   1 H        0.926     0.033     2.548     2.496
    71   1 H        0.926     0.038     2.477     2.461
    72   1 H        0.926     0.035     2.511     2.478
    73   1 H        0.926     0.048     2.343     2.394
    74   1 H        0.926     0.041     2.435     2.440
    75   1 H        0.926     0.040     2.446     2.446
    76   1 H        0.926     0.030     2.583     2.513
    77   1 H        0.926     0.030     2.579     2.511
    78   1 H        0.926     0.032     2.552     2.498
    79   1 H        0.926     0.033     2.541     2.493
    80   1 H        0.926     0.035     2.519     2.482
    81   1 H        0.926     0.029     2.605     2.524
    82   1 H        0.924     0.075     2.027     2.227
    83   1 H        0.804     0.343     0.604     1.221
    84   1 H        0.926     0.047     2.362     2.403
    85   1 H        0.926     0.034     2.526     2.485
    86   1 H        0.926     0.034     2.537     2.491
    87   1 H        0.926     0.033     2.544     2.494
    88   1 H        0.926     0.029     2.598     2.521
    89   1 H        0.926     0.031     2.578     2.511
    90   1 H        0.926     0.038     2.473     2.459
    91   1 H        0.926     0.041     2.433     2.439
    92   1 H        0.926     0.046     2.375     2.410

Wiberg/Mayer (AO) data.
largest (>0.10) Wiberg bond orders for each atom

     #   Z sym  total        # sym  WBO       # sym  WBO       # sym  WBO
 ---------------------------------------------------------------------------
     1   6 C    3.991 --     2 C    1.568    10 C    1.287    57 H    0.967
     2   6 C    3.991 --     1 C    1.568     3 C    1.273    58 H    0.968
                             9 C    0.113
     3   6 C    3.990 --     4 C    1.283     2 C    1.273     8 C    1.252
     4   6 C    3.992 --     5 C    1.555     3 C    1.283    59 H    0.968
                             7 C    0.118
     5   6 C    3.990 --     4 C    1.555     6 C    1.322    60 H    0.971
     6   6 C    3.992 --     7 C    1.556     5 C    1.322    61 H    0.971
     7   6 C    3.990 --     6 C    1.556     8 C    1.280    62 H    0.968
                             4 C    0.118
     8   6 C    3.990 --     7 C    1.280     9 C    1.278     3 C    1.252
     9   6 C    3.990 --    10 C    1.529     8 C    1.278    63 H    0.964
                             2 C    0.113
    10   6 C    3.985 --     9 C    1.529     1 C    1.287    11 C    0.993
    11   6 C    3.958 --    10 C    0.993    42 N    0.966    12 C    0.944
                            64 H    0.941
    12   6 C    3.958 --    13 C    0.995    65 H    0.954    23 N    0.952
                            11 C    0.944
    13   6 C    3.985 --    14 C    1.519    22 C    1.299    12 C    0.995
    14   6 C    3.991 --    13 C    1.519    15 C    1.287    66 H    0.966
                            21 C    0.116
    15   6 C    3.990 --    14 C    1.287    16 C    1.277    20 C    1.249
    16   6 C    3.991 --    17 C    1.559    15 C    1.277    67 H    0.968
                            19 C    0.118
    17   6 C    3.992 --    16 C    1.559    18 C    1.319    68 H    0.971
    18   6 C    3.990 --    19 C    1.557    17 C    1.319    69 H    0.971
    19   6 C    3.992 --    18 C    1.557    20 C    1.281    70 H    0.968
                            16 C    0.118
    20   6 C    3.990 --    19 C    1.281    21 C    1.279    15 C    1.249
    21   6 C    3.991 --    22 C    1.559    20 C    1.279    71 H    0.968
                            14 C    0.116
    22   6 C    3.990 --    21 C    1.559    13 C    1.299    72 H    0.967
    23   7 N    3.460 --    24 C    1.198    38 C    0.990    12 C    0.952
                            37 O    0.189
    24   6 C    3.946 --    37 O    1.700    23 N    1.198    25 C    0.964
    25   6 C    3.987 --    36 C    1.411    26 C    1.395    24 C    0.964
                            28 C    0.104
    26   6 C    3.983 --    27 C    1.436    25 C    1.395    73 H    0.969
                            29 C    0.103
    27   6 C    3.990 --    28 C    1.451    26 C    1.436    74 H    0.969
                            36 C    0.104
    28   6 C    3.990 --    27 C    1.451    29 C    1.383    75 H    0.967
                            25 C    0.104
    29   6 C    3.988 --    36 C    1.388    28 C    1.383    30 C    1.051
                            26 C    0.103
    30   6 C    3.988 --    35 C    1.388    31 C    1.385    29 C    1.051
                            33 C    0.105
    31   6 C    3.991 --    32 C    1.453    30 C    1.385    76 H    0.966
                            34 C    0.108
    32   6 C    3.992 --    31 C    1.453    33 C    1.433    77 H    0.971
                            35 C    0.108
    33   6 C    3.986 --    34 C    1.435    32 C    1.433    78 H    0.971
                            30 C    0.105
    34   6 C    3.992 --    35 C    1.451    33 C    1.435    79 H    0.971
                            31 C    0.108
    35   6 C    3.991 --    34 C    1.451    30 C    1.388    80 H    0.968
                            32 C    0.108
    36   6 C    3.991 --    25 C    1.411    29 C    1.388    81 H    0.965
                            27 C    0.104
    37   8 O    2.030 --    24 C    1.700    23 N    0.189
    38   6 C    3.972 --    23 N    0.990    42 N    0.980    82 H    0.923
                            39 C    0.915
    39   6 C    3.920 --    41 O    1.793    40 O    1.142    38 C    0.915
    40   8 O    2.211 --    39 C    1.142    83 H    0.855    41 O    0.180
    41   8 O    2.070 --    39 C    1.793    40 O    0.180
    42   7 N    3.432 --    43 C    1.168    38 C    0.980    11 C    0.966
                            56 O    0.179
    43   6 C    3.943 --    56 O    1.713    42 N    1.168    44 C    0.977
    44   6 C    3.987 --    45 C    1.401    55 C    1.396    43 C    0.977
                            53 C    0.103
    45   6 C    3.990 --    44 C    1.401    46 C    1.393    84 H    0.964
                            54 C    0.105
    46   6 C    3.988 --    45 C    1.393    53 C    1.383    47 C    1.047
                            55 C    0.102
    47   6 C    3.989 --    48 C    1.390    52 C    1.387    46 C    1.047
                            50 C    0.105
    48   6 C    3.991 --    49 C    1.451    47 C    1.390    85 H    0.969
                            51 C    0.108
    49   6 C    3.992 --    48 C    1.451    50 C    1.435    86 H    0.971
                            52 C    0.109
    50   6 C    3.987 --    49 C    1.435    51 C    1.434    87 H    0.971
                            47 C    0.105
    51   6 C    3.992 --    52 C    1.452    50 C    1.434    88 H    0.971
                            48 C    0.108
    52   6 C    3.991 --    51 C    1.452    47 C    1.387    89 H    0.966
                            49 C    0.109
    53   6 C    3.990 --    54 C    1.450    46 C    1.383    90 H    0.967
                            44 C    0.103
    54   6 C    3.990 --    53 C    1.450    55 C    1.436    91 H    0.969
                            45 C    0.105
    55   6 C    3.985 --    54 C    1.436    44 C    1.396    92 H    0.969
                            46 C    0.102
    56   8 O    2.035 --    43 C    1.713    42 N    0.179
    57   1 H    0.998 --     1 C    0.967
    58   1 H    0.997 --     2 C    0.968
    59   1 H    0.998 --     4 C    0.968
    60   1 H    0.998 --     5 C    0.971
    61   1 H    0.999 --     6 C    0.971
    62   1 H    0.999 --     7 C    0.968
    63   1 H    0.998 --     9 C    0.964
    64   1 H    0.991 --    11 C    0.941
    65   1 H    0.995 --    12 C    0.954
    66   1 H    0.999 --    14 C    0.966
    67   1 H    0.999 --    16 C    0.968
    68   1 H    0.999 --    17 C    0.971
    69   1 H    0.999 --    18 C    0.971
    70   1 H    0.998 --    19 C    0.968
    71   1 H    0.998 --    21 C    0.968
    72   1 H    0.998 --    22 C    0.967
    73   1 H    0.997 --    26 C    0.969
    74   1 H    0.997 --    27 C    0.969
    75   1 H    0.998 --    28 C    0.967
    76   1 H    0.999 --    31 C    0.966
    77   1 H    0.999 --    32 C    0.971
    78   1 H    0.998 --    33 C    0.971
    79   1 H    0.998 --    34 C    0.971
    80   1 H    0.999 --    35 C    0.968
    81   1 H    0.999 --    36 C    0.965
    82   1 H    0.994 --    38 C    0.923
    83   1 H    0.881 --    40 O    0.855
    84   1 H    0.998 --    45 C    0.964
    85   1 H    0.999 --    48 C    0.969
    86   1 H    0.998 --    49 C    0.971
    87   1 H    0.998 --    50 C    0.971
    88   1 H    0.999 --    51 C    0.971
    89   1 H    0.999 --    52 C    0.966
    90   1 H    0.998 --    53 C    0.967
    91   1 H    0.997 --    54 C    0.969
    92   1 H    0.997 --    55 C    0.969
 ---------------------------------------------------------------------------

molecular dipole:
                 x           y           z       tot (Debye)
 q only:        1.028      -1.490       0.264
   full:        1.141      -1.868       0.225       5.594

           -------------------------------------------------
          | TOTAL ENERGY             -147.584978693935 Eh   |
          | GRADIENT NORM               0.000302876477 Eh/Î± |
          | HOMO-LUMO GAP               2.840918119234 eV   |
           -------------------------------------------------

 * finished run on 2022/03/16 at 23:59:17.470
