   * xtb version 6.3.3 (4ae9cef) compiled by 'conda@95abc7406d43' on 2020-10-14
          program call               : xtb acid_329.xyz --opt --chrg 0 --uhf 0 --gfn 2
          number of atoms            :                    60
          number of electrons        :                   230
          charge                     :                     0
          spin                       :                   0.0

   ID    Z sym.   atoms
    1    6 C      1, 2, 6-15, 19-22, 24-26, 28, 29, 32, 33, 37-39, 41, 42
    2    9 F      3-5, 16-18
    3    7 N      23, 36
    4   35 Br     27, 40
    5   16 S      30, 43
    6    8 O      31, 34, 35, 44
    7    1 H      45-60

          :  Hamiltonian                  GFN2-xTB          :
 * total energy  :  -133.3176990 Eh     change       -0.4886516E-08 Eh
 * total energy  :  -133.3339853 Eh     change       -0.1628629E-01 Eh
 * total energy  :  -133.3394533 Eh     change       -0.5468036E-02 Eh
 * total energy  :  -133.3411486 Eh     change       -0.1695260E-02 Eh
 * total energy  :  -133.3421704 Eh     change       -0.1021800E-02 Eh
 * total energy  :  -133.3428239 Eh     change       -0.6535219E-03 Eh
 * total energy  :  -133.3434283 Eh     change       -0.6044030E-03 Eh
 * total energy  :  -133.3440487 Eh     change       -0.6204104E-03 Eh
 * total energy  :  -133.3446365 Eh     change       -0.5878494E-03 Eh
 * total energy  :  -133.3451267 Eh     change       -0.4901359E-03 Eh
 * total energy  :  -133.3464907 Eh     change       -0.1295452E-04 Eh
 * total energy  :  -133.3465127 Eh     change       -0.2200885E-04 Eh
 * total energy  :  -133.3465216 Eh     change       -0.8899690E-05 Eh
 * total energy  :  -133.3465455 Eh     change       -0.2385122E-04 Eh
 * total energy  :  -133.3465587 Eh     change       -0.1323359E-04 Eh
 * total energy  :  -133.3465667 Eh     change       -0.7978613E-05 Eh
 * total energy  :  -133.3465765 Eh     change       -0.9825892E-05 Eh
 * total energy  :  -133.3465821 Eh     change       -0.5537489E-05 Eh
 * total energy  :  -133.3465868 Eh     change       -0.4748809E-05 Eh
   *** GEOMETRY OPTIMIZATION CONVERGED AFTER 30 ITERATIONS ***

 final structure:
================
60
 xtb: 6.3.3 (4ae9cef)
C        -0.57919879693887   -1.41854458611660    3.02167635754906
C        -0.22723361189700   -2.82435968461794    2.62039085117246
F        -0.64934104686803   -3.74071378429863    3.50083664666843
F        -0.80205279076380   -3.17178077245360    1.43946423312728
F         1.08497432583001   -3.03800494532135    2.45894930610063
C        -1.20719834126490   -1.21214491186932    4.24442863339321
C        -1.56664340191974    0.06367449030226    4.63559486797707
C        -1.31025730294867    1.13747585749699    3.80047538439034
C        -0.68548450388861    0.93524762690456    2.58463248263692
C        -0.29848500989037   -0.33937196135267    2.18328666517792
C         0.38824343633740   -0.49608438131384    0.84599546405116
C        -0.58743823217237   -0.19269334356652   -0.31377490981090
C        -1.08968147194342   -1.41254969180382   -1.04973612129363
C        -0.36516968593568   -2.16154294495997   -1.98258876432328
C         1.04530389190524   -1.82595293442902   -2.39945295506825
F         1.86490742361997   -1.55025349991738   -1.37560346365190
F         1.62794139544593   -2.82337185941532   -3.07515401830346
F         1.09754621277098   -0.75436363262480   -3.21964443802759
C        -0.95607362755030   -3.25511716348299   -2.60877537747295
C        -2.25171802298116   -3.62822243662132   -2.30977779074261
C        -2.97084175474155   -2.90567187025855   -1.37519733311004
C        -2.39168693041632   -1.81290054092004   -0.76129713638269
N         0.12076417736601    0.76612853373144   -1.14054422234273
C        -0.41153801727343    1.49644531195949   -2.14979335478105
C        -1.70940449515755    1.00201722986605   -2.68365516377657
C        -2.96607661726820    1.22295951401974   -2.19784836577481
Br       -3.31829851546728    2.16658101730874   -0.59826400710908
C        -3.99492422052981    0.67674718481897   -2.99957656943380
C        -3.49383382236403    0.05686166300527   -4.09573672053618
S        -1.77823335372354    0.13685232295438   -4.17525506741185
O         0.15811214483041    2.46863090905731   -2.59827863649757
C         1.36148149621051    1.22455331502863   -0.55134245938652
C         1.26131777359296    2.75084281706277   -0.32407581721796
O         2.27178901530735    3.40687237715797   -0.86766591471753
O         0.38031778982449    3.25198923641769    0.31786690358314
N         1.44629785932985    0.49548494465972    0.68665553556878
C         2.35631540503488    0.67626633251953    1.67657586280526
C         3.39261826125163    1.70565448260212    1.40212036659998
C         4.45845152918106    1.65512560872897    0.54937662011273
Br        4.80193166655559    0.20680241687341   -0.60964451264210
C         5.30419380509282    2.78583750128267    0.62494781639898
C         4.86632550367806    3.67660549276859    1.54819506110767
S         3.43684543420185    3.15054348990054    2.34753478070892
O         2.31716867047890    0.06034063581762    2.71822286852949
H        -1.40906109020865   -2.05383536282025    4.88834555830038
H        -2.04583102914717    0.21554964542811    5.58994624800456
H        -1.59350460990288    2.13642576695965    4.09334030390336
H        -0.48413900753700    1.78141679108080    1.94354387926069
H         0.83162632995560   -1.49017402574780    0.74686249554958
H        -1.46536365447903    0.30305350588660    0.12208762228886
H        -0.38964918165460   -3.81947359437644   -3.33260315287716
H        -2.69149957094315   -4.48039444468316   -2.80295056535223
H        -3.98162717807263   -3.18747348599278   -1.12534156894793
H        -2.95942173996467   -1.25071122457538   -0.03490695290540
H        -5.03787318224967    0.75749363620334   -2.75565303392728
H        -4.03286627217757   -0.44303274659071   -4.87491119305605
H         2.20212974527713    1.02585123929644   -1.23337841707417
H         2.14264936667243    4.36704507999696   -0.79950635317772
H         6.18096475908147    2.90653483773699    0.01634826434974
H         5.30143367140603    4.61882501529611    1.81423227781842

          :  Hamiltonian                  GFN2-xTB          :
         :: total energy            -133.346586804739 Eh    ::
         :: gradient norm              0.000762762937 Eh/a0 ::
         :: HOMO-LUMO gap              3.127932014016 eV    ::
         :: SCC energy              -134.738015817535 Eh    ::
         :: -> dispersion             -0.108591601249 Eh    ::
         :: repulsion energy           1.386948802232 Eh    ::

    * Orbital Energies and Occupations

         #    Occupation            Energy/Eh            Energy/eV
      -------------------------------------------------------------
         1        2.0000           -0.8874405             -24.1485
       ...           ...                  ...                  ...
       103        2.0000           -0.4481554             -12.1949
       104        2.0000           -0.4429815             -12.0541
       105        2.0000           -0.4398473             -11.9689
       106        2.0000           -0.4352272             -11.8431
       107        2.0000           -0.4325451             -11.7702
       108        2.0000           -0.4287694             -11.6674
       109        2.0000           -0.4276867             -11.6379
       110        2.0000           -0.4255232             -11.5791
       111        2.0000           -0.4207206             -11.4484
       112        2.0000           -0.4159414             -11.3183
       113        2.0000           -0.4143235             -11.2743
       114        2.0000           -0.4130807             -11.2405
       115        2.0000           -0.4036927             -10.9850 (HOMO)
       116                         -0.2887433              -7.8571 (LUMO)
       117                         -0.2815610              -7.6617
       118                         -0.2800401              -7.6203
       119                         -0.2724253              -7.4131
       120                         -0.2677194              -7.2850
       121                         -0.2651115              -7.2141
       122                         -0.2573225              -7.0021
       123                         -0.2546823              -6.9303
       124                         -0.2448328              -6.6622
       125                         -0.2436560              -6.6302
       126                         -0.2338340              -6.3629
       ...                                ...                  ...
       212                          0.6707246              18.2513
      -------------------------------------------------------------
                  HL-Gap            0.1149494 Eh            3.1279 eV

     #   Z          covCN         q      C6AA      Î±(0)
     1   6 C        2.975    -0.026    28.652     8.780
     2   6 C        3.335     0.485    17.309     6.590
     3   9 F        0.792    -0.200    11.240     3.960
     4   9 F        0.791    -0.229    11.541     4.013
     5   9 F        0.791    -0.198    11.212     3.955
     6   6 C        2.923    -0.021    28.532     8.760
     7   6 C        2.920    -0.022    28.547     8.762
     8   6 C        2.919    -0.016    28.410     8.741
     9   6 C        2.925    -0.029    28.716     8.788
    10   6 C        2.973     0.020    27.562     8.612
    11   6 C        3.820     0.050    19.724     6.320
    12   6 C        3.817     0.038    19.922     6.352
    13   6 C        2.966     0.007    27.861     8.658
    14   6 C        2.974    -0.028    28.691     8.786
    15   6 C        3.336     0.487    17.274     6.583
    16   9 F        0.791    -0.204    11.280     3.967
    17   9 F        0.792    -0.198    11.214     3.956
    18   9 F        0.791    -0.214    11.377     3.984
    19   6 C        2.925    -0.022    28.547     8.762
    20   6 C        2.920    -0.021    28.522     8.758
    21   6 C        2.918    -0.016    28.421     8.742
    22   6 C        2.930    -0.028    28.706     8.787
    23   7 N        2.765    -0.110    23.404     7.185
    24   6 C        2.789     0.284    22.197     7.717
    25   6 C        3.045    -0.028    28.654     8.779
    26   6 C        3.133     0.064    26.366     8.405
    27  35 Br       1.026    -0.144   188.993    22.166
    28   6 C        3.146    -0.052    29.008     8.811
    29   6 C        2.950    -0.029    28.716     8.789
    30  16 S        2.338     0.058   138.708    19.822
    31   8 O        0.860    -0.407    21.821     6.263
    32   6 C        3.758     0.096    19.045     6.222
    33   6 C        2.689     0.365    20.810     7.466
    34   8 O        1.659    -0.350    19.899     6.022
    35   8 O        0.856    -0.390    21.482     6.214
    36   7 N        2.764    -0.106    23.315     7.171
    37   6 C        2.787     0.280    22.268     7.730
    38   6 C        3.047    -0.033    28.768     8.797
    39   6 C        3.129     0.068    26.281     8.393
    40  35 Br       1.029    -0.136   188.793    22.154
    41   6 C        3.148    -0.048    28.898     8.794
    42   6 C        2.948    -0.027    28.670     8.782
    43  16 S        2.339     0.048   139.102    19.850
    44   8 O        0.859    -0.405    21.779     6.257
    45   1 H        0.926     0.067     2.114     2.274
    46   1 H        0.926     0.058     2.220     2.330
    47   1 H        0.926     0.061     2.184     2.311
    48   1 H        0.926     0.073     2.058     2.243
    49   1 H        0.924     0.078     2.002     2.213
    50   1 H        0.923     0.072     2.060     2.245
    51   1 H        0.926     0.074     2.047     2.237
    52   1 H        0.926     0.063     2.166     2.302
    53   1 H        0.926     0.062     2.175     2.306
    54   1 H        0.926     0.056     2.251     2.346
    55   1 H        0.926     0.069     2.092     2.262
    56   1 H        0.926     0.070     2.081     2.256
    57   1 H        0.923     0.093     1.855     2.130
    58   1 H        0.804     0.350     0.587     1.204
    59   1 H        0.926     0.070     2.080     2.255
    60   1 H        0.926     0.069     2.099     2.266

Wiberg/Mayer (AO) data.
largest (>0.10) Wiberg bond orders for each atom

     #   Z sym  total        # sym  WBO       # sym  WBO       # sym  WBO
 ---------------------------------------------------------------------------
     1   6 C    3.969 --     6 C    1.412    10 C    1.387     2 C    0.951
                             8 C    0.105
     2   6 C    3.821 --     3 F    0.956     5 F    0.954     1 C    0.951
                             4 F    0.922
     3   9 F    1.078 --     2 C    0.956
     4   9 F    1.048 --     2 C    0.922
     5   9 F    1.085 --     2 C    0.954
     6   6 C    3.987 --     7 C    1.444     1 C    1.412    45 H    0.966
                             9 C    0.109
     7   6 C    3.988 --     6 C    1.444     8 C    1.433    46 H    0.969
                            10 C    0.108
     8   6 C    3.989 --     9 C    1.447     7 C    1.433    47 H    0.968
                             1 C    0.105
     9   6 C    3.987 --     8 C    1.447    10 C    1.409    48 H    0.959
                             6 C    0.109
    10   6 C    3.986 --     9 C    1.409     1 C    1.387    11 C    0.989
                             7 C    0.108
    11   6 C    3.964 --    10 C    0.989    36 N    0.957    49 H    0.952
                            12 C    0.951
    12   6 C    3.964 --    13 C    0.993    23 N    0.963    11 C    0.951
                            50 H    0.942
    13   6 C    3.986 --    22 C    1.408    14 C    1.387    12 C    0.993
                            20 C    0.108
    14   6 C    3.971 --    19 C    1.412    13 C    1.387    15 C    0.949
                            21 C    0.106
    15   6 C    3.825 --    17 F    0.957    14 C    0.949    16 F    0.948
                            18 F    0.934
    16   9 F    1.078 --    15 C    0.948
    17   9 F    1.081 --    15 C    0.957
    18   9 F    1.066 --    15 C    0.934
    19   6 C    3.986 --    20 C    1.444    14 C    1.412    51 H    0.965
                            22 C    0.108
    20   6 C    3.988 --    19 C    1.444    21 C    1.433    52 H    0.968
                            13 C    0.108
    21   6 C    3.989 --    22 C    1.448    20 C    1.433    53 H    0.968
                            14 C    0.106
    22   6 C    3.988 --    21 C    1.448    13 C    1.408    54 H    0.965
                            19 C    0.108
    23   7 N    3.470 --    24 C    1.218    32 C    0.973    12 C    0.963
                            31 O    0.194
    24   6 C    3.952 --    31 O    1.681    23 N    1.218    25 C    0.970
    25   6 C    3.949 --    26 C    1.541    30 S    1.169    24 C    0.970
                            29 C    0.108
    26   6 C    3.932 --    25 C    1.541    28 C    1.249    27 Br   0.989
    27  35 Br   1.151 --    26 C    0.989
    28   6 C    3.983 --    29 C    1.625    26 C    1.249    55 H    0.962
    29   6 C    3.950 --    28 C    1.625    30 S    1.207    56 H    0.966
                            25 C    0.108
    30  16 S    2.676 --    29 C    1.207    25 C    1.169
    31   8 O    2.051 --    24 C    1.681    23 N    0.194
    32   6 C    3.957 --    36 N    0.987    23 N    0.973    57 H    0.937
                            33 C    0.905
    33   6 C    3.923 --    35 O    1.765    34 O    1.172    32 C    0.905
    34   8 O    2.234 --    33 C    1.172    58 H    0.851    35 O    0.181
    35   8 O    2.060 --    33 C    1.765    34 O    0.181
    36   7 N    3.473 --    37 C    1.209    32 C    0.987    11 C    0.957
                            44 O    0.197
    37   6 C    3.954 --    44 O    1.691    36 N    1.209    38 C    0.975
    38   6 C    3.947 --    39 C    1.537    43 S    1.163    37 C    0.975
                            42 C    0.108
    39   6 C    3.935 --    38 C    1.537    41 C    1.251    40 Br   0.995
    40  35 Br   1.155 --    39 C    0.995
    41   6 C    3.984 --    42 C    1.625    39 C    1.251    59 H    0.961
    42   6 C    3.950 --    41 C    1.625    43 S    1.205    60 H    0.966
                            38 C    0.108
    43  16 S    2.668 --    42 C    1.205    38 C    1.163
    44   8 O    2.044 --    37 C    1.691    36 N    0.197
    45   1 H    0.995 --     6 C    0.966
    46   1 H    0.996 --     7 C    0.969
    47   1 H    0.995 --     8 C    0.968
    48   1 H    0.994 --     9 C    0.959
    49   1 H    0.993 --    11 C    0.952
    50   1 H    0.994 --    12 C    0.942
    51   1 H    0.994 --    19 C    0.965
    52   1 H    0.995 --    20 C    0.968
    53   1 H    0.995 --    21 C    0.968
    54   1 H    0.997 --    22 C    0.965
    55   1 H    0.994 --    28 C    0.962
    56   1 H    0.994 --    29 C    0.966
    57   1 H    0.991 --    32 C    0.937
    58   1 H    0.876 --    34 O    0.851
    59   1 H    0.994 --    41 C    0.961
    60   1 H    0.994 --    42 C    0.966
 ---------------------------------------------------------------------------

molecular dipole:
                 x           y           z       tot (Debye)
 q only:       -2.158       0.523      -0.206
   full:       -1.973       0.752      -0.459       5.493

           -------------------------------------------------
          | TOTAL ENERGY             -133.346586804739 Eh   |
          | GRADIENT NORM               0.000762762937 Eh/Î± |
          | HOMO-LUMO GAP               3.127932014016 eV   |
           -------------------------------------------------

 * finished run on 2022/03/16 at 23:53:14.053
