   * xtb version 6.3.3 (4ae9cef) compiled by 'conda@95abc7406d43' on 2020-10-14
          program call               : xtb acid_82.xyz --opt --chrg 0 --uhf 0 --gfn 2
          number of atoms            :                    72
          number of electrons        :                   218
          charge                     :                     0
          spin                       :                   0.0

   ID    Z sym.   atoms
    1    6 C      1-22, 24-26, 28-30, 32, 33, 37-39, 41-43
    2    7 N      23, 36
    3   16 S      27, 40
    4    8 O      31, 34, 35, 44
    5    1 H      45-72

          :  Hamiltonian                  GFN2-xTB          :
 * total energy  :  -119.9899311 Eh     change       -0.2422468E-08 Eh
 * total energy  :  -120.0056223 Eh     change       -0.1569126E-01 Eh
 * total energy  :  -120.0102827 Eh     change       -0.4660362E-02 Eh
 * total energy  :  -120.0114052 Eh     change       -0.1122562E-02 Eh
 * total energy  :  -120.0120966 Eh     change       -0.6913942E-03 Eh
 * total energy  :  -120.0124677 Eh     change       -0.3711199E-03 Eh
 * total energy  :  -120.0128824 Eh     change       -0.4146564E-03 Eh
 * total energy  :  -120.0134144 Eh     change       -0.5319851E-03 Eh
 * total energy  :  -120.0139634 Eh     change       -0.5490568E-03 Eh
 * total energy  :  -120.0145041 Eh     change       -0.5406335E-03 Eh
 * total energy  :  -120.0209932 Eh     change       -0.1103851E-04 Eh
 * total energy  :  -120.0210045 Eh     change       -0.1134065E-04 Eh
 * total energy  :  -120.0210138 Eh     change       -0.9298289E-05 Eh
 * total energy  :  -120.0210257 Eh     change       -0.1188059E-04 Eh
 * total energy  :  -120.0210351 Eh     change       -0.9363129E-05 Eh
 * total energy  :  -120.0210447 Eh     change       -0.9644854E-05 Eh
 * total energy  :  -120.0210507 Eh     change       -0.5975919E-05 Eh
 * total energy  :  -120.0210557 Eh     change       -0.5001383E-05 Eh
 * total energy  :  -120.0210594 Eh     change       -0.3668713E-05 Eh
   *** GEOMETRY OPTIMIZATION CONVERGED AFTER 113 ITERATIONS ***

 final structure:
================
72
 xtb: 6.3.3 (4ae9cef)
C        -1.84602815392626    1.43896826521375   -1.53559456201621
C        -2.71227646917843    2.15052417514176   -2.31338677638752
C        -3.98376535489367    2.51972532672378   -1.82685116219441
C        -4.90232417848718    3.25551546190296   -2.60305944448613
C        -6.12533347766803    3.59753388415267   -2.09766018230023
C        -6.48457843260729    3.22020365668039   -0.79411045568471
C        -5.61615181262683    2.50577983753608   -0.01751232190030
C        -4.34698962638822    2.13669458746849   -0.50966706179394
C        -3.42883076508050    1.40268770602724    0.26785217295384
C        -2.20112600379132    1.05541832525186   -0.22724195193153
C        -1.22516850428352    0.26574789328701    0.60881083709729
C        -0.90991421982829   -1.10846460431950   -0.01116046098032
C        -0.73866958979722   -2.24813104679845    0.96690954315771
C        -0.92023444465862   -3.52960598112555    0.51054185446055
C        -0.71295657282084   -4.64211174122659    1.34843845705152
C        -0.90154127109004   -5.96509304317037    0.89536592352851
C        -0.69470701197703   -7.02386652325040    1.73381155098595
C        -0.28987979057564   -6.81034066711707    3.06175620742272
C        -0.09704697454199   -5.54108409300714    3.52995372330571
C        -0.30290385213440   -4.42674686880933    2.69005270599564
C        -0.11692039833427   -3.10193670044104    3.13375421808311
C        -0.32816574832246   -2.04055438336832    2.29854098025571
N         0.35014665573993   -0.85872522690063   -0.70815519680822
C         0.69592449007817   -1.45990147486368   -1.87571090112954
C         1.97692775882039   -0.95367986767923   -2.44574786246861
C         3.11491766413052   -1.68865404167429   -2.53012531526577
S         4.42142530970539   -0.78395395455669   -3.18748105553979
C         3.41475908206361    0.61724637292909   -3.37997161403870
C         3.96536010070053    1.88545149115300   -3.92509257478452
C         2.15224955287225    0.36777923085284   -2.94473397747225
O         0.00665746995245   -2.30929981883898   -2.39529937259182
C         1.09642695961807    0.11498770480743    0.03082218471029
C         2.01255622574062   -0.53016717412328    1.09522299509606
O         2.55474541937066   -1.65725277948091    0.64479272532702
O         2.24638324599829   -0.04948775741522    2.16675252855175
N         0.07679576630481    0.93226390585187    0.63698790878722
C         0.24616143794742    2.14406767985818    1.22935442805873
C         1.58632683152595    2.75514763453304    1.00403705091088
C         2.04108042251815    3.15334310039710   -0.21489703831027
S         3.61010059998896    3.85259531330085   -0.12116582611837
C         3.66033494741226    3.60859420751524    1.59832548514983
C         4.85186880098518    4.02237211028428    2.38393947813226
C         2.51515282012501    3.02952504733943    2.04072087310078
O        -0.63929576321516    2.68309654335178    1.85520859100968
H        -0.87673049975517    1.15767499783738   -1.92075870204710
H        -2.43561296996171    2.44137781164342   -3.31701155473485
H        -4.62096385451013    3.54430421768652   -3.60592126915947
H        -6.82472987476895    4.16174989083657   -2.69716630150311
H        -7.45476630026146    3.50078360335387   -0.41090429956727
H        -5.88696257476998    2.21421026818255    0.98699323658154
H        -3.70785002726329    1.12246669923511    1.27326131707390
H        -1.62341261993817    0.17662323150948    1.62392697492166
H        -1.65400865753618   -1.38912528022431   -0.76349838581795
H        -1.21469056306867   -3.69641972302369   -0.51529316519583
H        -1.21196045517585   -6.12122704324412   -0.12747099859689
H        -0.84176667106919   -8.03475146375048    1.38275510101304
H        -0.13290487842140   -7.66007862638115    3.70992195538236
H         0.21382046136619   -5.37127983475102    4.55110522180209
H         0.19799136997766   -2.93340046309907    4.15373963733912
H        -0.17597104068361   -1.03984424890155    2.67355504084288
H         3.26545290945709   -2.70469826881348   -2.22716915163756
H         3.15599959790253    2.55954225927531   -4.19474939948361
H         4.59175282205561    2.37942398157273   -3.18118899949338
H         4.57655176431209    1.69467525372964   -4.80477414322904
H         1.35573490822686    1.08962345828328   -3.00725965018172
H         1.76242327110220    0.69739245944428   -0.62121186656230
H         3.13493771819344   -2.05593877953914    1.31430669873622
H         1.53984982522616    3.11425308414017   -1.16203158948385
H         4.69131699914653    3.80513953123074    3.43670323741253
H         5.74041251483085    3.48973646367615    2.04610955028530
H         5.03809262111036    5.08978288954373    2.26819749563428
H         2.32649805893344    2.78178991715610    3.06850370081430

          :  Hamiltonian                  GFN2-xTB          :
         :: total energy            -120.021059373248 Eh    ::
         :: gradient norm              0.000425367520 Eh/a0 ::
         :: HOMO-LUMO gap              2.998933004193 eV    ::
         :: SCC energy              -121.859419756122 Eh    ::
         :: -> dispersion             -0.105948343269 Eh    ::
         :: repulsion energy           1.835653143731 Eh    ::

    * Orbital Energies and Occupations

         #    Occupation            Energy/Eh            Energy/eV
      -------------------------------------------------------------
         1        2.0000           -0.7779448             -21.1690
       ...           ...                  ...                  ...
        97        2.0000           -0.4169093             -11.3447
        98        2.0000           -0.4115488             -11.1988
        99        2.0000           -0.4091497             -11.1335
       100        2.0000           -0.4069959             -11.0749
       101        2.0000           -0.4060863             -11.0502
       102        2.0000           -0.4029840             -10.9658
       103        2.0000           -0.4002223             -10.8906
       104        2.0000           -0.3977084             -10.8222
       105        2.0000           -0.3967141             -10.7951
       106        2.0000           -0.3964810             -10.7888
       107        2.0000           -0.3898885             -10.6094
       108        2.0000           -0.3844438             -10.4612
       109        2.0000           -0.3802945             -10.3483 (HOMO)
       110                         -0.2700857              -7.3494 (LUMO)
       111                         -0.2631733              -7.1613
       112                         -0.2616650              -7.1203
       113                         -0.2554725              -6.9518
       114                         -0.2531136              -6.8876
       115                         -0.2378111              -6.4712
       116                         -0.2323262              -6.3219
       117                         -0.2284360              -6.2161
       118                         -0.2229050              -6.0656
       119                         -0.2087447              -5.6802
       120                         -0.2044064              -5.5622
       ...                                ...                  ...
       214                          0.6956039              18.9283
      -------------------------------------------------------------
                  HL-Gap            0.1102088 Eh            2.9989 eV

     #   Z          covCN         q      C6AA      Î±(0)
     1   6 C        2.920    -0.033    28.818     8.803
     2   6 C        2.917    -0.034    28.846     8.807
     3   6 C        2.988     0.014    27.694     8.632
     4   6 C        2.918    -0.034    28.841     8.807
     5   6 C        2.916    -0.029    28.718     8.788
     6   6 C        2.916    -0.028    28.709     8.786
     7   6 C        2.918    -0.033    28.810     8.802
     8   6 C        2.987     0.017    27.618     8.621
     9   6 C        2.923    -0.035    28.863     8.810
    10   6 C        2.970     0.004    27.941     8.670
    11   6 C        3.826     0.041    19.865     6.342
    12   6 C        3.837     0.037    19.922     6.350
    13   6 C        2.968    -0.005    28.133     8.700
    14   6 C        2.925    -0.039    28.968     8.826
    15   6 C        2.986     0.015    27.674     8.629
    16   6 C        2.918    -0.033    28.826     8.804
    17   6 C        2.916    -0.029    28.719     8.788
    18   6 C        2.916    -0.029    28.722     8.788
    19   6 C        2.918    -0.035    28.879     8.812
    20   6 C        2.987     0.011    27.751     8.641
    21   6 C        2.917    -0.037    28.913     8.818
    22   6 C        2.917    -0.041    29.022     8.834
    23   7 N        2.776    -0.108    23.357     7.178
    24   6 C        2.756     0.277    22.321     7.737
    25   6 C        3.168    -0.035    28.496     8.722
    26   6 C        2.940    -0.020    28.496     8.755
    27  16 S        2.335    -0.020   141.872    20.047
    28   6 C        2.979     0.027    27.389     8.585
    29   6 C        3.775    -0.111    22.646     6.780
    30   6 C        3.123    -0.063    29.378     8.876
    31   8 O        0.859    -0.418    22.040     6.294
    32   6 C        3.769     0.090    19.126     6.233
    33   6 C        2.687     0.350    21.049     7.508
    34   8 O        1.659    -0.364    20.167     6.062
    35   8 O        0.856    -0.382    21.332     6.192
    36   7 N        2.771    -0.119    23.577     7.212
    37   6 C        2.758     0.278    22.290     7.731
    38   6 C        3.166    -0.031    28.399     8.708
    39   6 C        2.940    -0.033    28.822     8.805
    40  16 S        2.330    -0.039   142.664    20.103
    41   6 C        2.982     0.029    27.344     8.578
    42   6 C        3.776    -0.109    22.603     6.774
    43   6 C        3.120    -0.047    28.989     8.818
    44   8 O        0.859    -0.413    21.948     6.281
    45   1 H        0.926     0.023     2.693     2.566
    46   1 H        0.926     0.035     2.523     2.484
    47   1 H        0.926     0.033     2.547     2.496
    48   1 H        0.926     0.032     2.554     2.499
    49   1 H        0.926     0.033     2.544     2.494
    50   1 H        0.926     0.036     2.502     2.473
    51   1 H        0.926     0.041     2.437     2.441
    52   1 H        0.924     0.067     2.116     2.275
    53   1 H        0.924     0.075     2.034     2.230
    54   1 H        0.926     0.056     2.249     2.345
    55   1 H        0.926     0.039     2.458     2.452
    56   1 H        0.926     0.034     2.537     2.491
    57   1 H        0.926     0.032     2.551     2.498
    58   1 H        0.926     0.033     2.548     2.496
    59   1 H        0.926     0.037     2.491     2.468
    60   1 H        0.926     0.037     2.491     2.468
    61   1 H        0.927     0.053     2.279     2.361
    62   1 H        0.925     0.055     2.254     2.348
    63   1 H        0.924     0.062     2.173     2.305
    64   1 H        0.925     0.061     2.187     2.313
    65   1 H        0.926     0.032     2.559     2.502
    66   1 H        0.923     0.076     2.022     2.224
    67   1 H        0.804     0.344     0.602     1.218
    68   1 H        0.926     0.037     2.483     2.464
    69   1 H        0.925     0.057     2.238     2.339
    70   1 H        0.925     0.056     2.241     2.341
    71   1 H        0.925     0.059     2.215     2.327
    72   1 H        0.926     0.057     2.237     2.339

Wiberg/Mayer (AO) data.
largest (>0.10) Wiberg bond orders for each atom

     #   Z sym  total        # sym  WBO       # sym  WBO       # sym  WBO
 ---------------------------------------------------------------------------
     1   6 C    3.992 --     2 C    1.566    10 C    1.293    45 H    0.967
     2   6 C    3.992 --     1 C    1.566     3 C    1.275    46 H    0.968
                             9 C    0.114
     3   6 C    3.990 --     4 C    1.282     2 C    1.275     8 C    1.252
     4   6 C    3.992 --     5 C    1.556     3 C    1.282    47 H    0.968
                             7 C    0.118
     5   6 C    3.990 --     4 C    1.556     6 C    1.321    48 H    0.971
     6   6 C    3.992 --     7 C    1.557     5 C    1.321    49 H    0.971
     7   6 C    3.989 --     6 C    1.557     8 C    1.279    50 H    0.968
                             4 C    0.118
     8   6 C    3.990 --     9 C    1.281     7 C    1.279     3 C    1.252
     9   6 C    3.988 --    10 C    1.529     8 C    1.281    51 H    0.965
                             2 C    0.114
    10   6 C    3.985 --     9 C    1.529     1 C    1.293    11 C    0.987
    11   6 C    3.960 --    10 C    0.987    12 C    0.965    52 H    0.952
                            36 N    0.952
    12   6 C    3.957 --    13 C    0.983    11 C    0.965    53 H    0.954
                            23 N    0.947
    13   6 C    3.984 --    14 C    1.521    22 C    1.301    12 C    0.983
    14   6 C    3.988 --    13 C    1.521    15 C    1.287    54 H    0.963
                            21 C    0.116
    15   6 C    3.990 --    14 C    1.287    16 C    1.276    20 C    1.250
    16   6 C    3.990 --    17 C    1.561    15 C    1.276    55 H    0.968
                            19 C    0.119
    17   6 C    3.992 --    16 C    1.561    18 C    1.318    56 H    0.971
    18   6 C    3.990 --    19 C    1.559    17 C    1.318    57 H    0.971
    19   6 C    3.992 --    18 C    1.559    20 C    1.279    58 H    0.968
                            16 C    0.119
    20   6 C    3.990 --    21 C    1.281    19 C    1.279    15 C    1.250
    21   6 C    3.991 --    22 C    1.555    20 C    1.281    59 H    0.968
                            14 C    0.116
    22   6 C    3.991 --    21 C    1.555    13 C    1.301    60 H    0.964
    23   7 N    3.472 --    24 C    1.204    32 C    0.999    12 C    0.947
                            31 O    0.190
    24   6 C    3.946 --    31 O    1.695    23 N    1.204    25 C    0.958
    25   6 C    3.983 --    26 C    1.604    30 C    1.221    24 C    0.958
    26   6 C    3.949 --    25 C    1.604    27 S    1.187    61 H    0.970
                            28 C    0.106
    27  16 S    2.608 --    26 C    1.187    28 C    1.161
    28   6 C    3.954 --    30 C    1.608    27 S    1.161    29 C    1.040
                            26 C    0.106
    29   6 C    3.993 --    28 C    1.040    62 H    0.978    64 H    0.974
                            63 H    0.964
    30   6 C    3.981 --    28 C    1.608    25 C    1.221    65 H    0.961
    31   8 O    2.022 --    24 C    1.695    23 N    0.190
    32   6 C    3.975 --    23 N    0.999    36 N    0.990    66 H    0.915
                            33 C    0.907
    33   6 C    3.918 --    35 O    1.782    34 O    1.154    32 C    0.907
    34   8 O    2.217 --    33 C    1.154    67 H    0.855    35 O    0.181
    35   8 O    2.065 --    33 C    1.782    34 O    0.181
    36   7 N    3.455 --    37 C    1.200    32 C    0.990    11 C    0.952
                            44 O    0.189
    37   6 C    3.947 --    44 O    1.700    36 N    1.200    38 C    0.960
    38   6 C    3.984 --    39 C    1.591    43 C    1.233    37 C    0.960
    39   6 C    3.945 --    38 C    1.591    40 S    1.181    68 H    0.969
                            41 C    0.112
    40  16 S    2.599 --    39 C    1.181    41 C    1.150
    41   6 C    3.952 --    43 C    1.617    40 S    1.150    42 C    1.039
                            39 C    0.112
    42   6 C    3.994 --    41 C    1.039    69 H    0.979    71 H    0.970
                            70 H    0.969
    43   6 C    3.984 --    41 C    1.617    38 C    1.233    72 H    0.961
    44   8 O    2.028 --    37 C    1.700    36 N    0.189
    45   1 H    0.999 --     1 C    0.967
    46   1 H    0.998 --     2 C    0.968
    47   1 H    0.998 --     4 C    0.968
    48   1 H    0.999 --     5 C    0.971
    49   1 H    0.998 --     6 C    0.971
    50   1 H    0.998 --     7 C    0.968
    51   1 H    0.998 --     9 C    0.965
    52   1 H    0.995 --    11 C    0.952
    53   1 H    0.993 --    12 C    0.954
    54   1 H    0.996 --    14 C    0.963
    55   1 H    0.998 --    16 C    0.968
    56   1 H    0.998 --    17 C    0.971
    57   1 H    0.998 --    18 C    0.971
    58   1 H    0.998 --    19 C    0.968
    59   1 H    0.998 --    21 C    0.968
    60   1 H    0.998 --    22 C    0.964
    61   1 H    0.997 --    26 C    0.970
    62   1 H    0.997 --    29 C    0.978
    63   1 H    0.996 --    29 C    0.964
    64   1 H    0.996 --    29 C    0.974
    65   1 H    0.999 --    30 C    0.961
    66   1 H    0.994 --    32 C    0.915
    67   1 H    0.881 --    34 O    0.855
    68   1 H    0.998 --    39 C    0.969
    69   1 H    0.997 --    42 C    0.979
    70   1 H    0.997 --    42 C    0.969
    71   1 H    0.996 --    42 C    0.970
    72   1 H    0.997 --    43 C    0.961
 ---------------------------------------------------------------------------

molecular dipole:
                 x           y           z       tot (Debye)
 q only:        1.214      -0.230      -0.144
   full:        1.180      -0.358       0.092       3.144

           -------------------------------------------------
          | TOTAL ENERGY             -120.021059373248 Eh   |
          | GRADIENT NORM               0.000425367520 Eh/Î± |
          | HOMO-LUMO GAP               2.998933004193 eV   |
           -------------------------------------------------

 * finished run on 2022/03/17 at 02:09:02.222
