   * xtb version 6.3.3 (4ae9cef) compiled by 'conda@95abc7406d43' on 2020-10-14
          program call               : xtb acid_293.xyz --opt --chrg 0 --uhf 0 --gfn 2
          number of atoms            :                    66
          number of electrons        :                   238
          charge                     :                     0
          spin                       :                   0.0

   ID    Z sym.   atoms
    1    6 C      1, 2, 6-15, 19-22, 24-29, 31, 33, 34, 38-41, 43-45
    2    9 F      3-5, 16-18
    3    7 N      23, 37
    4   17 Cl     30, 42
    5    8 O      32, 35, 36, 46
    6    1 H      47-66

          :  Hamiltonian                  GFN2-xTB          :
 * total energy  :  -138.3881688 Eh     change       -0.2964441E-08 Eh
 * total energy  :  -138.4039804 Eh     change       -0.1581161E-01 Eh
 * total energy  :  -138.4085296 Eh     change       -0.4549120E-02 Eh
 * total energy  :  -138.4099282 Eh     change       -0.1398606E-02 Eh
 * total energy  :  -138.4108250 Eh     change       -0.8968188E-03 Eh
 * total energy  :  -138.4113794 Eh     change       -0.5544249E-03 Eh
 * total energy  :  -138.4118925 Eh     change       -0.5130764E-03 Eh
 * total energy  :  -138.4124860 Eh     change       -0.5935477E-03 Eh
 * total energy  :  -138.4130616 Eh     change       -0.5755957E-03 Eh
 * total energy  :  -138.4135222 Eh     change       -0.4605556E-03 Eh
 * total energy  :  -138.4162320 Eh     change       -0.3136673E-04 Eh
 * total energy  :  -138.4162531 Eh     change       -0.2108544E-04 Eh
 * total energy  :  -138.4162702 Eh     change       -0.1716382E-04 Eh
 * total energy  :  -138.4162955 Eh     change       -0.2523817E-04 Eh
 * total energy  :  -138.4163056 Eh     change       -0.1014204E-04 Eh
 * total energy  :  -138.4163181 Eh     change       -0.1251031E-04 Eh
 * total energy  :  -138.4163236 Eh     change       -0.5488209E-05 Eh
 * total energy  :  -138.4163295 Eh     change       -0.5909357E-05 Eh
 * total energy  :  -138.4163331 Eh     change       -0.3548670E-05 Eh
   *** GEOMETRY OPTIMIZATION CONVERGED AFTER 48 ITERATIONS ***

 final structure:
================
66
 xtb: 6.3.3 (4ae9cef)
C        -1.69503325995655   -3.11711963581322    0.19435611455178
C        -1.01172708682328   -3.49298024940754    1.48041703079139
F        -1.41501181539521   -2.78392025116391    2.54278178551572
F        -1.17886101204376   -4.78055292645330    1.80482144723788
F         0.33390551796059   -3.31499524076585    1.41244341337810
C        -2.43732161924874   -4.09026713262986   -0.46524957991216
C        -3.08262197192225   -3.79214194887790   -1.65033926896403
C        -2.98719024298181   -2.51772006096916   -2.18150714422995
C        -2.24717748307188   -1.54896481805730   -1.53031059960089
C        -1.59611601816151   -1.82826429876445   -0.33306191121988
C        -0.80876015621040   -0.72500470671568    0.33501591543259
C         0.48184508251755   -0.37755955868499   -0.44912739111524
C         1.69063886673762   -1.09999292338187    0.09192484504574
C         2.28368177007094   -0.89264331986754    1.33821776203123
C         1.85271910558282    0.07566846262893    2.41006653004459
F         0.82959362866469    0.89166657973139    2.12877575838051
F         2.86984713963252    0.88901253525718    2.76254190409429
F         1.49908760264710   -0.57642534005829    3.52946355095703
C         3.38649970831669   -1.65287391716345    1.72477512945925
C         3.90157519443177   -2.63210742708172    0.90194351474818
C         3.30006296624160   -2.87110256732071   -0.32060188447059
C         2.21533725542511   -2.11251577929061   -0.70975976197177
N         0.52790747261976    1.07719685128885   -0.44063986526171
C         1.57314680089736    1.91813278219477   -0.58730795510833
C         2.91573095853219    1.33420114753762   -0.84285564311073
C         3.97655889981996    1.69817836808750   -0.02139259974836
C         5.23630319433166    1.17602089304060   -0.25314923137599
C         5.45396542316976    0.31151217731355   -1.31167992150806
C         4.39902659815593   -0.00930399294929   -2.15176239314430
Cl        4.65712403093072   -1.07675194656607   -3.48186815689041
C         3.13029700674865    0.49878335504282   -1.93176854288352
O         1.40305384481419    3.13223127385047   -0.52241272449158
C        -0.78316737418620    1.63648622842351   -0.14107943054652
C        -1.40170232476006    2.25795955187517   -1.43238645655514
O        -0.89175796748341    3.42091024465110   -1.76942315071521
O        -2.25955716118267    1.69734222556067   -2.05261690237161
N        -1.54795920085053    0.52794962150564    0.34980007791521
C        -2.83659391088060    0.56936165763796    0.79065915266029
C        -3.44348874811378    1.93592635416776    0.82315717192665
C        -4.50088979638845    2.22085916811959   -0.02903062614440
C        -5.08419978257074    3.47639555986950    0.01534958676591
Cl       -6.38483324399528    3.84329275069260   -1.05403593972782
C        -4.64030899451948    4.43968140579422    0.90836451785371
C        -3.60330503841118    4.13449059651182    1.77251266178911
C        -3.00128465871536    2.88877321747919    1.73376440035947
O        -3.42524981215691   -0.43193273757392    1.12916464544556
H        -2.51394833519471   -5.07954078612927   -0.04193950810105
H        -3.66367093517782   -4.55173051568752   -2.14936159621126
H        -3.49489043885933   -2.27126543530799   -3.10123672005972
H        -2.20474788098043   -0.54944428842584   -1.93693896222662
H        -0.57335467423526   -0.99848696076562    1.36847141649358
H         0.33566404282235   -0.70300849454950   -1.48962768216249
H         3.82903702598236   -1.47060956341817    2.69238879743724
H         4.75312425174072   -3.21131463268061    1.22069749610692
H         3.67319623679516   -3.64534709057362   -0.97213808765958
H         1.75262181008740   -2.31141870036738   -1.66465947601724
H         3.80525641181589    2.37862158630251    0.79741878304020
H         6.05580609507558    1.44623248690660    0.39397134294734
H         6.43307985595511   -0.10141167862921   -1.49525006026967
H         2.32869633093597    0.26000215757143   -2.61264385070639
H        -0.66852095034220    2.43511238567556    0.60991322418055
H        -0.07368905032955    3.63909740799757   -1.24670404033486
H        -4.84989453312349    1.47414967717869   -0.72392480659798
H        -5.10773574993921    5.41132198544881    0.92973625923760
H        -3.26372671126899    4.87459514804144    2.48091978348337
H        -2.20609018998397    2.64755508272389    2.42395685208745

          :  Hamiltonian                  GFN2-xTB          :
         :: total energy            -138.416333071137 Eh    ::
         :: gradient norm              0.000467154547 Eh/a0 ::
         :: HOMO-LUMO gap              3.037794618965 eV    ::
         :: SCC energy              -140.002891442013 Eh    ::
         :: -> dispersion             -0.106503820253 Eh    ::
         :: repulsion energy           1.582542679168 Eh    ::

    * Orbital Energies and Occupations

         #    Occupation            Energy/Eh            Energy/eV
      -------------------------------------------------------------
         1        2.0000           -1.0791295             -29.3646
       ...           ...                  ...                  ...
       107        2.0000           -0.4508173             -12.2674
       108        2.0000           -0.4482797             -12.1983
       109        2.0000           -0.4450667             -12.1109
       110        2.0000           -0.4427778             -12.0486
       111        2.0000           -0.4392695             -11.9531
       112        2.0000           -0.4360119             -11.8645
       113        2.0000           -0.4351954             -11.8423
       114        2.0000           -0.4277568             -11.6399
       115        2.0000           -0.4267833             -11.6134
       116        2.0000           -0.4207415             -11.4490
       117        2.0000           -0.4106883             -11.1754
       118        2.0000           -0.4049600             -11.0195
       119        2.0000           -0.4030166             -10.9666 (HOMO)
       120                         -0.2913797              -7.9288 (LUMO)
       121                         -0.2887659              -7.8577
       122                         -0.2763300              -7.5193
       123                         -0.2681253              -7.2961
       124                         -0.2669719              -7.2647
       125                         -0.2651914              -7.2162
       126                         -0.2588123              -7.0426
       127                         -0.2558493              -6.9620
       128                         -0.2461906              -6.6992
       129                         -0.2425650              -6.6005
       130                         -0.2200722              -5.9885
       ...                                ...                  ...
       214                          0.6482124              17.6388
      -------------------------------------------------------------
                  HL-Gap            0.1116369 Eh            3.0378 eV

     #   Z          covCN         q      C6AA      Î±(0)
     1   6 C        2.975    -0.028    28.686     8.785
     2   6 C        3.335     0.485    17.306     6.590
     3   9 F        0.791    -0.198    11.211     3.955
     4   9 F        0.792    -0.200    11.231     3.959
     5   9 F        0.791    -0.232    11.569     4.018
     6   6 C        2.923    -0.021    28.542     8.761
     7   6 C        2.919    -0.022    28.553     8.763
     8   6 C        2.919    -0.016    28.418     8.742
     9   6 C        2.925    -0.030    28.751     8.793
    10   6 C        2.971     0.019    27.571     8.613
    11   6 C        3.820     0.051    19.708     6.318
    12   6 C        3.819     0.039    19.910     6.350
    13   6 C        2.965     0.009    27.822     8.652
    14   6 C        2.975    -0.029    28.726     8.792
    15   6 C        3.343     0.487    17.168     6.546
    16   9 F        0.792    -0.210    11.339     3.978
    17   9 F        0.792    -0.211    11.354     3.980
    18   9 F        0.792    -0.199    11.226     3.958
    19   6 C        2.935    -0.019    28.482     8.753
    20   6 C        2.919    -0.019    28.485     8.752
    21   6 C        2.919    -0.015    28.379     8.736
    22   6 C        2.932    -0.028    28.698     8.785
    23   7 N        2.756    -0.103    23.253     7.162
    24   6 C        2.768     0.270    22.446     7.759
    25   6 C        2.978    -0.010    28.268     8.721
    26   6 C        2.923    -0.025    28.627     8.774
    27   6 C        2.922    -0.023    28.579     8.767
    28   6 C        2.955    -0.037    28.907     8.819
    29   6 C        2.889     0.100    25.787     8.326
    30  17 Cl       0.971    -0.160   104.166    15.614
    31   6 C        2.961    -0.042    29.045     8.840
    32   8 O        0.860    -0.449    22.678     6.385
    33   6 C        3.760     0.072    19.425     6.283
    34   6 C        2.685     0.349    21.070     7.512
    35   8 O        1.656    -0.359    20.069     6.047
    36   8 O        0.856    -0.366    21.010     6.145
    37   7 N        2.761    -0.108    23.352     7.177
    38   6 C        2.764     0.278    22.297     7.733
    39   6 C        2.979    -0.014    28.364     8.736
    40   6 C        2.961    -0.028    28.704     8.788
    41   6 C        2.889     0.104    25.691     8.310
    42  17 Cl       0.971    -0.159   104.128    15.611
    43   6 C        2.956    -0.037    28.924     8.821
    44   6 C        2.922    -0.025    28.635     8.775
    45   6 C        2.920    -0.038    28.949     8.823
    46   8 O        0.859    -0.404    21.764     6.255
    47   1 H        0.926     0.067     2.114     2.274
    48   1 H        0.926     0.058     2.218     2.329
    49   1 H        0.926     0.061     2.187     2.313
    50   1 H        0.926     0.077     2.013     2.219
    51   1 H        0.924     0.065     2.138     2.286
    52   1 H        0.923     0.062     2.179     2.308
    53   1 H        0.926     0.069     2.093     2.262
    54   1 H        0.926     0.066     2.131     2.283
    55   1 H        0.926     0.067     2.124     2.279
    56   1 H        0.926     0.055     2.257     2.349
    57   1 H        0.926     0.072     2.068     2.249
    58   1 H        0.926     0.065     2.144     2.290
    59   1 H        0.926     0.068     2.102     2.267
    60   1 H        0.926     0.057     2.229     2.335
    61   1 H        0.923     0.080     1.975     2.198
    62   1 H        0.800     0.368     0.548     1.163
    63   1 H        0.926     0.075     2.032     2.229
    64   1 H        0.926     0.065     2.141     2.288
    65   1 H        0.926     0.056     2.252     2.347
    66   1 H        0.926     0.047     2.358     2.401

Wiberg/Mayer (AO) data.
largest (>0.10) Wiberg bond orders for each atom

     #   Z sym  total        # sym  WBO       # sym  WBO       # sym  WBO
 ---------------------------------------------------------------------------
     1   6 C    3.969 --     6 C    1.412    10 C    1.386     2 C    0.951
                             8 C    0.105
     2   6 C    3.820 --     4 F    0.957     3 F    0.953     1 C    0.951
                             5 F    0.920
     3   9 F    1.085 --     2 C    0.953
     4   9 F    1.080 --     2 C    0.957
     5   9 F    1.046 --     2 C    0.920
     6   6 C    3.987 --     7 C    1.443     1 C    1.412    47 H    0.966
                             9 C    0.109
     7   6 C    3.988 --     6 C    1.443     8 C    1.433    48 H    0.969
                            10 C    0.108
     8   6 C    3.989 --     9 C    1.447     7 C    1.433    49 H    0.968
                             1 C    0.105
     9   6 C    3.985 --     8 C    1.447    10 C    1.409    50 H    0.957
                             6 C    0.109
    10   6 C    3.985 --     9 C    1.409     1 C    1.386    11 C    0.990
                             7 C    0.108
    11   6 C    3.969 --    10 C    0.990    37 N    0.962    51 H    0.953
                            12 C    0.948
    12   6 C    3.967 --    13 C    0.996    23 N    0.962    11 C    0.948
                            52 H    0.948
    13   6 C    3.985 --    22 C    1.399    14 C    1.395    12 C    0.996
                            20 C    0.107
    14   6 C    3.971 --    19 C    1.402    13 C    1.395    15 C    0.950
                            21 C    0.105
    15   6 C    3.825 --    18 F    0.950    14 C    0.950    16 F    0.948
                            17 F    0.938
    16   9 F    1.072 --    15 C    0.948
    17   9 F    1.065 --    15 C    0.938
    18   9 F    1.079 --    15 C    0.950
    19   6 C    3.987 --    20 C    1.451    14 C    1.402    53 H    0.966
                            22 C    0.109
    20   6 C    3.987 --    19 C    1.451    21 C    1.426    54 H    0.968
                            13 C    0.107
    21   6 C    3.988 --    22 C    1.453    20 C    1.426    55 H    0.967
                            14 C    0.105
    22   6 C    3.987 --    21 C    1.453    13 C    1.399    56 H    0.965
                            19 C    0.109
    23   7 N    3.499 --    24 C    1.256    33 C    0.965    12 C    0.962
                            32 O    0.187
    24   6 C    3.945 --    32 O    1.604    23 N    1.256    25 C    0.983
    25   6 C    3.987 --    26 C    1.399    31 C    1.396    24 C    0.983
                            28 C    0.105
    26   6 C    3.987 --    27 C    1.438    25 C    1.399    57 H    0.966
    27   6 C    3.989 --    28 C    1.440    26 C    1.438    58 H    0.967
                            31 C    0.108
    28   6 C    3.987 --    27 C    1.440    29 C    1.398    59 H    0.966
                            25 C    0.105
    29   6 C    3.923 --    31 C    1.408    28 C    1.398    30 Cl   0.984
    30  17 Cl   1.123 --    29 C    0.984
    31   6 C    3.988 --    29 C    1.408    25 C    1.396    60 H    0.965
                            27 C    0.108
    32   8 O    2.012 --    24 C    1.604    23 N    0.187
    33   6 C    3.955 --    37 N    1.000    23 N    0.965    61 H    0.934
                            34 C    0.888
    34   6 C    3.931 --    36 O    1.772    35 O    1.210    33 C    0.888
    35   8 O    2.246 --    34 C    1.210    62 H    0.776    36 O    0.183
    36   8 O    2.080 --    34 C    1.772    35 O    0.183
    37   7 N    3.456 --    38 C    1.190    33 C    1.000    11 C    0.962
                            46 O    0.189
    38   6 C    3.945 --    46 O    1.709    37 N    1.190    39 C    0.960
    39   6 C    3.986 --    40 C    1.409    45 C    1.400    38 C    0.960
                            43 C    0.107
    40   6 C    3.987 --    39 C    1.409    41 C    1.405    63 H    0.964
                            44 C    0.108
    41   6 C    3.924 --    40 C    1.405    43 C    1.401    42 Cl   0.985
    42  17 Cl   1.126 --    41 C    0.985
    43   6 C    3.988 --    44 C    1.440    41 C    1.401    64 H    0.967
                            39 C    0.107
    44   6 C    3.990 --    43 C    1.440    45 C    1.439    65 H    0.968
                            40 C    0.108
    45   6 C    3.990 --    44 C    1.439    39 C    1.400    66 H    0.967
    46   8 O    2.040 --    38 C    1.709    37 N    0.189
    47   1 H    0.995 --     6 C    0.966
    48   1 H    0.996 --     7 C    0.969
    49   1 H    0.996 --     8 C    0.968
    50   1 H    0.994 --     9 C    0.957
    51   1 H    0.995 --    11 C    0.953
    52   1 H    0.996 --    12 C    0.948
    53   1 H    0.995 --    19 C    0.966
    54   1 H    0.995 --    20 C    0.968
    55   1 H    0.995 --    21 C    0.967
    56   1 H    0.997 --    22 C    0.965
    57   1 H    0.994 --    26 C    0.966
    58   1 H    0.995 --    27 C    0.967
    59   1 H    0.995 --    28 C    0.966
    60   1 H    0.997 --    31 C    0.965
    61   1 H    0.993 --    33 C    0.934
    62   1 H    0.864 --    35 O    0.776
    63   1 H    0.994 --    40 C    0.964
    64   1 H    0.995 --    43 C    0.967
    65   1 H    0.996 --    44 C    0.968
    66   1 H    0.997 --    45 C    0.967
 ---------------------------------------------------------------------------

molecular dipole:
                 x           y           z       tot (Debye)
 q only:        2.397      -0.815      -0.828
   full:        2.648      -0.796      -0.829       7.336

           -------------------------------------------------
          | TOTAL ENERGY             -138.416333071137 Eh   |
          | GRADIENT NORM               0.000467154547 Eh/Î± |
          | HOMO-LUMO GAP               3.037794618965 eV   |
           -------------------------------------------------

 * finished run on 2022/03/16 at 23:27:39.895
