   * xtb version 6.3.3 (4ae9cef) compiled by 'conda@95abc7406d43' on 2020-10-14
          program call               : xtb acid_322.xyz --opt --chrg 0 --uhf 0 --gfn 2
          number of atoms            :                    74
          number of electrons        :                   230
          charge                     :                     0
          spin                       :                   0.0

   ID    Z sym.   atoms
    1    6 C      1-22, 24-29, 31, 32, 34, 35, 39-44, 46, 47
    2    7 N      23, 30, 38, 45
    3    8 O      33, 36, 37, 48
    4    1 H      49-74

          :  Hamiltonian                  GFN2-xTB          :
 * total energy  :  -126.8062414 Eh     change       -0.4317087E-08 Eh
 * total energy  :  -126.8250530 Eh     change       -0.1881160E-01 Eh
 * total energy  :  -126.8306634 Eh     change       -0.5610430E-02 Eh
 * total energy  :  -126.8319716 Eh     change       -0.1308162E-02 Eh
 * total energy  :  -126.8324708 Eh     change       -0.4992372E-03 Eh
 * total energy  :  -126.8334987 Eh     change       -0.1027942E-02 Eh
 * total energy  :  -126.8336932 Eh     change       -0.1944086E-03 Eh
 * total energy  :  -126.8342370 Eh     change       -0.5438849E-03 Eh
 * total energy  :  -126.8346031 Eh     change       -0.3660373E-03 Eh
 * total energy  :  -126.8349746 Eh     change       -0.3714774E-03 Eh
 * total energy  :  -126.8381666 Eh     change       -0.4988936E-04 Eh
 * total energy  :  -126.8382067 Eh     change       -0.4012073E-04 Eh
 * total energy  :  -126.8382343 Eh     change       -0.2755956E-04 Eh
 * total energy  :  -126.8382495 Eh     change       -0.1520892E-04 Eh
 * total energy  :  -126.8382412 Eh     change        0.8239857E-05 Eh
 * total energy  :  -126.8382543 Eh     change       -0.1303234E-04 Eh
 * total energy  :  -126.8382590 Eh     change       -0.4742935E-05 Eh
 * total energy  :  -126.8382624 Eh     change       -0.3426350E-05 Eh
 * total energy  :  -126.8382673 Eh     change       -0.4849007E-05 Eh
   *** GEOMETRY OPTIMIZATION CONVERGED AFTER 43 ITERATIONS ***

 final structure:
================
74
 xtb: 6.3.3 (4ae9cef)
C         3.97638550590699   -1.04134048094351    2.67165666876545
C         3.45402961248857   -0.20559327114191    3.61697009126447
C         2.26937877159059    0.49465411848658    3.34882498583323
C         1.64043613755209    0.35902661570522    2.14267009780282
C         2.15613620972758   -0.48472310409312    1.13565765149930
C         3.34699933250202   -1.20920537560330    1.42020792265510
C         3.88157271833671   -2.08492668564223    0.45381147725194
C         3.26052328649021   -2.24863808679015   -0.75014780709786
C         2.10079752660897   -1.52196099042370   -1.04228701612490
C         1.55284444534069   -0.64218437906927   -0.14079792355207
C         0.30131098555372    0.08250727299638   -0.55925718333772
C        -0.97969686096351   -0.42303922862860    0.13963610100748
C        -1.52262950510199   -1.63082072137983   -0.57886359027684
C        -2.33732920461175   -1.45442895888489   -1.66871403912868
C        -2.83594618442681   -2.54414175157726   -2.39194212267154
C        -2.49108312030604   -3.81501281899804   -2.03313982286424
C        -1.62953572770336   -4.04254027847417   -0.94086344465250
C        -1.13087908196740   -2.94024769209276   -0.19167536117156
C        -0.25977729219759   -3.21615285627291    0.88565792293494
C         0.09989079438727   -4.49753404124421    1.19701145373444
C        -0.39601772731324   -5.58007922232769    0.45716116184663
C        -1.24611104880866   -5.35344876618077   -0.58658617615771
N        -1.85683758277237    0.74254925038011    0.05517269579966
C        -3.13539802292951    0.65326639878891    0.55173876809155
C        -3.94974110004035    1.89915444767960    0.44071822221406
C        -4.71722561274882    2.29162582092530    1.53271862565499
C        -5.51256602453522    3.41659491696508    1.45579728452241
C        -5.56284790634377    4.14696743130103    0.26746458911511
C        -6.37501961464022    5.30181290072664    0.18143892079907
N        -7.03050119206871    6.23931667596251    0.11140996068499
C        -4.82134403843210    3.73672524169669   -0.84121859413998
C        -4.01828595593023    2.61762502945113   -0.74983118218192
O        -3.59113753294182   -0.38833674724318    0.96376397511493
C        -1.05252621277907    1.93478586215267    0.11708599613356
C        -1.01984394333628    2.50901210710452    1.55260708144318
O        -0.06453197615465    3.41021452750478    1.70822339551505
O        -1.79724684270165    2.18635594373370    2.40819518798650
N         0.26255306507721    1.52485189348118   -0.33231193661795
C         1.08385762553203    2.43155853440318   -0.93444414628752
C         2.38402421165871    1.83785465528579   -1.38231534700132
C         2.53531953936001    1.35394415909979   -2.67571635930657
C         3.72112003753817    0.75715035544804   -3.05670648056710
C         4.76569447602742    0.64989855642101   -2.13918446449731
C         5.96391058681710   -0.00525253665587   -2.50694961320456
N         6.93028058611463   -0.54732632543223   -2.79968394476121
C         4.63148235926089    1.17872085467146   -0.85538152331087
C         3.44381490324250    1.77431524047140   -0.48403857177032
O         0.79114269415096    3.60016071505904   -1.04772765194297
H         4.88395085351175   -1.59391384944337    2.86711782908396
H         3.94177056071783   -0.08225530216721    4.57214653925659
H         1.85246524754111    1.14249789033481    4.10583321543520
H         0.73042851314192    0.90480477906694    1.96013698065578
H         4.78737799243386   -2.62508932702005    0.68587094236204
H         3.66056759212204   -2.92537354459317   -1.48931059136640
H         1.63116919006788   -1.65904452310976   -2.00590798636769
H         0.16929228332804   -0.09241473496489   -1.63905720065480
H        -0.79550700350907   -0.65812271372724    1.19364922042017
H        -2.61710392339987   -0.45570489193734   -1.97131014021373
H        -3.49102757209862   -2.36630535018241   -3.23167700410037
H        -2.86740628213129   -4.66552125275568   -2.58295940321845
H         0.14138093237335   -2.41123814288401    1.48056265965257
H         0.77116891650173   -4.68113367602611    2.02300847581623
H        -0.10373344730528   -6.58588484594536    0.72046351079790
H        -1.63945234106727   -6.17750864589003   -1.16484562093664
H        -4.66720932857277    1.70933410360203    2.43891056589918
H        -6.10117944355716    3.73479476857105    2.30323442608945
H        -4.88197378684257    4.29706327246281   -1.76248982300928
H        -3.46168983409228    2.28791491163359   -1.61538402009750
H        -1.42358144901914    2.75061552720488   -0.52402606471658
H        -0.08537757714007    3.80306810585694    2.59694268759224
H         1.72185342576635    1.43818596944363   -3.38120077581930
H         3.84385493262870    0.36527267691397   -4.05548062227934
H         5.45312677521420    1.10969486059179   -0.15845897126783
H         3.32739267388729    2.18255172816806    0.50841723594549

          :  Hamiltonian                  GFN2-xTB          :
         :: total energy            -126.838267295862 Eh    ::
         :: gradient norm              0.000609821794 Eh/a0 ::
         :: HOMO-LUMO gap              2.572773789517 eV    ::
         :: SCC energy              -128.994720687207 Eh    ::
         :: -> dispersion             -0.118707864978 Eh    ::
         :: repulsion energy           2.152147466474 Eh    ::

    * Orbital Energies and Occupations

         #    Occupation            Energy/Eh            Energy/eV
      -------------------------------------------------------------
         1        2.0000           -0.7844655             -21.3464
       ...           ...                  ...                  ...
       103        2.0000           -0.4348106             -11.8318
       104        2.0000           -0.4321298             -11.7589
       105        2.0000           -0.4294213             -11.6851
       106        2.0000           -0.4283586             -11.6562
       107        2.0000           -0.4279547             -11.6452
       108        2.0000           -0.4241574             -11.5419
       109        2.0000           -0.4200726             -11.4308
       110        2.0000           -0.4173774             -11.3574
       111        2.0000           -0.4116028             -11.2003
       112        2.0000           -0.4105702             -11.1722
       113        2.0000           -0.4077120             -11.0944
       114        2.0000           -0.4023097             -10.9474
       115        2.0000           -0.3863036             -10.5119 (HOMO)
       116                         -0.2917559              -7.9391 (LUMO)
       117                         -0.2894365              -7.8760
       118                         -0.2849335              -7.7534
       119                         -0.2736475              -7.4463
       120                         -0.2703540              -7.3567
       121                         -0.2625503              -7.1444
       122                         -0.2531801              -6.8894
       123                         -0.2519775              -6.8567
       124                         -0.2420320              -6.5860
       125                         -0.2383741              -6.4865
       126                         -0.2309568              -6.2847
       ...                                ...                  ...
       218                          1.1658614              31.7247
      -------------------------------------------------------------
                  HL-Gap            0.0945477 Eh            2.5728 eV

     #   Z          covCN         q      C6AA      Î±(0)
     1   6 C        2.921    -0.032    28.802     8.801
     2   6 C        2.915    -0.027    28.687     8.783
     3   6 C        2.916    -0.027    28.682     8.782
     4   6 C        2.918    -0.035    28.868     8.811
     5   6 C        2.984     0.009    27.802     8.649
     6   6 C        2.988     0.015    27.680     8.630
     7   6 C        2.921    -0.034    28.851     8.808
     8   6 C        2.914    -0.029    28.725     8.789
     9   6 C        2.926    -0.035    28.878     8.813
    10   6 C        2.965    -0.009    28.240     8.717
    11   6 C        3.829     0.043    19.830     6.336
    12   6 C        3.837     0.053    19.656     6.307
    13   6 C        2.969     0.005    27.916     8.667
    14   6 C        2.922    -0.029    28.736     8.791
    15   6 C        2.914    -0.028    28.712     8.787
    16   6 C        2.921    -0.034    28.851     8.808
    17   6 C        2.989     0.017    27.622     8.621
    18   6 C        2.984     0.011    27.768     8.644
    19   6 C        2.917    -0.034    28.850     8.808
    20   6 C        2.917    -0.028    28.696     8.784
    21   6 C        2.915    -0.028    28.706     8.786
    22   6 C        2.921    -0.033    28.821     8.804
    23   7 N        2.762    -0.136    23.951     7.269
    24   6 C        2.765     0.282    22.225     7.721
    25   6 C        2.975    -0.007    28.199     8.711
    26   6 C        2.923    -0.012    28.306     8.725
    27   6 C        2.925    -0.017    28.434     8.745
    28   6 C        2.974     0.024    27.470     8.597
    29   6 C        1.912     0.113    28.302     8.592
    30   7 N        0.911    -0.224    25.901     7.361
    31   6 C        2.926    -0.019    28.492     8.754
    32   6 C        2.921    -0.030    28.740     8.791
    33   8 O        0.859    -0.398    21.645     6.238
    34   6 C        3.774     0.098    18.995     6.210
    35   6 C        2.687     0.352    21.031     7.505
    36   8 O        1.659    -0.346    19.827     6.011
    37   8 O        0.856    -0.394    21.553     6.224
    38   7 N        2.760    -0.125    23.715     7.233
    39   6 C        2.765     0.275    22.348     7.742
    40   6 C        2.979    -0.003    28.098     8.695
    41   6 C        2.921    -0.023    28.570     8.765
    42   6 C        2.927    -0.018    28.454     8.748
    43   6 C        2.974     0.023    27.485     8.600
    44   6 C        1.912     0.113    28.304     8.592
    45   7 N        0.911    -0.222    25.859     7.355
    46   6 C        2.927    -0.017    28.425     8.743
    47   6 C        2.923    -0.019    28.476     8.751
    48   8 O        0.858    -0.407    21.821     6.263
    49   1 H        0.926     0.040     2.445     2.445
    50   1 H        0.926     0.039     2.460     2.453
    51   1 H        0.926     0.035     2.518     2.482
    52   1 H        0.926     0.027     2.625     2.533
    53   1 H        0.926     0.045     2.387     2.416
    54   1 H        0.926     0.042     2.419     2.432
    55   1 H        0.926     0.029     2.602     2.522
    56   1 H        0.923     0.041     2.432     2.439
    57   1 H        0.924     0.056     2.250     2.346
    58   1 H        0.926     0.029     2.601     2.522
    59   1 H        0.926     0.038     2.481     2.463
    60   1 H        0.926     0.039     2.458     2.452
    61   1 H        0.926     0.025     2.655     2.548
    62   1 H        0.926     0.033     2.548     2.496
    63   1 H        0.926     0.036     2.506     2.475
    64   1 H        0.926     0.038     2.482     2.464
    65   1 H        0.926     0.070     2.090     2.261
    66   1 H        0.926     0.053     2.281     2.362
    67   1 H        0.926     0.050     2.317     2.381
    68   1 H        0.926     0.038     2.477     2.461
    69   1 H        0.923     0.086     1.922     2.168
    70   1 H        0.804     0.346     0.598     1.215
    71   1 H        0.926     0.045     2.386     2.415
    72   1 H        0.926     0.053     2.288     2.366
    73   1 H        0.926     0.050     2.316     2.380
    74   1 H        0.926     0.047     2.358     2.401

Wiberg/Mayer (AO) data.
largest (>0.10) Wiberg bond orders for each atom

     #   Z sym  total        # sym  WBO       # sym  WBO       # sym  WBO
 ---------------------------------------------------------------------------
     1   6 C    3.991 --     2 C    1.556     6 C    1.281    49 H    0.968
                             4 C    0.118
     2   6 C    3.991 --     1 C    1.556     3 C    1.323    50 H    0.970
     3   6 C    3.992 --     4 C    1.553     2 C    1.323    51 H    0.971
     4   6 C    3.992 --     3 C    1.553     5 C    1.284    52 H    0.958
                             1 C    0.118
     5   6 C    3.989 --     4 C    1.284    10 C    1.251     6 C    1.251
     6   6 C    3.990 --     1 C    1.281     7 C    1.279     5 C    1.251
     7   6 C    3.989 --     8 C    1.551     6 C    1.279    53 H    0.967
                            10 C    0.115
     8   6 C    3.991 --     7 C    1.551     9 C    1.329    54 H    0.970
     9   6 C    3.990 --    10 C    1.518     8 C    1.329    55 H    0.967
    10   6 C    3.984 --     9 C    1.518     5 C    1.251    11 C    0.995
                             7 C    0.115
    11   6 C    3.963 --    10 C    0.995    56 H    0.953    38 N    0.952
                            12 C    0.948
    12   6 C    3.963 --    13 C    0.993    23 N    0.958    11 C    0.948
                            57 H    0.946
    13   6 C    3.983 --    14 C    1.522    18 C    1.254    12 C    0.993
                            16 C    0.115
    14   6 C    3.991 --    13 C    1.522    15 C    1.328    58 H    0.967
    15   6 C    3.992 --    16 C    1.552    14 C    1.328    59 H    0.970
    16   6 C    3.990 --    15 C    1.552    17 C    1.280    60 H    0.968
                            13 C    0.115
    17   6 C    3.990 --    16 C    1.280    22 C    1.279    18 C    1.252
    18   6 C    3.989 --    19 C    1.283    13 C    1.254    17 C    1.252
    19   6 C    3.992 --    20 C    1.555    18 C    1.283    61 H    0.962
                            22 C    0.118
    20   6 C    3.992 --    19 C    1.555    21 C    1.322    62 H    0.971
    21   6 C    3.992 --    22 C    1.558    20 C    1.322    63 H    0.971
    22   6 C    3.991 --    21 C    1.558    17 C    1.279    64 H    0.968
                            19 C    0.118
    23   7 N    3.404 --    24 C    1.158    34 C    0.996    12 C    0.958
                            33 O    0.175
    24   6 C    3.944 --    33 O    1.722    23 N    1.158    25 C    0.974
    25   6 C    3.962 --    26 C    1.394    32 C    1.392    24 C    0.974
    26   6 C    3.987 --    27 C    1.460    25 C    1.394    65 H    0.965
                            31 C    0.104
    27   6 C    3.990 --    26 C    1.460    28 C    1.361    66 H    0.969
                            32 C    0.103
    28   6 C    3.990 --    27 C    1.361    31 C    1.359    29 C    1.093
    29   6 C    3.947 --    30 N    2.808    28 C    1.093
    30   7 N    2.979 --    29 C    2.808
    31   6 C    3.991 --    32 C    1.461    28 C    1.359    67 H    0.969
                            26 C    0.104
    32   6 C    3.992 --    31 C    1.461    25 C    1.392    68 H    0.966
                            27 C    0.103
    33   8 O    2.042 --    24 C    1.722    23 N    0.175
    34   6 C    3.970 --    23 N    0.996    38 N    0.979    69 H    0.923
                            35 C    0.909
    35   6 C    3.918 --    37 O    1.764    36 O    1.172    34 C    0.909
    36   8 O    2.239 --    35 C    1.172    70 H    0.854    37 O    0.183
    37   8 O    2.062 --    35 C    1.764    36 O    0.183
    38   7 N    3.441 --    39 C    1.196    34 C    0.979    11 C    0.952
                            48 O    0.189
    39   6 C    3.946 --    48 O    1.713    38 N    1.196    40 C    0.954
    40   6 C    3.962 --    41 C    1.404    47 C    1.395    39 C    0.954
    41   6 C    3.991 --    42 C    1.454    40 C    1.404    71 H    0.968
                            46 C    0.104
    42   6 C    3.990 --    41 C    1.454    43 C    1.363    72 H    0.969
                            47 C    0.106
    43   6 C    3.990 --    42 C    1.363    46 C    1.360    44 C    1.093
    44   6 C    3.948 --    45 N    2.809    43 C    1.093
    45   7 N    2.981 --    44 C    2.809
    46   6 C    3.990 --    47 C    1.459    43 C    1.360    73 H    0.969
                            41 C    0.104
    47   6 C    3.991 --    46 C    1.459    40 C    1.395    74 H    0.967
                            42 C    0.106
    48   8 O    2.037 --    39 C    1.713    38 N    0.189
    49   1 H    0.998 --     1 C    0.968
    50   1 H    0.998 --     2 C    0.970
    51   1 H    0.998 --     3 C    0.971
    52   1 H    0.999 --     4 C    0.958
    53   1 H    0.997 --     7 C    0.967
    54   1 H    0.997 --     8 C    0.970
    55   1 H    0.999 --     9 C    0.967
    56   1 H    0.998 --    11 C    0.953
    57   1 H    0.996 --    12 C    0.946
    58   1 H    0.999 --    14 C    0.967
    59   1 H    0.998 --    15 C    0.970
    60   1 H    0.997 --    16 C    0.968
    61   1 H    0.999 --    19 C    0.962
    62   1 H    0.998 --    20 C    0.971
    63   1 H    0.998 --    21 C    0.971
    64   1 H    0.998 --    22 C    0.968
    65   1 H    0.994 --    26 C    0.965
    66   1 H    0.997 --    27 C    0.969
    67   1 H    0.997 --    31 C    0.969
    68   1 H    0.997 --    32 C    0.966
    69   1 H    0.992 --    34 C    0.923
    70   1 H    0.880 --    36 O    0.854
    71   1 H    0.997 --    41 C    0.968
    72   1 H    0.996 --    42 C    0.969
    73   1 H    0.997 --    46 C    0.969
    74   1 H    0.997 --    47 C    0.967
 ---------------------------------------------------------------------------

molecular dipole:
                 x           y           z       tot (Debye)
 q only:        1.329      -1.219       0.168
   full:        1.264      -1.115       0.390       4.397

           -------------------------------------------------
          | TOTAL ENERGY             -126.838267295862 Eh   |
          | GRADIENT NORM               0.000609821794 Eh/Î± |
          | HOMO-LUMO GAP               2.572773789517 eV   |
           -------------------------------------------------

 * finished run on 2022/03/16 at 23:49:54.267
