   * xtb version 6.3.3 (4ae9cef) compiled by 'conda@95abc7406d43' on 2020-10-14
          program call               : xtb acid_398.xyz --opt --chrg 0 --uhf 0 --gfn 2
          number of atoms            :                    68
          number of electrons        :                   242
          charge                     :                     0
          spin                       :                   0.0

   ID    Z sym.   atoms
    1    6 C      1, 2, 6-15, 19-22, 24-30, 32, 34, 35, 39-43, 45-47
    2    9 F      3-5, 16-18
    3    7 N      23, 31, 38, 44
    4    8 O      33, 36, 37, 48
    5    1 H      49-68

          :  Hamiltonian                  GFN2-xTB          :
 * total energy  :  -139.3202171 Eh     change       -0.8015803E-08 Eh
 * total energy  :  -139.3369525 Eh     change       -0.1673546E-01 Eh
 * total energy  :  -139.3421263 Eh     change       -0.5173803E-02 Eh
 * total energy  :  -139.3437799 Eh     change       -0.1653531E-02 Eh
 * total energy  :  -139.3446661 Eh     change       -0.8862591E-03 Eh
 * total energy  :  -139.3452542 Eh     change       -0.5881261E-03 Eh
 * total energy  :  -139.3457248 Eh     change       -0.4705146E-03 Eh
 * total energy  :  -139.3464660 Eh     change       -0.7412656E-03 Eh
 * total energy  :  -139.3469795 Eh     change       -0.5134812E-03 Eh
 * total energy  :  -139.3475042 Eh     change       -0.5246999E-03 Eh
 * total energy  :  -139.3493636 Eh     change       -0.1903764E-04 Eh
 * total energy  :  -139.3493807 Eh     change       -0.1714906E-04 Eh
 * total energy  :  -139.3493982 Eh     change       -0.1747688E-04 Eh
 * total energy  :  -139.3494250 Eh     change       -0.2676579E-04 Eh
 * total energy  :  -139.3494423 Eh     change       -0.1728032E-04 Eh
 * total energy  :  -139.3494535 Eh     change       -0.1118845E-04 Eh
 * total energy  :  -139.3494619 Eh     change       -0.8449859E-05 Eh
 * total energy  :  -139.3494675 Eh     change       -0.5572091E-05 Eh
 * total energy  :  -139.3494713 Eh     change       -0.3860882E-05 Eh
   *** GEOMETRY OPTIMIZATION CONVERGED AFTER 36 ITERATIONS ***

 final structure:
================
68
 xtb: 6.3.3 (4ae9cef)
C         2.66295948772056   -1.83685466109768   -2.39699038344513
C         1.71559459542977   -2.00827667158900   -3.55207140242540
F         0.63579942877419   -2.75402289773624   -3.22175864901597
F         2.27280000921207   -2.62566282018731   -4.60008485826125
F         1.22389286818940   -0.85022905717738   -4.02578038092570
C         3.96154470918333   -2.31336190545489   -2.52706480105867
C         4.85557485672515   -2.19582931050138   -1.48050528733361
C         4.45187056697459   -1.60659577365483   -0.29559814044834
C         3.16052135938296   -1.13512743037500   -0.16554243198638
C         2.24863196683095   -1.23331172198489   -1.21012216599440
C         0.85174505193750   -0.71141545224593   -0.99808943115446
C         0.05888711163624   -1.55099649615055    0.02631164131210
C        -0.83091343985814   -2.57762988253556   -0.62708484344642
C        -0.59417422228948   -3.94959898886237   -0.53532876168916
C         0.59339126088322   -4.48649310217597    0.21303573136531
F         1.76620847145800   -4.03236653950395   -0.29231184276060
F         0.68041140803619   -5.82015785337065    0.17809852580825
F         0.61506381904876   -4.15051757773191    1.51604634326300
C        -1.44464366764262   -4.85234147245494   -1.16158369570722
C        -2.53298685046111   -4.39924849961757   -1.88194367055988
C        -2.76922531178891   -3.04016871254388   -1.98673970750026
C        -1.92328002648333   -2.14053240122946   -1.36720982153208
N        -0.71691234540201   -0.54444734451002    0.74606346648461
C        -1.75617695052967   -0.86709828583800    1.56298303401322
C        -2.42195281464842    0.33661510846552    2.16500950049852
C        -1.86657240541084    0.97775460001826    3.26785138506107
C        -2.48390566510107    2.09230219123932    3.81113326270692
C        -3.65340178363851    2.57864446344313    3.25758102845864
C        -4.21959289442421    1.92748950841723    2.16161883896697
C        -5.40724699086846    2.43065288648293    1.57868783468822
N        -6.35290046324988    2.85758306966981    1.09260217078361
C        -3.60863922043662    0.79745483069382    1.61811557708585
O        -2.10505260855070   -2.00419780952798    1.76937991357082
C        -0.26696716462801    0.79774795801670    0.47725128442740
C        -1.35510444867450    1.60869531550143   -0.26227724278740
O        -1.49510089887338    2.82633772056857    0.25563695717239
O        -1.97272140140821    1.20270688986104   -1.20395495667294
N         0.87954243873502    0.61396518541794   -0.38051191352578
C         1.66007901704731    1.60948889102499   -0.89693362660632
C         1.51648466011445    2.93872079896206   -0.22427363481718
C         1.77839487465096    3.09160790080345    1.12862279195917
C         1.64848727811351    4.34816901431525    1.71723539709982
C         1.88214070876499    4.49041371338162    3.10580717869750
N         2.05322060933727    4.59012470767662    4.23451946248611
C         1.27245524135316    5.45117776079736    0.95075962673163
C         1.04702625452141    5.29358789627589   -0.40370665648994
C         1.17237936925767    4.04611779125968   -0.99256844585992
O         2.42821255963572    1.42029272123015   -1.81114445830606
H         4.26845376398809   -2.77641167761933   -3.45168923683000
H         5.86244550120263   -2.56622280750073   -1.59123143160141
H         5.14218148298567   -1.51566493334851    0.52899885925704
H         2.85051705572097   -0.67375603468296    0.76053834955233
H         0.29268409779401   -0.65306326680627   -1.93768408858495
H         0.75038062090266   -2.01859356855126    0.73476674643268
H        -1.25065769912845   -5.91046718140909   -1.08158802440726
H        -3.19026872762081   -5.10752407462524   -2.36136085701182
H        -3.61281972009561   -2.67677912141371   -2.55326729505529
H        -2.11496766280518   -1.08157858460374   -1.45480891568331
H        -0.95720761054671    0.59470814258366    3.70723142259301
H        -2.04771253098937    2.58501695084981    4.66629280558306
H        -4.13694085430378    3.45259067980177    3.66744146753200
H        -4.05466023177464    0.29051164914610    0.77500942685219
H        -0.00675162062242    1.34126610502734    1.39610816842569
H        -2.16386984755112    3.33927329609080   -0.23027269569236
H         2.10308730105015    2.25306190506536    1.72841087302444
H         1.17143828360115    6.41798512995224    1.42045342005277
H         0.77440171523004    6.14706287302908   -1.00539374037488
H         1.00441927438506    3.91741726354216   -2.05112799639573

          :  Hamiltonian                  GFN2-xTB          :
         :: total energy            -139.349471347437 Eh    ::
         :: gradient norm              0.000630021997 Eh/a0 ::
         :: HOMO-LUMO gap              3.149047744176 eV    ::
         :: SCC energy              -141.182616833410 Eh    ::
         :: -> dispersion             -0.103271071446 Eh    ::
         :: repulsion energy           1.829282925821 Eh    ::

    * Orbital Energies and Occupations

         #    Occupation            Energy/Eh            Energy/eV
      -------------------------------------------------------------
         1        2.0000           -0.8804475             -23.9582
       ...           ...                  ...                  ...
       109        2.0000           -0.4513450             -12.2817
       110        2.0000           -0.4496352             -12.2352
       111        2.0000           -0.4471371             -12.1672
       112        2.0000           -0.4462333             -12.1426
       113        2.0000           -0.4436786             -12.0731
       114        2.0000           -0.4425570             -12.0426
       115        2.0000           -0.4411096             -12.0032
       116        2.0000           -0.4395473             -11.9607
       117        2.0000           -0.4360688             -11.8660
       118        2.0000           -0.4357921             -11.8585
       119        2.0000           -0.4252923             -11.5728
       120        2.0000           -0.4217317             -11.4759
       121        2.0000           -0.4182928             -11.3823 (HOMO)
       122                         -0.3025674              -8.2333 (LUMO)
       123                         -0.3012102              -8.1963
       124                         -0.2931368              -7.9767
       125                         -0.2847761              -7.7492
       126                         -0.2727831              -7.4228
       127                         -0.2694426              -7.3319
       128                         -0.2638104              -7.1786
       129                         -0.2593519              -7.0573
       130                         -0.2538829              -6.9085
       131                         -0.2445583              -6.6548
       132                         -0.2413500              -6.5675
       ...                                ...                  ...
       212                          1.1508886              31.3173
      -------------------------------------------------------------
                  HL-Gap            0.1157254 Eh            3.1490 eV

     #   Z          covCN         q      C6AA      Î±(0)
     1   6 C        2.977    -0.022    28.542     8.763
     2   6 C        3.335     0.486    17.294     6.587
     3   9 F        0.791    -0.222    11.464     4.000
     4   9 F        0.792    -0.198    11.219     3.957
     5   9 F        0.791    -0.204    11.277     3.967
     6   6 C        2.923    -0.017    28.442     8.746
     7   6 C        2.921    -0.019    28.476     8.751
     8   6 C        2.919    -0.015    28.381     8.736
     9   6 C        2.928    -0.022    28.543     8.762
    10   6 C        2.972     0.026    27.429     8.591
    11   6 C        3.828     0.048    19.753     6.324
    12   6 C        3.821     0.047    19.775     6.328
    13   6 C        2.972     0.023    27.494     8.601
    14   6 C        2.976    -0.024    28.598     8.772
    15   6 C        3.335     0.485    17.303     6.589
    16   9 F        0.791    -0.226    11.502     4.006
    17   9 F        0.792    -0.198    11.213     3.956
    18   9 F        0.791    -0.207    11.303     3.971
    19   6 C        2.923    -0.018    28.469     8.750
    20   6 C        2.920    -0.019    28.483     8.752
    21   6 C        2.919    -0.014    28.363     8.733
    22   6 C        2.926    -0.026    28.648     8.778
    23   7 N        2.768    -0.115    23.512     7.202
    24   6 C        2.761     0.273    22.391     7.749
    25   6 C        2.977    -0.017    28.420     8.745
    26   6 C        2.921    -0.022    28.566     8.765
    27   6 C        2.918    -0.022    28.545     8.761
    28   6 C        2.926    -0.018    28.468     8.750
    29   6 C        2.974     0.024    27.476     8.598
    30   6 C        1.912     0.112    28.338     8.597
    31   7 N        0.911    -0.217    25.731     7.336
    32   6 C        2.930    -0.019    28.472     8.751
    33   8 O        0.858    -0.395    21.584     6.229
    34   6 C        3.755     0.088    19.176     6.244
    35   6 C        2.688     0.347    21.098     7.517
    36   8 O        1.659    -0.373    20.329     6.087
    37   8 O        0.856    -0.371    21.108     6.160
    38   7 N        2.767    -0.119    23.587     7.213
    39   6 C        2.762     0.271    22.421     7.754
    40   6 C        2.974    -0.013    28.344     8.733
    41   6 C        2.930    -0.022    28.555     8.763
    42   6 C        2.974     0.025    27.431     8.591
    43   6 C        1.912     0.112    28.331     8.596
    44   7 N        0.911    -0.218    25.762     7.341
    45   6 C        2.926    -0.017    28.426     8.743
    46   6 C        2.918    -0.022    28.546     8.761
    47   6 C        2.924    -0.015    28.384     8.737
    48   8 O        0.859    -0.396    21.606     6.232
    49   1 H        0.926     0.071     2.070     2.250
    50   1 H        0.926     0.061     2.182     2.310
    51   1 H        0.926     0.059     2.213     2.326
    52   1 H        0.926     0.046     2.375     2.410
    53   1 H        0.924     0.072     2.068     2.249
    54   1 H        0.924     0.068     2.105     2.269
    55   1 H        0.926     0.069     2.097     2.265
    56   1 H        0.926     0.060     2.200     2.320
    57   1 H        0.926     0.060     2.201     2.320
    58   1 H        0.926     0.068     2.108     2.270
    59   1 H        0.926     0.047     2.359     2.402
    60   1 H        0.926     0.057     2.239     2.340
    61   1 H        0.926     0.054     2.265     2.353
    62   1 H        0.926     0.055     2.262     2.352
    63   1 H        0.923     0.068     2.108     2.270
    64   1 H        0.804     0.350     0.589     1.206
    65   1 H        0.926     0.043     2.413     2.429
    66   1 H        0.926     0.055     2.258     2.350
    67   1 H        0.926     0.055     2.263     2.353
    68   1 H        0.926     0.058     2.219     2.329

Wiberg/Mayer (AO) data.
largest (>0.10) Wiberg bond orders for each atom

     #   Z sym  total        # sym  WBO       # sym  WBO       # sym  WBO
 ---------------------------------------------------------------------------
     1   6 C    3.971 --     6 C    1.413    10 C    1.387     2 C    0.952
                             8 C    0.105
     2   6 C    3.823 --     4 F    0.958     1 C    0.952     5 F    0.946
                             3 F    0.929
     3   9 F    1.057 --     2 C    0.929
     4   9 F    1.080 --     2 C    0.958
     5   9 F    1.076 --     2 C    0.946
     6   6 C    3.986 --     7 C    1.444     1 C    1.413    49 H    0.965
                             9 C    0.109
     7   6 C    3.988 --     6 C    1.444     8 C    1.432    50 H    0.968
                            10 C    0.109
     8   6 C    3.990 --     9 C    1.449     7 C    1.432    51 H    0.969
                             1 C    0.105
     9   6 C    3.990 --     8 C    1.449    10 C    1.408    52 H    0.967
                             6 C    0.109
    10   6 C    3.986 --     9 C    1.408     1 C    1.387    11 C    0.995
                             7 C    0.109
    11   6 C    3.962 --    10 C    0.995    12 C    0.952    38 N    0.951
                            53 H    0.951
    12   6 C    3.962 --    13 C    0.994    11 C    0.952    54 H    0.951
                            23 N    0.951
    13   6 C    3.986 --    22 C    1.411    14 C    1.385    12 C    0.994
                            20 C    0.108
    14   6 C    3.969 --    19 C    1.413    13 C    1.385    15 C    0.952
                            21 C    0.105
    15   6 C    3.820 --    17 F    0.959    14 C    0.952    18 F    0.943
                            16 F    0.926
    16   9 F    1.053 --    15 C    0.926
    17   9 F    1.082 --    15 C    0.959
    18   9 F    1.074 --    15 C    0.943
    19   6 C    3.987 --    20 C    1.443    14 C    1.413    55 H    0.965
                            22 C    0.109
    20   6 C    3.988 --    19 C    1.443    21 C    1.434    56 H    0.968
                            13 C    0.108
    21   6 C    3.989 --    22 C    1.446    20 C    1.434    57 H    0.969
                            14 C    0.105
    22   6 C    3.987 --    21 C    1.446    13 C    1.411    58 H    0.959
                            19 C    0.109
    23   7 N    3.457 --    24 C    1.198    34 C    0.990    12 C    0.951
                            33 O    0.195
    24   6 C    3.946 --    33 O    1.720    23 N    1.198    25 C    0.948
    25   6 C    3.987 --    32 C    1.422    26 C    1.397    24 C    0.948
                            28 C    0.104
    26   6 C    3.965 --    27 C    1.437    25 C    1.397    59 H    0.969
                            29 C    0.101
    27   6 C    3.990 --    28 C    1.449    26 C    1.437    60 H    0.967
                            32 C    0.106
    28   6 C    3.990 --    27 C    1.449    29 C    1.365    61 H    0.969
                            25 C    0.104
    29   6 C    3.990 --    28 C    1.365    32 C    1.363    30 C    1.090
                            26 C    0.101
    30   6 C    3.948 --    31 N    2.812    29 C    1.090
    31   7 N    2.984 --    30 C    2.812
    32   6 C    3.989 --    25 C    1.422    29 C    1.363    62 H    0.968
                            27 C    0.106
    33   8 O    2.051 --    24 C    1.720    23 N    0.195
    34   6 C    3.971 --    23 N    0.990    38 N    0.983    63 H    0.942
                            35 C    0.904
    35   6 C    3.919 --    37 O    1.786    36 O    1.151    34 C    0.904
    36   8 O    2.213 --    35 C    1.151    64 H    0.851    37 O    0.183
    37   8 O    2.079 --    35 C    1.786    36 O    0.183
    38   7 N    3.445 --    39 C    1.184    34 C    0.983    11 C    0.951
                            48 O    0.187
    39   6 C    3.945 --    48 O    1.716    38 N    1.184    40 C    0.963
    40   6 C    3.987 --    41 C    1.416    47 C    1.398    39 C    0.963
                            45 C    0.103
    41   6 C    3.991 --    40 C    1.416    42 C    1.367    65 H    0.967
                            46 C    0.105
    42   6 C    3.990 --    41 C    1.367    45 C    1.361    43 C    1.090
    43   6 C    3.948 --    44 N    2.812    42 C    1.090
    44   7 N    2.983 --    43 C    2.812
    45   6 C    3.990 --    46 C    1.453    42 C    1.361    66 H    0.969
                            40 C    0.103
    46   6 C    3.990 --    45 C    1.453    47 C    1.435    67 H    0.968
                            41 C    0.105
    47   6 C    3.964 --    46 C    1.435    40 C    1.398    68 H    0.968
    48   8 O    2.050 --    39 C    1.716    38 N    0.187
    49   1 H    0.994 --     6 C    0.965
    50   1 H    0.995 --     7 C    0.968
    51   1 H    0.996 --     8 C    0.969
    52   1 H    0.998 --     9 C    0.967
    53   1 H    0.994 --    11 C    0.951
    54   1 H    0.995 --    12 C    0.951
    55   1 H    0.995 --    19 C    0.965
    56   1 H    0.995 --    20 C    0.968
    57   1 H    0.996 --    21 C    0.969
    58   1 H    0.995 --    22 C    0.959
    59   1 H    0.998 --    26 C    0.969
    60   1 H    0.995 --    27 C    0.967
    61   1 H    0.997 --    28 C    0.969
    62   1 H    0.997 --    32 C    0.968
    63   1 H    0.995 --    34 C    0.942
    64   1 H    0.877 --    36 O    0.851
    65   1 H    0.998 --    41 C    0.967
    66   1 H    0.996 --    45 C    0.969
    67   1 H    0.995 --    46 C    0.968
    68   1 H    0.997 --    47 C    0.968
 ---------------------------------------------------------------------------

molecular dipole:
                 x           y           z       tot (Debye)
 q only:        0.363       1.519       0.342
   full:        0.532       1.707       0.231       4.582

           -------------------------------------------------
          | TOTAL ENERGY             -139.349471347437 Eh   |
          | GRADIENT NORM               0.000630021997 Eh/Î± |
          | HOMO-LUMO GAP               3.149047744176 eV   |
           -------------------------------------------------

 * finished run on 2022/03/17 at 00:43:12.815
