   * xtb version 6.3.3 (4ae9cef) compiled by 'conda@95abc7406d43' on 2020-10-14
          program call               : xtb acid_259.xyz --opt --chrg 0 --uhf 0 --gfn 2
          number of atoms            :                    74
          number of electrons        :                   250
          charge                     :                     0
          spin                       :                   0.0

   ID    Z sym.   atoms
    1    6 C      1, 3-16, 18, 20-25, 29, 30, 32, 33, 37-42, 46, 47
    2    8 O      2, 17, 31, 34, 35, 48
    3    7 N      19, 36
    4    9 F      26-28, 43-45
    5    1 H      49-74

          :  Hamiltonian                  GFN2-xTB          :
 * total energy  :  -144.7359347 Eh     change       -0.1082924E-08 Eh
 * total energy  :  -144.7513985 Eh     change       -0.1546382E-01 Eh
 * total energy  :  -144.7564163 Eh     change       -0.5017787E-02 Eh
 * total energy  :  -144.7588023 Eh     change       -0.2386052E-02 Eh
 * total energy  :  -144.7605552 Eh     change       -0.1752834E-02 Eh
 * total energy  :  -144.7618875 Eh     change       -0.1332339E-02 Eh
 * total energy  :  -144.7625748 Eh     change       -0.6873430E-03 Eh
 * total energy  :  -144.7632277 Eh     change       -0.6528174E-03 Eh
 * total energy  :  -144.7637879 Eh     change       -0.5602250E-03 Eh
 * total energy  :  -144.7642188 Eh     change       -0.4308843E-03 Eh
 * total energy  :  -144.7711751 Eh     change       -0.1707290E-04 Eh
 * total energy  :  -144.7711912 Eh     change       -0.1617733E-04 Eh
 * total energy  :  -144.7712025 Eh     change       -0.1124473E-04 Eh
 * total energy  :  -144.7712119 Eh     change       -0.9393133E-05 Eh
 * total energy  :  -144.7712224 Eh     change       -0.1052862E-04 Eh
 * total energy  :  -144.7712369 Eh     change       -0.1448106E-04 Eh
 * total energy  :  -144.7712525 Eh     change       -0.1556851E-04 Eh
 * total energy  :  -144.7712640 Eh     change       -0.1156168E-04 Eh
 * total energy  :  -144.7712683 Eh     change       -0.4250563E-05 Eh
   *** GEOMETRY OPTIMIZATION CONVERGED AFTER 68 ITERATIONS ***

 final structure:
================
74
 xtb: 6.3.3 (4ae9cef)
C         1.58715638992802   -2.86091894182076   -2.29992255519464
O         1.20824259847699   -1.73447456984665   -2.99321203158478
C         1.68116638875204   -1.57389433231856   -4.31321324415958
C         2.37466825665192   -3.87646459609023   -2.81396976769841
C         2.68719039726255   -4.97201793497413   -2.02362812391387
C         2.21979276704596   -5.06016516222192   -0.72823349511643
C         1.43625568436060   -4.04235318787945   -0.20760004275403
C         1.11908360797216   -2.94142167870630   -0.97740928273955
C         0.24828184148241   -1.80888093235304   -0.52890427466230
C        -0.41102783169112   -1.80617871009604    0.85969844753136
C        -1.62786265181996   -2.68406127866569    0.94676907702226
C        -1.62881039004925   -3.78897751578760    1.78097329246918
C        -2.73171271381699   -4.61873115587134    1.87164354329550
C        -3.85707580434687   -4.33328732283703    1.12385262157424
C        -3.88359968588919   -3.22672875385720    0.29322350597684
C        -2.77631133770439   -2.39373654541947    0.19459757067531
O        -2.72679106659468   -1.28572990841657   -0.60696724097924
C        -3.91809155767421   -0.85126286713639   -1.22579264987427
N        -0.71678430779636   -0.37807885105975    1.01589022688375
C        -1.48286356183885    0.08074407742013    2.03444524588779
C        -1.66186319840838    1.56912325689180    2.08377256098847
C        -2.91700429106227    2.10777020455258    1.83809791280002
C        -3.11595648181915    3.47353133856230    1.91534523000277
C        -2.05508225200638    4.29877346416479    2.25892474500031
C        -2.22862416592789    5.78951445775927    2.33306170022672
F        -1.57619926632553    6.42220495103595    1.33800463383088
F        -1.74145534453302    6.30381988476701    3.47677371773034
F        -3.50622722357238    6.18259327495758    2.25527687555674
C        -0.80092717546364    3.76708172083513    2.53238717348246
C        -0.60827800997049    2.40130913874019    2.44642118796927
O        -1.97851087189728   -0.65856726557072    2.85673287998865
C        -0.06073469492105    0.40529819026300   -0.01907733868414
C        -1.02615623084668    0.88566467352340   -1.14214123397418
O        -0.69761049642529    0.50947924640448   -2.37077430626496
O        -1.95067872815388    1.60986107685394   -0.91777230615696
N         0.92441610844302   -0.49909348648334   -0.55120709285863
C         2.27278977599453   -0.33284184559435   -0.36982258468155
C         2.70151439415258    1.09943096915751   -0.23917737200393
C         3.57205467413472    1.43103771153564    0.79395714318814
C         4.02176906769870    2.72999694788244    0.93581599516917
C         3.61082475744554    3.69786139944616    0.02766063032234
C         4.13209585723648    5.10106919545768    0.17600584712020
F         4.16612826773093    5.49737177869790    1.45827150816310
F         3.40304843194347    6.00561234527342   -0.48830423847585
F         5.39249936197335    5.21665853207148   -0.28514178216678
C         2.76759004750945    3.37094959943446   -1.02548741501749
C         2.31086998127849    2.07209002635310   -1.15478658584014
O         3.07614510122015   -1.23503983355242   -0.36764168184444
H         1.26448548397804   -0.63159104127547   -4.66643794771956
H         1.33662661377134   -2.38386627625763   -4.96188070304543
H         2.77304612452679   -1.52189120095670   -4.33794331369918
H         2.75414070364749   -3.82917292772967   -3.82198729310579
H         3.30353288251343   -5.75744945609619   -2.43391471474009
H         2.46574376854308   -5.91463465278812   -0.11752200014108
H         1.07164021997760   -4.11118629014593    0.80372023175208
H        -0.57627467388785   -1.74518858648133   -1.25283449232912
H         0.30668143575413   -2.09242460644283    1.63933228338419
H        -0.75721235950706   -3.99371711842609    2.38442950978349
H        -2.71356120884782   -5.47379790657379    2.52882435185363
H        -4.72880464896765   -4.96695665206873    1.18670373571787
H        -4.77558801187114   -3.02004605945444   -0.27597726585128
H        -3.68397888771932    0.11595034747202   -1.66726571906825
H        -4.23537407735108   -1.54650157257321   -2.00922288465547
H        -4.72147873406296   -0.72728213082264   -0.49517953853298
H        -3.73275441254772    1.45366863536831    1.57667580410464
H        -4.08731980625383    3.89714110382818    1.71386284155197
H         0.01126006222369    4.42040953554185    2.81371189934174
H         0.36070502395588    1.98320915529710    2.68135189332649
H         0.38776856772819    1.31099919499184    0.40651576885502
H         0.04054246927150   -0.13516653483095   -2.40340003430219
H         3.89195202155361    0.66260498673491    1.48072029021743
H         4.68785551086728    2.99563249021867    1.74227098794785
H         2.46588994050217    4.12795326209724   -1.73236564535257
H         1.66312857401786    1.81736351587993   -1.97959967151619

          :  Hamiltonian                  GFN2-xTB          :
         :: total energy            -144.771268269989 Eh    ::
         :: gradient norm              0.000376525580 Eh/a0 ::
         :: HOMO-LUMO gap              2.560300677921 eV    ::
         :: SCC energy              -146.482113564586 Eh    ::
         :: -> dispersion             -0.104150735657 Eh    ::
         :: repulsion energy           1.707034217187 Eh    ::

    * Orbital Energies and Occupations

         #    Occupation            Energy/Eh            Energy/eV
      -------------------------------------------------------------
         1        2.0000           -0.8852048             -24.0876
       ...           ...                  ...                  ...
       113        2.0000           -0.4486106             -12.2073
       114        2.0000           -0.4439114             -12.0794
       115        2.0000           -0.4418731             -12.0240
       116        2.0000           -0.4402947             -11.9810
       117        2.0000           -0.4391957             -11.9511
       118        2.0000           -0.4383792             -11.9289
       119        2.0000           -0.4336290             -11.7996
       120        2.0000           -0.4187816             -11.3956
       121        2.0000           -0.4152317             -11.2990
       122        2.0000           -0.4103295             -11.1656
       123        2.0000           -0.4056349             -11.0379
       124        2.0000           -0.3984466             -10.8423
       125        2.0000           -0.3918419             -10.6626 (HOMO)
       126                         -0.2977526              -8.1023 (LUMO)
       127                         -0.2759490              -7.5090
       128                         -0.2713184              -7.3830
       129                         -0.2672064              -7.2711
       130                         -0.2571757              -6.9981
       131                         -0.2441233              -6.6429
       132                         -0.2421552              -6.5894
       133                         -0.2380329              -6.4772
       134                         -0.2332258              -6.3464
       135                         -0.2276252              -6.1940
       136                         -0.2232939              -6.0761
       ...                                ...                  ...
       218                          0.6563243              17.8595
      -------------------------------------------------------------
                  HL-Gap            0.0940893 Eh            2.5603 eV

     #   Z          covCN         q      C6AA      Î±(0)
     1   6 C        2.871     0.141    24.915     8.182
     2   8 O        1.704    -0.298    18.962     5.879
     3   6 C        3.641     0.033    20.363     6.488
     4   6 C        2.917    -0.060    29.480     8.904
     5   6 C        2.922    -0.028    28.696     8.785
     6   6 C        2.919    -0.035    28.866     8.810
     7   6 C        2.922    -0.030    28.756     8.794
     8   6 C        2.971    -0.006    28.165     8.705
     9   6 C        3.874     0.041    19.839     6.333
    10   6 C        3.823     0.051    19.710     6.318
    11   6 C        2.971    -0.011    28.297     8.726
    12   6 C        2.926    -0.027    28.688     8.784
    13   6 C        2.917    -0.037    28.918     8.818
    14   6 C        2.921    -0.029    28.715     8.788
    15   6 C        2.918    -0.063    29.561     8.916
    16   6 C        2.866     0.143    24.893     8.178
    17   8 O        1.704    -0.290    18.819     5.857
    18   6 C        3.642     0.037    20.301     6.478
    19   7 N        2.770    -0.115    23.496     7.199
    20   6 C        2.759     0.276    22.326     7.738
    21   6 C        2.976    -0.001    28.047     8.687
    22   6 C        2.925    -0.005    28.140     8.699
    23   6 C        2.920    -0.016    28.406     8.740
    24   6 C        2.978    -0.020    28.507     8.758
    25   6 C        3.336     0.486    17.286     6.584
    26   9 F        0.791    -0.209    11.325     3.975
    27   9 F        0.791    -0.207    11.309     3.972
    28   9 F        0.791    -0.203    11.262     3.964
    29   6 C        2.921    -0.022    28.549     8.762
    30   6 C        2.923    -0.027    28.684     8.783
    31   8 O        0.859    -0.411    21.904     6.275
    32   6 C        3.794     0.070    19.425     6.276
    33   6 C        2.685     0.353    21.001     7.500
    34   8 O        1.658    -0.357    20.037     6.043
    35   8 O        0.856    -0.363    20.947     6.136
    36   7 N        2.765    -0.137    23.968     7.271
    37   6 C        2.759     0.277    22.319     7.736
    38   6 C        2.975    -0.012    28.302     8.726
    39   6 C        2.925    -0.016    28.411     8.741
    40   6 C        2.920    -0.019    28.481     8.752
    41   6 C        2.977    -0.018    28.464     8.751
    42   6 C        3.336     0.486    17.281     6.583
    43   9 F        0.791    -0.204    11.277     3.967
    44   9 F        0.791    -0.201    11.241     3.960
    45   9 F        0.791    -0.206    11.301     3.971
    46   6 C        2.919    -0.021    28.522     8.758
    47   6 C        2.922    -0.028    28.709     8.787
    48   8 O        0.858    -0.394    21.563     6.226
    49   1 H        0.925     0.062     2.171     2.304
    50   1 H        0.924     0.049     2.339     2.392
    51   1 H        0.924     0.049     2.330     2.387
    52   1 H        0.926     0.044     2.391     2.418
    53   1 H        0.926     0.045     2.383     2.414
    54   1 H        0.926     0.046     2.374     2.409
    55   1 H        0.926     0.046     2.368     2.406
    56   1 H        0.923     0.074     2.045     2.236
    57   1 H        0.924     0.055     2.256     2.349
    58   1 H        0.926     0.042     2.419     2.432
    59   1 H        0.926     0.044     2.392     2.419
    60   1 H        0.926     0.043     2.408     2.427
    61   1 H        0.926     0.044     2.398     2.421
    62   1 H        0.925     0.077     2.012     2.218
    63   1 H        0.924     0.040     2.443     2.444
    64   1 H        0.924     0.044     2.400     2.423
    65   1 H        0.926     0.068     2.109     2.271
    66   1 H        0.926     0.072     2.062     2.245
    67   1 H        0.926     0.061     2.184     2.311
    68   1 H        0.926     0.041     2.438     2.442
    69   1 H        0.924     0.065     2.142     2.289
    70   1 H        0.803     0.354     0.579     1.195
    71   1 H        0.926     0.069     2.091     2.262
    72   1 H        0.926     0.070     2.083     2.257
    73   1 H        0.926     0.072     2.060     2.244
    74   1 H        0.926     0.053     2.282     2.362

Wiberg/Mayer (AO) data.
largest (>0.10) Wiberg bond orders for each atom

     #   Z sym  total        # sym  WBO       # sym  WBO       # sym  WBO
 ---------------------------------------------------------------------------
     1   6 C    3.930 --     4 C    1.403     8 C    1.317     2 O    1.034
     2   8 O    2.208 --     1 C    1.034     3 C    0.978
     3   6 C    3.940 --    49 H    0.979     2 O    0.978    51 H    0.977
                            50 H    0.977
     4   6 C    3.988 --     5 C    1.422     1 C    1.403    52 H    0.965
                             7 C    0.101
     5   6 C    3.990 --     6 C    1.454     4 C    1.422    53 H    0.970
                             8 C    0.107
     6   6 C    3.991 --     5 C    1.454     7 C    1.417    54 H    0.970
     7   6 C    3.988 --     8 C    1.444     6 C    1.417    55 H    0.964
                             4 C    0.101
     8   6 C    3.982 --     7 C    1.444     1 C    1.317     9 C    1.001
                             5 C    0.107
     9   6 C    3.958 --     8 C    1.001    10 C    0.961    36 N    0.938
                            56 H    0.935
    10   6 C    3.963 --    11 C    0.995     9 C    0.961    57 H    0.954
                            19 N    0.946
    11   6 C    3.982 --    12 C    1.432    16 C    1.327    10 C    0.995
                            14 C    0.106
    12   6 C    3.988 --    11 C    1.432    13 C    1.428    58 H    0.966
                            15 C    0.103
    13   6 C    3.991 --    14 C    1.442    12 C    1.428    59 H    0.970
    14   6 C    3.990 --    13 C    1.442    15 C    1.436    60 H    0.970
                            11 C    0.106
    15   6 C    3.988 --    14 C    1.436    16 C    1.384    61 H    0.965
                            12 C    0.103
    16   6 C    3.933 --    15 C    1.384    11 C    1.327    17 O    1.051
    17   8 O    2.219 --    16 C    1.051    18 C    0.976
    18   6 C    3.938 --    64 H    0.977    63 H    0.977    17 O    0.976
                            62 H    0.974
    19   7 N    3.467 --    20 C    1.219    32 C    0.973    10 C    0.946
                            31 O    0.196
    20   6 C    3.950 --    31 O    1.694    19 N    1.219    21 C    0.955
    21   6 C    3.987 --    22 C    1.410    30 C    1.402    20 C    0.955
                            24 C    0.106
    22   6 C    3.988 --    23 C    1.440    21 C    1.410    65 H    0.966
                            29 C    0.112
    23   6 C    3.987 --    22 C    1.440    24 C    1.417    66 H    0.965
                            30 C    0.109
    24   6 C    3.975 --    23 C    1.417    29 C    1.408    25 C    0.951
                            21 C    0.106
    25   6 C    3.826 --    28 F    0.954    24 C    0.951    27 F    0.944
                            26 F    0.940
    26   9 F    1.069 --    25 C    0.940
    27   9 F    1.070 --    25 C    0.944
    28   9 F    1.077 --    25 C    0.954
    29   6 C    3.989 --    30 C    1.448    24 C    1.408    67 H    0.967
                            22 C    0.112
    30   6 C    3.992 --    29 C    1.448    21 C    1.402    68 H    0.968
                            23 C    0.109
    31   8 O    2.028 --    20 C    1.694    19 N    0.196
    32   6 C    3.966 --    36 N    0.994    19 N    0.973    69 H    0.932
                            33 C    0.899
    33   6 C    3.928 --    35 O    1.789    34 O    1.174    32 C    0.899
    34   8 O    2.234 --    33 C    1.174    70 H    0.817    35 O    0.175
    35   8 O    2.081 --    33 C    1.789    34 O    0.175
    36   7 N    3.435 --    37 C    1.176    32 C    0.994     9 C    0.938
                            48 O    0.181
    37   6 C    3.947 --    48 O    1.724    36 N    1.176    38 C    0.965
    38   6 C    3.986 --    39 C    1.401    47 C    1.399    37 C    0.965
                            41 C    0.103
    39   6 C    3.987 --    40 C    1.448    38 C    1.401    71 H    0.966
                            46 C    0.110
    40   6 C    3.988 --    39 C    1.448    41 C    1.411    72 H    0.965
                            47 C    0.110
    41   6 C    3.977 --    46 C    1.414    40 C    1.411    42 C    0.949
                            38 C    0.103
    42   6 C    3.829 --    44 F    0.955    41 C    0.949    43 F    0.948
                            45 F    0.941
    43   9 F    1.074 --    42 C    0.948
    44   9 F    1.079 --    42 C    0.955
    45   9 F    1.071 --    42 C    0.941
    46   6 C    3.988 --    47 C    1.446    41 C    1.414    73 H    0.965
                            39 C    0.110
    47   6 C    3.990 --    46 C    1.446    38 C    1.399    74 H    0.966
                            40 C    0.110
    48   8 O    2.052 --    37 C    1.724    36 N    0.181
    49   1 H    0.996 --     3 C    0.979
    50   1 H    0.998 --     3 C    0.977
    51   1 H    0.998 --     3 C    0.977
    52   1 H    0.997 --     4 C    0.965
    53   1 H    0.997 --     5 C    0.970
    54   1 H    0.998 --     6 C    0.970
    55   1 H    0.997 --     7 C    0.964
    56   1 H    0.994 --     9 C    0.935
    57   1 H    0.996 --    10 C    0.954
    58   1 H    0.998 --    12 C    0.966
    59   1 H    0.998 --    13 C    0.970
    60   1 H    0.998 --    14 C    0.970
    61   1 H    0.998 --    15 C    0.965
    62   1 H    0.994 --    18 C    0.974
    63   1 H    0.998 --    18 C    0.977
    64   1 H    0.998 --    18 C    0.977
    65   1 H    0.995 --    22 C    0.966
    66   1 H    0.994 --    23 C    0.965
    67   1 H    0.996 --    29 C    0.967
    68   1 H    0.998 --    30 C    0.968
    69   1 H    0.995 --    32 C    0.932
    70   1 H    0.874 --    34 O    0.817
    71   1 H    0.995 --    39 C    0.966
    72   1 H    0.995 --    40 C    0.965
    73   1 H    0.994 --    46 C    0.965
    74   1 H    0.997 --    47 C    0.966
 ---------------------------------------------------------------------------

molecular dipole:
                 x           y           z       tot (Debye)
 q only:        0.005      -3.393      -1.895
   full:        0.250      -3.222      -2.015       9.680

           -------------------------------------------------
          | TOTAL ENERGY             -144.771268269989 Eh   |
          | GRADIENT NORM               0.000376525580 Eh/Î± |
          | HOMO-LUMO GAP               2.560300677921 eV   |
           -------------------------------------------------

 * finished run on 2022/03/16 at 23:06:28.517
