   * xtb version 6.3.3 (4ae9cef) compiled by 'conda@95abc7406d43' on 2020-10-14
          program call               : xtb acid_229.xyz --opt --chrg 0 --uhf 0 --gfn 2
          number of atoms            :                    66
          number of electrons        :                   218
          charge                     :                     0
          spin                       :                   0.0

   ID    Z sym.   atoms
    1    6 C      1-22, 24-26, 28, 29, 32, 33, 37-39, 41, 42
    2    7 N      23, 36
    3    9 F      27, 40
    4   16 S      30, 43
    5    8 O      31, 34, 35, 44
    6    1 H      45-66

          :  Hamiltonian                  GFN2-xTB          :
 * total energy  :  -122.1080953 Eh     change       -0.3129628E-08 Eh
 * total energy  :  -122.1232272 Eh     change       -0.1513190E-01 Eh
 * total energy  :  -122.1276725 Eh     change       -0.4445304E-02 Eh
 * total energy  :  -122.1286278 Eh     change       -0.9552775E-03 Eh
 * total energy  :  -122.1291220 Eh     change       -0.4941628E-03 Eh
 * total energy  :  -122.1293119 Eh     change       -0.1899232E-03 Eh
 * total energy  :  -122.1294819 Eh     change       -0.1700096E-03 Eh
 * total energy  :  -122.1296502 Eh     change       -0.1682787E-03 Eh
 * total energy  :  -122.1298290 Eh     change       -0.1788484E-03 Eh
 * total energy  :  -122.1300242 Eh     change       -0.1951449E-03 Eh
 * total energy  :  -122.1315578 Eh     change       -0.1284147E-04 Eh
 * total energy  :  -122.1315684 Eh     change       -0.1051737E-04 Eh
 * total energy  :  -122.1315794 Eh     change       -0.1102416E-04 Eh
 * total energy  :  -122.1315897 Eh     change       -0.1032356E-04 Eh
 * total energy  :  -122.1315978 Eh     change       -0.8054363E-05 Eh
 * total energy  :  -122.1316032 Eh     change       -0.5395643E-05 Eh
 * total energy  :  -122.1316082 Eh     change       -0.5076079E-05 Eh
 * total energy  :  -122.1316135 Eh     change       -0.5239722E-05 Eh
 * total energy  :  -122.1316173 Eh     change       -0.3801002E-05 Eh
   *** GEOMETRY OPTIMIZATION CONVERGED AFTER 42 ITERATIONS ***

 final structure:
================
66
 xtb: 6.3.3 (4ae9cef)
C         2.81495285553020   -1.00859145529082   -1.28734066160394
C         4.15780121136741   -1.01008329866271   -1.04139323457614
C         4.71156930966119   -0.17790865271068   -0.04662162466575
C         6.09585250815195   -0.13786505787533    0.21821509736266
C         6.59528112845912    0.68239209552071    1.19060477872597
C         5.73499090236658    1.49865852130424    1.94253151938326
C         4.38861731696464    1.48296303071819    1.71029111246913
C         3.84297541969893    0.64893460376046    0.71236009955766
C         2.46220268120186    0.62573738471351    0.43724472976083
C         1.95131367730962   -0.17307554352758   -0.55340625243388
C         0.47963181500711   -0.14796892423040   -0.88965437645477
C        -0.37993900278317   -0.80196925465692    0.20615642238218
C        -1.62788034092282   -1.49853250991739   -0.29101475824616
C        -2.20520433511104   -2.45477575844059    0.50598350212585
C        -3.40462848482342   -3.09093806821307    0.13296816937668
C        -4.01248995189426   -4.07171983888403    0.94480386395420
C        -5.17525689520673   -4.67394311174817    0.55492580701151
C        -5.78254170170325   -4.32556976680893   -0.66267676774236
C        -5.21978832236766   -3.37702349680034   -1.46940292737149
C        -4.02103848901916   -2.73546271223832   -1.09455748594523
C        -3.40941026216056   -1.74976309043430   -1.89449512774766
C        -2.24742865751765   -1.14394342794928   -1.50589207798912
N        -0.73981793591886    0.34306625724176    1.03900817553575
C        -1.03677049410626    0.19606213411546    2.35409499634154
C        -1.42817877707726    1.42277804200839    3.08779622890518
C        -2.49399723255371    1.54581455446203    3.93585040564894
F        -3.40363532236775    0.59037725613343    4.11700592490639
C        -2.58151139087263    2.79422412035030    4.59349060415885
C        -1.54971769899273    3.60651678225253    4.25865653208965
S        -0.48042819475434    2.87128189066157    3.13396615793329
O        -0.94976455295866   -0.87581177687955    2.91424165929795
C        -0.91974720322500    1.47890241886594    0.17987107988406
C        -2.39414758887220    1.63938128034426   -0.23724554672784
O        -2.52647228878575    2.01362919882038   -1.50031032713388
O        -3.30375543246896    1.48586472418959    0.52823596598981
N        -0.02708756258372    1.22259705644499   -0.92785654334312
C         0.62117103136887    2.28157112691568   -1.48581378447214
C         1.65186405208583    1.93669542807480   -2.48964295993345
C         1.59335863093882    1.11688034181229   -3.58261938847323
F         0.49889073780550    0.41464426586402   -3.91835828357608
C         2.77703825960474    1.06859303849907   -4.34539067855725
C         3.73478525599615    1.87064384835670   -3.81204157783609
S         3.19872639414025    2.69805268908237   -2.40868801429262
O         0.36898585728770    3.42834000526708   -1.17787486282776
H         2.39963749468396   -1.64374263439951   -2.05660965370080
H         4.81689672647237   -1.64668626744489   -1.61367486238564
H         6.75352505506917   -0.76923805004875   -0.36200055151599
H         7.65661884426783    0.70856901519073    1.38905722658836
H         6.14866813110861    2.13959069656477    2.70687726405625
H         3.72087459687182    2.10943104610861    2.28377227078462
H         1.81560698023637    1.26972110038766    1.01680245883549
H         0.31448820083826   -0.65338527567472   -1.84434825760745
H         0.20419154647751   -1.49342540154107    0.82118390231961
H        -1.74811268230865   -2.71658092957218    1.44863628285988
H        -3.54113884319992   -4.33092863664037    1.88138342599361
H        -5.63823874472689   -5.42303371614014    1.18042499430612
H        -6.70101957963649   -4.81388329662108   -0.95441037586359
H        -5.68463077467458   -3.10394348653362   -2.40634857333041
H        -3.87664202380250   -1.47574075157776   -2.83006666947579
H        -1.80787778249837   -0.39323559235516   -2.14515588829066
H        -3.37129630618794    3.04531819175117    5.27639743240349
H        -1.34199944764978    4.59906918300491    4.60402993708571
H        -0.63840796067551    2.43373025978233    0.65352087296572
H        -3.46071099935704    2.15154345486220   -1.72767374744113
H         2.88751716143939    0.46926751564523   -5.22953833862051
H         4.73267648134755    2.02792922474301   -4.16826372081562

          :  Hamiltonian                  GFN2-xTB          :
         :: total energy            -122.131617280904 Eh    ::
         :: gradient norm              0.000278411051 Eh/a0 ::
         :: HOMO-LUMO gap              2.625604655992 eV    ::
         :: SCC energy              -123.856389772049 Eh    ::
         :: -> dispersion             -0.104607449303 Eh    ::
         :: repulsion energy           1.722186332370 Eh    ::

    * Orbital Energies and Occupations

         #    Occupation            Energy/Eh            Energy/eV
      -------------------------------------------------------------
         1        2.0000           -0.8377561             -22.7965
       ...           ...                  ...                  ...
        97        2.0000           -0.4252850             -11.5726
        98        2.0000           -0.4194010             -11.4125
        99        2.0000           -0.4192923             -11.4095
       100        2.0000           -0.4171513             -11.3513
       101        2.0000           -0.4155695             -11.3082
       102        2.0000           -0.4131751             -11.2431
       103        2.0000           -0.4102955             -11.1647
       104        2.0000           -0.4084474             -11.1144
       105        2.0000           -0.4040434             -10.9946
       106        2.0000           -0.4015282             -10.9261
       107        2.0000           -0.3989473             -10.8559
       108        2.0000           -0.3902549             -10.6194
       109        2.0000           -0.3792969             -10.3212 (HOMO)
       110                         -0.2828078              -7.6956 (LUMO)
       111                         -0.2754893              -7.4964
       112                         -0.2730818              -7.4309
       113                         -0.2634017              -7.1675
       114                         -0.2549857              -6.9385
       115                         -0.2433922              -6.6230
       116                         -0.2360103              -6.4222
       117                         -0.2338357              -6.3630
       118                         -0.2305465              -6.2735
       119                         -0.2179888              -5.9318
       120                         -0.2125023              -5.7825
       ...                                ...                  ...
       208                          0.6983827              19.0040
      -------------------------------------------------------------
                  HL-Gap            0.0964892 Eh            2.6256 eV

     #   Z          covCN         q      C6AA      Î±(0)
     1   6 C        2.919    -0.040    28.996     8.830
     2   6 C        2.917    -0.035    28.863     8.810
     3   6 C        2.988     0.013    27.714     8.636
     4   6 C        2.918    -0.034    28.847     8.807
     5   6 C        2.916    -0.027    28.685     8.783
     6   6 C        2.916    -0.027    28.669     8.780
     7   6 C        2.918    -0.032    28.805     8.801
     8   6 C        2.987     0.015    27.662     8.627
     9   6 C        2.923    -0.039    28.975     8.827
    10   6 C        2.969    -0.008    28.224     8.714
    11   6 C        3.825     0.032    20.014     6.366
    12   6 C        3.844     0.041    19.854     6.338
    13   6 C        2.968    -0.006    28.174     8.706
    14   6 C        2.925    -0.036    28.907     8.817
    15   6 C        2.987     0.018    27.609     8.619
    16   6 C        2.918    -0.031    28.781     8.797
    17   6 C        2.916    -0.028    28.700     8.785
    18   6 C        2.916    -0.028    28.704     8.786
    19   6 C        2.918    -0.035    28.861     8.810
    20   6 C        2.987     0.014    27.694     8.632
    21   6 C        2.918    -0.036    28.887     8.814
    22   6 C        2.917    -0.044    29.087     8.844
    23   7 N        2.771    -0.111    23.428     7.189
    24   6 C        2.770     0.284    22.192     7.715
    25   6 C        2.980    -0.037    28.903     8.819
    26   6 C        3.011     0.175    24.232     8.075
    27   9 F        0.786    -0.194    11.175     3.949
    28   6 C        3.103    -0.060    29.341     8.876
    29   6 C        2.948    -0.020    28.505     8.757
    30  16 S        2.348     0.004   140.892    19.978
    31   8 O        0.860    -0.409    21.867     6.270
    32   6 C        3.782     0.093    19.068     6.221
    33   6 C        2.687     0.357    20.947     7.490
    34   8 O        1.659    -0.347    19.846     6.014
    35   8 O        0.856    -0.392    21.517     6.219
    36   7 N        2.767    -0.111    23.425     7.188
    37   6 C        2.795     0.280    22.258     7.729
    38   6 C        2.983    -0.038    28.941     8.825
    39   6 C        3.015     0.156    24.609     8.137
    40   9 F        0.785    -0.217    11.415     3.991
    41   6 C        3.097    -0.063    29.448     8.893
    42   6 C        2.954    -0.028    28.709     8.788
    43  16 S        2.358     0.065   138.429    19.802
    44   8 O        0.859    -0.422    22.116     6.305
    45   1 H        0.926     0.032     2.553     2.499
    46   1 H        0.926     0.039     2.467     2.456
    47   1 H        0.926     0.035     2.518     2.481
    48   1 H        0.926     0.036     2.508     2.477
    49   1 H        0.926     0.037     2.491     2.468
    50   1 H        0.926     0.039     2.468     2.457
    51   1 H        0.926     0.033     2.543     2.494
    52   1 H        0.924     0.071     2.071     2.251
    53   1 H        0.924     0.076     2.021     2.223
    54   1 H        0.926     0.060     2.200     2.320
    55   1 H        0.926     0.041     2.432     2.439
    56   1 H        0.926     0.034     2.533     2.489
    57   1 H        0.926     0.032     2.557     2.500
    58   1 H        0.926     0.032     2.561     2.503
    59   1 H        0.926     0.034     2.533     2.489
    60   1 H        0.926     0.039     2.466     2.456
    61   1 H        0.926     0.070     2.087     2.259
    62   1 H        0.926     0.068     2.108     2.270
    63   1 H        0.923     0.098     1.805     2.101
    64   1 H        0.804     0.345     0.600     1.217
    65   1 H        0.926     0.070     2.085     2.258
    66   1 H        0.926     0.070     2.082     2.256

Wiberg/Mayer (AO) data.
largest (>0.10) Wiberg bond orders for each atom

     #   Z sym  total        # sym  WBO       # sym  WBO       # sym  WBO
 ---------------------------------------------------------------------------
     1   6 C    3.990 --     2 C    1.561    10 C    1.296    45 H    0.968
     2   6 C    3.991 --     1 C    1.561     3 C    1.278    46 H    0.968
                             9 C    0.115
     3   6 C    3.990 --     4 C    1.281     2 C    1.278     8 C    1.250
     4   6 C    3.992 --     5 C    1.557     3 C    1.281    47 H    0.968
                             7 C    0.118
     5   6 C    3.989 --     4 C    1.557     6 C    1.320    48 H    0.971
     6   6 C    3.992 --     7 C    1.559     5 C    1.320    49 H    0.971
     7   6 C    3.989 --     6 C    1.559     8 C    1.277    50 H    0.968
                             4 C    0.118
     8   6 C    3.990 --     9 C    1.285     7 C    1.277     3 C    1.250
     9   6 C    3.991 --    10 C    1.522     8 C    1.285    51 H    0.965
                             2 C    0.115
    10   6 C    3.986 --     9 C    1.522     1 C    1.296    11 C    0.987
    11   6 C    3.960 --    10 C    0.987    12 C    0.964    36 N    0.956
                            52 H    0.950
    12   6 C    3.956 --    13 C    0.981    11 C    0.964    53 H    0.954
                            23 N    0.948
    13   6 C    3.983 --    14 C    1.521    22 C    1.300    12 C    0.981
    14   6 C    3.987 --    13 C    1.521    15 C    1.286    54 H    0.962
                            21 C    0.116
    15   6 C    3.990 --    14 C    1.286    16 C    1.276    20 C    1.250
    16   6 C    3.990 --    17 C    1.561    15 C    1.276    55 H    0.968
                            19 C    0.119
    17   6 C    3.992 --    16 C    1.561    18 C    1.319    56 H    0.971
    18   6 C    3.990 --    19 C    1.559    17 C    1.319    57 H    0.971
    19   6 C    3.992 --    18 C    1.559    20 C    1.279    58 H    0.968
                            16 C    0.119
    20   6 C    3.990 --    21 C    1.281    19 C    1.279    15 C    1.250
    21   6 C    3.992 --    22 C    1.555    20 C    1.281    59 H    0.968
                            14 C    0.116
    22   6 C    3.991 --    21 C    1.555    13 C    1.300    60 H    0.964
    23   7 N    3.470 --    24 C    1.205    32 C    0.992    12 C    0.948
                            31 O    0.189
    24   6 C    3.956 --    31 O    1.677    23 N    1.205    25 C    0.990
    25   6 C    3.941 --    26 C    1.518    30 S    1.148    24 C    0.990
                            29 C    0.115
    26   6 C    3.889 --    25 C    1.518    28 C    1.240    27 F    0.984
    27   9 F    1.132 --    26 C    0.984
    28   6 C    3.984 --    29 C    1.627    26 C    1.240    61 H    0.961
    29   6 C    3.950 --    28 C    1.627    30 S    1.196    62 H    0.968
                            25 C    0.115
    30  16 S    2.640 --    29 C    1.196    25 C    1.148
    31   8 O    2.030 --    24 C    1.677    23 N    0.189
    32   6 C    3.967 --    23 N    0.992    36 N    0.985    63 H    0.914
                            33 C    0.913
    33   6 C    3.922 --    35 O    1.772    34 O    1.168    32 C    0.913
    34   8 O    2.235 --    33 C    1.168    64 H    0.855    35 O    0.184
    35   8 O    2.059 --    33 C    1.772    34 O    0.184
    36   7 N    3.458 --    37 C    1.200    32 C    0.985    11 C    0.956
                            44 O    0.186
    37   6 C    3.956 --    44 O    1.676    36 N    1.200    38 C    1.000
    38   6 C    3.947 --    39 C    1.505    43 S    1.168    37 C    1.000
                            42 C    0.110
    39   6 C    3.880 --    38 C    1.505    41 C    1.258    40 F    0.960
    40   9 F    1.100 --    39 C    0.960
    41   6 C    3.983 --    42 C    1.605    39 C    1.258    65 H    0.962
    42   6 C    3.952 --    41 C    1.605    43 S    1.224    66 H    0.968
                            38 C    0.110
    43  16 S    2.668 --    42 C    1.224    38 C    1.168
    44   8 O    2.022 --    37 C    1.676    36 N    0.186
    45   1 H    0.998 --     1 C    0.968
    46   1 H    0.998 --     2 C    0.968
    47   1 H    0.998 --     4 C    0.968
    48   1 H    0.998 --     5 C    0.971
    49   1 H    0.998 --     6 C    0.971
    50   1 H    0.998 --     7 C    0.968
    51   1 H    0.998 --     9 C    0.965
    52   1 H    0.994 --    11 C    0.950
    53   1 H    0.993 --    12 C    0.954
    54   1 H    0.996 --    14 C    0.962
    55   1 H    0.998 --    16 C    0.968
    56   1 H    0.998 --    17 C    0.971
    57   1 H    0.999 --    18 C    0.971
    58   1 H    0.999 --    19 C    0.968
    59   1 H    0.998 --    21 C    0.968
    60   1 H    0.998 --    22 C    0.964
    61   1 H    0.995 --    28 C    0.961
    62   1 H    0.995 --    29 C    0.968
    63   1 H    0.990 --    32 C    0.914
    64   1 H    0.880 --    34 O    0.855
    65   1 H    0.994 --    41 C    0.962
    66   1 H    0.994 --    42 C    0.968
 ---------------------------------------------------------------------------

molecular dipole:
                 x           y           z       tot (Debye)
 q only:        1.743       0.218      -1.232
   full:        1.250       0.219      -1.321       4.656

           -------------------------------------------------
          | TOTAL ENERGY             -122.131617280904 Eh   |
          | GRADIENT NORM               0.000278411051 Eh/Î± |
          | HOMO-LUMO GAP               2.625604655992 eV   |
           -------------------------------------------------

 * finished run on 2022/03/16 at 22:44:40.166
