   * xtb version 6.3.3 (4ae9cef) compiled by 'conda@95abc7406d43' on 2020-10-14
          program call               : xtb acid_361.xyz --opt --chrg 0 --uhf 0 --gfn 2
          number of atoms            :                    54
          number of electrons        :                   182
          charge                     :                     0
          spin                       :                   0.0

   ID    Z sym.   atoms
    1    6 C      1-14, 16-18, 20, 21, 24, 25, 29-31, 33, 34
    2    7 N      15, 28
    3    9 F      19, 32
    4   16 S      22, 35
    5    8 O      23, 26, 27, 36
    6    1 H      37-54

          :  Hamiltonian                  GFN2-xTB          :
 * total energy  :  -102.9209937 Eh     change       -0.1828951E-08 Eh
 * total energy  :  -102.9323165 Eh     change       -0.1132278E-01 Eh
 * total energy  :  -102.9359808 Eh     change       -0.3664331E-02 Eh
 * total energy  :  -102.9370421 Eh     change       -0.1061255E-02 Eh
 * total energy  :  -102.9376391 Eh     change       -0.5970397E-03 Eh
 * total energy  :  -102.9380282 Eh     change       -0.3890298E-03 Eh
 * total energy  :  -102.9383871 Eh     change       -0.3589352E-03 Eh
 * total energy  :  -102.9386181 Eh     change       -0.2309744E-03 Eh
 * total energy  :  -102.9388177 Eh     change       -0.1995777E-03 Eh
 * total energy  :  -102.9389709 Eh     change       -0.1532011E-03 Eh
 * total energy  :  -102.9399697 Eh     change       -0.4259098E-04 Eh
 * total energy  :  -102.9399949 Eh     change       -0.2521985E-04 Eh
 * total energy  :  -102.9400050 Eh     change       -0.1011530E-04 Eh
 * total energy  :  -102.9400134 Eh     change       -0.8399698E-05 Eh
 * total energy  :  -102.9400203 Eh     change       -0.6855220E-05 Eh
 * total energy  :  -102.9400286 Eh     change       -0.8283109E-05 Eh
 * total energy  :  -102.9400363 Eh     change       -0.7766332E-05 Eh
 * total energy  :  -102.9400416 Eh     change       -0.5288757E-05 Eh
 * total energy  :  -102.9400449 Eh     change       -0.3294964E-05 Eh
   *** GEOMETRY OPTIMIZATION CONVERGED AFTER 28 ITERATIONS ***

 final structure:
================
54
 xtb: 6.3.3 (4ae9cef)
C         0.11956516241810   -0.90788910523750    2.89962683081487
C         0.48323702062539   -1.26098031914736    4.18886703711395
C         1.45565279434869   -2.22115059689163    4.40476347986084
C         2.06736088036950   -2.83299678680198    3.32331000321596
C         1.70501008749110   -2.48612805326345    2.03497388737998
C         0.72720267549041   -1.52173118176446    1.81173729840077
C         0.43000513154293   -1.13863342951499    0.37811742797431
C        -0.93803889484023   -0.47008277700764    0.13846835116825
C        -1.53854567778944   -0.87617140710273   -1.18665403392632
C        -2.66788102391443   -1.68305440511589   -1.22338753361811
C        -3.23599479644875   -2.03750904644527   -2.43397950070275
C        -2.67792424147865   -1.59071076092404   -3.61932529777239
C        -1.54467448548656   -0.79574876630175   -3.59003238539629
C        -0.97595588624007   -0.44034478605376   -2.38076178716795
N        -0.62177901055676    0.95512929838806    0.15600902753348
C        -1.40648205524185    1.95307826326112   -0.33291762081762
C        -2.84154689116569    1.62922327840169   -0.47402782917649
C        -3.72395491460984    1.05618699646742    0.40050788120413
F        -3.37672649820944    0.60958102435535    1.61676276451142
C        -5.04873417595000    0.97227913202183   -0.07204692214053
C        -5.15768136955193    1.49672137608078   -1.32027023838892
S        -3.66910933024342    2.11004647448046   -1.91058271024575
O        -0.95222677677382    3.03652855007426   -0.63989658275458
C         0.80424638604416    1.17599317492926    0.21982663906549
C         1.22984226156799    1.70722767564472    1.60389363051782
O         2.55002024635184    1.62197118952463    1.74281775103554
O         0.48830409711725    2.16160623133073    2.42289300340517
N         1.36649871274443   -0.11206168711366   -0.06939092161473
C         2.55397256985773   -0.41610157685121   -0.64096858815145
C         3.35178613552803    0.75270632459906   -1.10310884306580
C         4.56163607824597    1.17853470380083   -0.63798268495938
F         5.16984618822748    0.64355867058592    0.42499923089848
C         5.11190236545223    2.27063629624017   -1.34791327758566
C         4.30900286634006    2.65233459236281   -2.37093724639767
S         2.88300855539326    1.69975515911925   -2.47331396596485
O         2.93144072004759   -1.55700851724540   -0.79217669482639
H        -0.63306423639840   -0.14656666008530    2.76445002684508
H         0.00334447656400   -0.77547687134188    5.02535182640102
H         1.73732504745908   -2.49061781420784    5.41192066151151
H         2.82929758931988   -3.58122650478639    3.48219034776775
H         2.19094941443171   -2.95104290401353    1.19066364897914
H         0.56532336756629   -2.01478679448864   -0.26477241934611
H        -1.62501179964403   -0.73029210576073    0.94708188098301
H        -3.10660238569255   -2.02904543982727   -0.29841916141629
H        -4.11815476143511   -2.65976171327940   -2.45010595756392
H        -3.12417275680577   -1.86207411340959   -4.56396606085312
H        -1.10173113190706   -0.44784362705198   -4.51075079086390
H        -0.09526991407236    0.18561169547401   -2.37054280812180
H        -5.85350493442480    0.54673071290793    0.49760577202400
H        -6.03585482694361    1.56253738119359   -1.93014514346576
H         1.09067267337008    1.94895889003497   -0.51092910999720
H         2.83631125301957    1.94933665152626    2.61122816741892
H         6.05270028476372    2.72311821010674   -1.09636501069825
H         4.46515773412564    3.43764879811946   -3.08239644902862

          :  Hamiltonian                  GFN2-xTB          :
         :: total energy            -102.940044930737 Eh    ::
         :: gradient norm              0.000410025304 Eh/a0 ::
         :: HOMO-LUMO gap              3.266044607341 eV    ::
         :: SCC energy              -104.284782730271 Eh    ::
         :: -> dispersion             -0.084427232112 Eh    ::
         :: repulsion energy           1.342324950054 Eh    ::

    * Orbital Energies and Occupations

         #    Occupation            Energy/Eh            Energy/eV
      -------------------------------------------------------------
         1        2.0000           -0.8354140             -22.7328
       ...           ...                  ...                  ...
        79        2.0000           -0.4308727             -11.7246
        80        2.0000           -0.4260543             -11.5935
        81        2.0000           -0.4239924             -11.5374
        82        2.0000           -0.4230229             -11.5110
        83        2.0000           -0.4197311             -11.4215
        84        2.0000           -0.4184642             -11.3870
        85        2.0000           -0.4147261             -11.2853
        86        2.0000           -0.4132593             -11.2454
        87        2.0000           -0.4123827             -11.2215
        88        2.0000           -0.4099386             -11.1550
        89        2.0000           -0.4096617             -11.1475
        90        2.0000           -0.4065872             -11.0638
        91        2.0000           -0.4022102             -10.9447 (HOMO)
        92                         -0.2821852              -7.6787 (LUMO)
        93                         -0.2736068              -7.4452
        94                         -0.2594519              -7.0600
        95                         -0.2468520              -6.7172
        96                         -0.2411819              -6.5629
        97                         -0.2404620              -6.5433
        98                         -0.2334348              -6.3521
        99                         -0.2320409              -6.3142
       100                         -0.2278884              -6.2012
       101                         -0.2176358              -5.9222
       102                         -0.2158827              -5.8745
       ...                                ...                  ...
       172                          0.6795127              18.4905
      -------------------------------------------------------------
                  HL-Gap            0.1200249 Eh            3.2660 eV

     #   Z          covCN         q      C6AA      Î±(0)
     1   6 C        2.921    -0.039    28.978     8.828
     2   6 C        2.920    -0.028    28.705     8.786
     3   6 C        2.919    -0.029    28.726     8.789
     4   6 C        2.919    -0.027    28.668     8.780
     5   6 C        2.925    -0.033    28.823     8.804
     6   6 C        2.972    -0.005    28.132     8.700
     7   6 C        3.839     0.039    19.899     6.346
     8   6 C        3.822     0.031    20.037     6.370
     9   6 C        2.973    -0.005    28.145     8.702
    10   6 C        2.924    -0.037    28.925     8.820
    11   6 C        2.919    -0.028    28.692     8.784
    12   6 C        2.920    -0.028    28.702     8.785
    13   6 C        2.920    -0.026    28.643     8.776
    14   6 C        2.923    -0.032    28.786     8.799
    15   7 N        2.767    -0.111    23.420     7.188
    16   6 C        2.797     0.281    22.246     7.726
    17   6 C        2.983    -0.038    28.944     8.825
    18   6 C        3.014     0.157    24.583     8.133
    19   9 F        0.785    -0.214    11.382     3.985
    20   6 C        3.098    -0.063    29.444     8.893
    21   6 C        2.953    -0.028    28.711     8.789
    22  16 S        2.361     0.066   138.403    19.800
    23   8 O        0.859    -0.424    22.159     6.311
    24   6 C        3.780     0.092    19.075     6.222
    25   6 C        2.687     0.356    20.962     7.493
    26   8 O        1.660    -0.366    20.203     6.068
    27   8 O        0.856    -0.367    21.030     6.148
    28   7 N        2.771    -0.106    23.315     7.171
    29   6 C        2.773     0.283    22.205     7.718
    30   6 C        2.982    -0.040    28.980     8.830
    31   6 C        3.010     0.167    24.387     8.101
    32   9 F        0.786    -0.207    11.307     3.972
    33   6 C        3.102    -0.061    29.390     8.884
    34   6 C        2.949    -0.023    28.585     8.769
    35  16 S        2.349     0.020   140.225    19.930
    36   8 O        0.859    -0.408    21.841     6.266
    37   1 H        0.926     0.048     2.344     2.394
    38   1 H        0.926     0.040     2.450     2.448
    39   1 H        0.926     0.036     2.500     2.472
    40   1 H        0.926     0.040     2.451     2.448
    41   1 H        0.926     0.056     2.240     2.341
    42   1 H        0.924     0.077     2.015     2.220
    43   1 H        0.924     0.075     2.036     2.231
    44   1 H        0.926     0.035     2.522     2.483
    45   1 H        0.926     0.039     2.455     2.450
    46   1 H        0.926     0.041     2.441     2.443
    47   1 H        0.926     0.043     2.414     2.430
    48   1 H        0.926     0.032     2.554     2.499
    49   1 H        0.926     0.070     2.083     2.257
    50   1 H        0.926     0.071     2.076     2.253
    51   1 H        0.923     0.095     1.835     2.119
    52   1 H        0.804     0.346     0.598     1.214
    53   1 H        0.926     0.069     2.096     2.264
    54   1 H        0.927     0.069     2.099     2.266

Wiberg/Mayer (AO) data.
largest (>0.10) Wiberg bond orders for each atom

     #   Z sym  total        # sym  WBO       # sym  WBO       # sym  WBO
 ---------------------------------------------------------------------------
     1   6 C    3.990 --     2 C    1.437     6 C    1.420    37 H    0.964
                             4 C    0.111
     2   6 C    3.991 --     3 C    1.444     1 C    1.437    38 H    0.971
                             5 C    0.113
     3   6 C    3.991 --     2 C    1.444     4 C    1.435    39 H    0.971
                             6 C    0.109
     4   6 C    3.991 --     5 C    1.449     3 C    1.435    40 H    0.970
                             1 C    0.111
     5   6 C    3.988 --     4 C    1.449     6 C    1.408    41 H    0.966
                             2 C    0.113
     6   6 C    3.983 --     1 C    1.420     5 C    1.408     7 C    0.981
                             3 C    0.109
     7   6 C    3.957 --     6 C    0.981     8 C    0.963    42 H    0.953
                            28 N    0.948
     8   6 C    3.961 --     9 C    0.988     7 C    0.963    15 N    0.958
                            43 H    0.949
     9   6 C    3.986 --    10 C    1.413    14 C    1.411     8 C    0.988
                            12 C    0.109
    10   6 C    3.990 --    11 C    1.443     9 C    1.413    44 H    0.968
                            13 C    0.110
    11   6 C    3.992 --    10 C    1.443    12 C    1.440    45 H    0.970
                            14 C    0.111
    12   6 C    3.990 --    11 C    1.440    13 C    1.437    46 H    0.971
                             9 C    0.109
    13   6 C    3.992 --    14 C    1.447    12 C    1.437    47 H    0.970
                            10 C    0.110
    14   6 C    3.992 --    13 C    1.447     9 C    1.411    48 H    0.968
                            11 C    0.111
    15   7 N    3.461 --    16 C    1.200    24 C    0.986     8 C    0.958
                            23 O    0.186
    16   6 C    3.956 --    23 O    1.673    15 N    1.200    17 C    1.004
    17   6 C    3.946 --    18 C    1.502    22 S    1.166    16 C    1.004
                            21 C    0.110
    18   6 C    3.882 --    17 C    1.502    20 C    1.258    19 F    0.963
    19   9 F    1.105 --    18 C    0.963
    20   6 C    3.983 --    21 C    1.604    18 C    1.258    49 H    0.961
    21   6 C    3.952 --    20 C    1.604    22 S    1.225    50 H    0.968
                            17 C    0.110
    22  16 S    2.668 --    21 C    1.225    17 C    1.166
    23   8 O    2.020 --    16 C    1.673    15 N    0.186
    24   6 C    3.967 --    28 N    0.991    15 N    0.986    51 H    0.920
                            25 C    0.909
    25   6 C    3.922 --    27 O    1.796    26 O    1.150    24 C    0.909
    26   8 O    2.215 --    25 C    1.150    52 H    0.854    27 O    0.184
    27   8 O    2.079 --    25 C    1.796    26 O    0.184
    28   7 N    3.487 --    29 C    1.219    24 C    0.991     7 C    0.948
                            36 O    0.196
    29   6 C    3.955 --    36 O    1.684    28 N    1.219    30 C    0.970
    30   6 C    3.942 --    31 C    1.531    35 S    1.155    29 C    0.970
                            34 C    0.116
    31   6 C    3.885 --    30 C    1.531    33 C    1.238    32 F    0.972
    32   9 F    1.113 --    31 C    0.972
    33   6 C    3.983 --    34 C    1.629    31 C    1.238    53 H    0.961
    34   6 C    3.950 --    33 C    1.629    35 S    1.199    54 H    0.968
                            30 C    0.116
    35  16 S    2.645 --    34 C    1.199    30 C    1.155
    36   8 O    2.033 --    29 C    1.684    28 N    0.196
    37   1 H    0.998 --     1 C    0.964
    38   1 H    0.998 --     2 C    0.971
    39   1 H    0.998 --     3 C    0.971
    40   1 H    0.998 --     4 C    0.970
    41   1 H    0.997 --     5 C    0.966
    42   1 H    0.994 --     7 C    0.953
    43   1 H    0.994 --     8 C    0.949
    44   1 H    0.999 --    10 C    0.968
    45   1 H    0.998 --    11 C    0.970
    46   1 H    0.998 --    12 C    0.971
    47   1 H    0.998 --    13 C    0.970
    48   1 H    0.999 --    14 C    0.968
    49   1 H    0.994 --    20 C    0.961
    50   1 H    0.994 --    21 C    0.968
    51   1 H    0.991 --    24 C    0.920
    52   1 H    0.880 --    26 O    0.854
    53   1 H    0.995 --    33 C    0.961
    54   1 H    0.994 --    34 C    0.968
 ---------------------------------------------------------------------------

molecular dipole:
                 x           y           z       tot (Debye)
 q only:       -1.129      -0.272      -0.881
   full:       -0.795      -0.176      -0.477       2.399

           -------------------------------------------------
          | TOTAL ENERGY             -102.940044930737 Eh   |
          | GRADIENT NORM               0.000410025304 Eh/Î± |
          | HOMO-LUMO GAP               3.266044607341 eV   |
           -------------------------------------------------

 * finished run on 2022/03/17 at 00:16:53.065
