   * xtb version 6.3.3 (4ae9cef) compiled by 'conda@95abc7406d43' on 2020-10-14
          program call               : xtb acid_224.xyz --opt --chrg 0 --uhf 0 --gfn 2
          number of atoms            :                    66
          number of electrons        :                   194
          charge                     :                     0
          spin                       :                   0.0

   ID    Z sym.   atoms
    1    6 C      1-14, 16-22, 25, 26, 30-36
    2    7 N      15, 29
    3    8 O      23, 24, 27, 28, 37, 38
    4    1 H      39-66

          :  Hamiltonian                  GFN2-xTB          :
 * total energy  :  -108.8138735 Eh     change       -0.3126786E-08 Eh
 * total energy  :  -108.8235215 Eh     change       -0.9648026E-02 Eh
 * total energy  :  -108.8258898 Eh     change       -0.2368334E-02 Eh
 * total energy  :  -108.8263973 Eh     change       -0.5074502E-03 Eh
 * total energy  :  -108.8265971 Eh     change       -0.1998038E-03 Eh
 * total energy  :  -108.8266729 Eh     change       -0.7581790E-04 Eh
 * total energy  :  -108.8267536 Eh     change       -0.8071623E-04 Eh
 * total energy  :  -108.8268139 Eh     change       -0.6031942E-04 Eh
 * total energy  :  -108.8268886 Eh     change       -0.7470365E-04 Eh
 * total energy  :  -108.8269627 Eh     change       -0.7407545E-04 Eh
 * total energy  :  -108.8271380 Eh     change       -0.7541102E-05 Eh
 * total energy  :  -108.8271508 Eh     change       -0.1280015E-04 Eh
 * total energy  :  -108.8271690 Eh     change       -0.1811930E-04 Eh
 * total energy  :  -108.8271905 Eh     change       -0.2152858E-04 Eh
 * total energy  :  -108.8272101 Eh     change       -0.1955946E-04 Eh
 * total energy  :  -108.8272301 Eh     change       -0.2006178E-04 Eh
 * total energy  :  -108.8272380 Eh     change       -0.7934874E-05 Eh
 * total energy  :  -108.8272482 Eh     change       -0.1015842E-04 Eh
 * total energy  :  -108.8272528 Eh     change       -0.4603177E-05 Eh
   *** GEOMETRY OPTIMIZATION CONVERGED AFTER 24 ITERATIONS ***

 final structure:
================
66
 xtb: 6.3.3 (4ae9cef)
C         2.78814366907629   -3.67923058278446    0.71933747120235
C         3.48592451893269   -4.10858567459102    1.83435833035546
C         3.28201235361898   -3.49822038423242    3.05965251426868
C         2.37833461408597   -2.45473767445885    3.16653114332391
C         1.68050365388115   -2.02555589608827    2.05272888244299
C         1.87967513762555   -2.63631766528004    0.82081469334905
C         1.11025039214581   -2.17379363267837   -0.39383027056290
C        -0.39533141113525   -2.43798929431074   -0.25533104555930
C        -1.06639630856286   -2.96692594987653   -1.50319058843394
C        -0.65609016353051   -2.58733401023531   -2.77686103191373
C        -1.32093029501406   -3.06284743408580   -3.89368081426241
C        -2.40309059024646   -3.91406684830166   -3.75067616886780
C        -2.82347756528704   -4.28662165123300   -2.48492310550391
C        -2.15941553763809   -3.81523858912788   -1.36668763881725
N        -0.94948447557539   -1.12701662909102    0.09714791376259
C        -1.97858975694054   -1.03441255030716    1.00072870004355
C        -2.48846610873972    0.30522968093513    1.28710490593755
C        -3.39889496874598    0.68395627489831    2.24426088002445
C        -3.61243512795409    2.06974256101987    2.08050340534620
C        -4.50782312912884    2.94674809472591    2.88404929240127
C        -2.82141540210784    2.44810856876809    1.02185772553333
C        -2.61916491341329    3.76356826484100    0.36320405317414
O        -2.14155626220225    1.39023618070275    0.54288354834259
O        -2.48018858044019   -2.03079492267232    1.48903724756557
C        -0.06660970669954   -0.06968260788095   -0.31960895549556
C        -0.57238131264900    0.63075071100831   -1.62237570348668
O        -1.71557356842074    0.15927147668897   -2.10720029994079
O         0.01734062252036    1.53327835489177   -2.13727530542622
N         1.20256618873541   -0.72490955787683   -0.53841393360647
C         2.40392020927838   -0.16288979141839   -0.86537770937786
C         2.54180879652489    1.28798567105790   -0.74984771145910
C         3.50656435309661    2.08276001920792   -1.31604019012622
C         3.25055062272412    3.40368112893868   -0.88819696600451
C         4.01512634337994    4.63261901064079   -1.23895434376663
C         2.14934353183799    3.32199953015042   -0.07364837462342
C         1.40989576090267    4.37371975060913    0.67327064064229
O         1.72225508373478    2.04817197101532    0.01824034416421
O         3.33234868856146   -0.86635280416385   -1.22499216453390
H         2.95558994085674   -4.14911788134974   -0.23815209427312
H         4.19414230757284   -4.91887312245253    1.74523603333563
H         3.82811554502392   -3.83180203597019    3.92955839434457
H         2.21651746933506   -1.97305794417783    4.11963068333279
H         0.97767212591592   -1.20978022899389    2.14466731748300
H         1.52952927466424   -2.65902493501730   -1.28083841160689
H        -0.60446958097796   -3.11800337496610    0.57797098806677
H         0.18280849737571   -1.91949154704450   -2.90920795426852
H        -0.99095235455745   -2.76451280965831   -4.87704704874413
H        -2.91762293898550   -4.28573995082908   -4.62399708801135
H        -3.66895437636021   -4.94763973625706   -2.36717951772730
H        -2.48995944951083   -4.09521901244271   -0.37764527509238
H        -3.84754440567361    0.03510170913693    2.96786646950405
H        -3.92380472366444    3.65749263819338    3.46808447358274
H        -5.17098487348348    3.51369058238604    2.23293408802847
H        -5.10705177645480    2.34803042237993    3.56364453575579
H        -3.55483796264426    4.12270890771905   -0.06345028250048
H        -2.27211099723287    4.50359997383198    1.08300547486970
H        -1.88485053337640    3.65769230659595   -0.43128166199336
H         0.02414904915528    0.70978471291785    0.44848964268137
H        -2.03859483801257   -0.60364731667980   -1.59376414850577
H         4.28930669500577    1.74680906035816   -1.96414421165079
H         3.37020522655203    5.35468583033354   -1.73758749304817
H         4.83913264709566    4.38335196637238   -1.90086415518656
H         4.41595332279139    5.10350121818779   -0.34183837161273
H         0.93923085294554    5.06962081718233   -0.02056861111945
H         2.08866510709170    4.93911509427264    1.31038089064872
H         0.64147139331550    3.91241855657138    1.28749596359285

          :  Hamiltonian                  GFN2-xTB          :
         :: total energy            -108.827252811519 Eh    ::
         :: gradient norm              0.000834006949 Eh/a0 ::
         :: HOMO-LUMO gap              2.846366516586 eV    ::
         :: SCC energy              -110.364266336941 Eh    ::
         :: -> dispersion             -0.085632967703 Eh    ::
         :: repulsion energy           1.534776116371 Eh    ::

    * Orbital Energies and Occupations

         #    Occupation            Energy/Eh            Energy/eV
      -------------------------------------------------------------
         1        2.0000           -0.7615367             -20.7225
       ...           ...                  ...                  ...
        85        2.0000           -0.4311525             -11.7323
        86        2.0000           -0.4242814             -11.5453
        87        2.0000           -0.4195403             -11.4163
        88        2.0000           -0.4154943             -11.3062
        89        2.0000           -0.4150623             -11.2944
        90        2.0000           -0.4135365             -11.2529
        91        2.0000           -0.4105787             -11.1724
        92        2.0000           -0.4061186             -11.0510
        93        2.0000           -0.4024714             -10.9518
        94        2.0000           -0.3975189             -10.8170
        95        2.0000           -0.3942289             -10.7275
        96        2.0000           -0.3895298             -10.5996
        97        2.0000           -0.3763798             -10.2418 (HOMO)
        98                         -0.2717778              -7.3954 (LUMO)
        99                         -0.2536037              -6.9009
       100                         -0.2463189              -6.7027
       101                         -0.2395334              -6.5180
       102                         -0.2336431              -6.3578
       103                         -0.2266390              -6.1672
       104                         -0.2241280              -6.0988
       105                         -0.1964413              -5.3454
       106                         -0.1768826              -4.8132
       107                         -0.1523430              -4.1455
       108                         -0.1331306              -3.6227
       ...                                ...                  ...
       180                          0.6993446              19.0301
      -------------------------------------------------------------
                  HL-Gap            0.1046020 Eh            2.8464 eV

     #   Z          covCN         q      C6AA      Î±(0)
     1   6 C        2.924    -0.029    28.714     8.787
     2   6 C        2.920    -0.026    28.640     8.776
     3   6 C        2.920    -0.029    28.715     8.787
     4   6 C        2.920    -0.028    28.695     8.784
     5   6 C        2.924    -0.030    28.750     8.793
     6   6 C        2.974     0.006    27.885     8.662
     7   6 C        3.824     0.042    19.860     6.342
     8   6 C        3.826     0.035    19.960     6.357
     9   6 C        2.972    -0.010    28.256     8.719
    10   6 C        2.922    -0.036    28.900     8.816
    11   6 C        2.919    -0.027    28.666     8.780
    12   6 C        2.920    -0.028    28.698     8.785
    13   6 C        2.919    -0.027    28.686     8.783
    14   6 C        2.924    -0.036    28.900     8.816
    15   7 N        2.762    -0.135    23.926     7.265
    16   6 C        2.756     0.255    22.711     7.804
    17   6 C        3.081     0.065    26.452     8.432
    18   6 C        3.016    -0.054    29.326     8.883
    19   6 C        3.050    -0.022    28.501     8.756
    20   6 C        3.754    -0.109    22.646     6.786
    21   6 C        3.090     0.118    25.314     8.247
    22   6 C        3.753    -0.119    22.841     6.815
    23   8 O        1.728    -0.216    17.582     5.662
    24   8 O        0.859    -0.432    22.325     6.335
    25   6 C        3.748     0.077    19.354     6.275
    26   6 C        2.684     0.353    21.013     7.502
    27   8 O        1.659    -0.352    19.941     6.028
    28   8 O        0.856    -0.358    20.856     6.123
    29   7 N        2.762    -0.120    23.615     7.217
    30   6 C        2.758     0.262    22.586     7.783
    31   6 C        3.090     0.079    26.143     8.381
    32   6 C        3.021    -0.053    29.301     8.879
    33   6 C        3.052    -0.021    28.474     8.751
    34   6 C        3.754    -0.108    22.616     6.781
    35   6 C        3.102     0.115    25.353     8.251
    36   6 C        3.753    -0.115    22.754     6.802
    37   8 O        1.728    -0.205    17.404     5.633
    38   8 O        0.860    -0.434    22.376     6.342
    39   1 H        0.926     0.041     2.438     2.442
    40   1 H        0.926     0.038     2.470     2.458
    41   1 H        0.926     0.036     2.508     2.477
    42   1 H        0.926     0.034     2.526     2.485
    43   1 H        0.926     0.025     2.654     2.548
    44   1 H        0.924     0.071     2.077     2.254
    45   1 H        0.924     0.078     2.002     2.212
    46   1 H        0.926     0.038     2.478     2.462
    47   1 H        0.926     0.041     2.429     2.437
    48   1 H        0.926     0.038     2.471     2.458
    49   1 H        0.926     0.040     2.455     2.450
    50   1 H        0.926     0.052     2.300     2.371
    51   1 H        0.926     0.062     2.176     2.307
    52   1 H        0.925     0.050     2.324     2.384
    53   1 H        0.925     0.050     2.323     2.383
    54   1 H        0.925     0.055     2.261     2.351
    55   1 H        0.925     0.065     2.138     2.286
    56   1 H        0.925     0.062     2.172     2.305
    57   1 H        0.925     0.074     2.046     2.237
    58   1 H        0.923     0.086     1.918     2.166
    59   1 H        0.804     0.333     0.629     1.246
    60   1 H        0.927     0.059     2.213     2.326
    61   1 H        0.925     0.048     2.342     2.393
    62   1 H        0.925     0.053     2.286     2.364
    63   1 H        0.925     0.045     2.383     2.414
    64   1 H        0.925     0.062     2.180     2.309
    65   1 H        0.925     0.058     2.220     2.330
    66   1 H        0.925     0.058     2.219     2.329

Wiberg/Mayer (AO) data.
largest (>0.10) Wiberg bond orders for each atom

     #   Z sym  total        # sym  WBO       # sym  WBO       # sym  WBO
 ---------------------------------------------------------------------------
     1   6 C    3.990 --     2 C    1.442     6 C    1.416    39 H    0.968
                             4 C    0.111
     2   6 C    3.992 --     1 C    1.442     3 C    1.441    40 H    0.971
                             5 C    0.112
     3   6 C    3.991 --     2 C    1.441     4 C    1.436    41 H    0.971
                             6 C    0.110
     4   6 C    3.992 --     5 C    1.447     3 C    1.436    42 H    0.971
                             1 C    0.111
     5   6 C    3.992 --     4 C    1.447     6 C    1.412    43 H    0.969
                             2 C    0.112
     6   6 C    3.984 --     1 C    1.416     5 C    1.412     7 C    0.984
                             3 C    0.110
     7   6 C    3.963 --     6 C    0.984     8 C    0.967    29 N    0.957
                            44 H    0.951
     8   6 C    3.959 --     9 C    0.984     7 C    0.967    45 H    0.952
                            15 N    0.946
     9   6 C    3.984 --    10 C    1.412    14 C    1.411     8 C    0.984
                            12 C    0.109
    10   6 C    3.991 --    11 C    1.442     9 C    1.412    46 H    0.966
                            13 C    0.111
    11   6 C    3.991 --    10 C    1.442    12 C    1.440    47 H    0.970
                            14 C    0.112
    12   6 C    3.990 --    11 C    1.440    13 C    1.438    48 H    0.971
                             9 C    0.109
    13   6 C    3.992 --    14 C    1.445    12 C    1.438    49 H    0.970
                            10 C    0.111
    14   6 C    3.989 --    13 C    1.445     9 C    1.411    50 H    0.967
                            11 C    0.112
    15   7 N    3.456 --    16 C    1.166    25 C    0.995     8 C    0.946
                            24 O    0.176
    16   6 C    3.957 --    24 O    1.648    15 N    1.166    17 C    1.045
    17   6 C    3.896 --    18 C    1.508    23 O    1.077    16 C    1.045
                            21 C    0.132
    18   6 C    3.982 --    17 C    1.508    19 C    1.311    51 H    0.971
    19   6 C    3.981 --    21 C    1.503    18 C    1.311    20 C    1.031
    20   6 C    3.995 --    19 C    1.031    54 H    0.985    53 H    0.975
                            52 H    0.971
    21   6 C    3.906 --    19 C    1.503    23 O    1.122    22 C    1.033
                            17 C    0.132
    22   6 C    3.991 --    21 C    1.033    57 H    0.981    56 H    0.967
                            55 H    0.965
    23   8 O    2.414 --    21 C    1.122    17 C    1.077
    24   8 O    1.997 --    16 C    1.648    15 N    0.176
    25   6 C    3.963 --    15 N    0.995    29 N    0.982    58 H    0.929
                            26 C    0.892
    26   6 C    3.921 --    28 O    1.799    27 O    1.164    25 C    0.892
    27   8 O    2.237 --    26 C    1.164    59 H    0.840    28 O    0.173
    28   8 O    2.084 --    26 C    1.799    27 O    0.173
    29   7 N    3.444 --    30 C    1.180    25 C    0.982     7 C    0.957
                            38 O    0.179
    30   6 C    3.957 --    38 O    1.645    29 N    1.180    31 C    1.037
    31   6 C    3.904 --    32 C    1.517    37 O    1.089    30 C    1.037
                            35 C    0.132
    32   6 C    3.983 --    31 C    1.517    33 C    1.303    60 H    0.972
    33   6 C    3.981 --    35 C    1.513    32 C    1.303    34 C    1.030
    34   6 C    3.996 --    33 C    1.030    62 H    0.985    63 H    0.974
                            61 H    0.974
    35   6 C    3.907 --    33 C    1.513    37 O    1.119    36 C    1.030
                            31 C    0.132
    36   6 C    3.994 --    35 C    1.030    66 H    0.983    65 H    0.971
                            64 H    0.967
    37   8 O    2.421 --    35 C    1.119    31 C    1.089
    38   8 O    1.991 --    30 C    1.645    29 N    0.179
    39   1 H    0.998 --     1 C    0.968
    40   1 H    0.998 --     2 C    0.971
    41   1 H    0.998 --     3 C    0.971
    42   1 H    0.998 --     4 C    0.971
    43   1 H    0.999 --     5 C    0.969
    44   1 H    0.994 --     7 C    0.951
    45   1 H    0.993 --     8 C    0.952
    46   1 H    0.999 --    10 C    0.966
    47   1 H    0.998 --    11 C    0.970
    48   1 H    0.998 --    12 C    0.971
    49   1 H    0.998 --    13 C    0.970
    50   1 H    0.997 --    14 C    0.967
    51   1 H    0.996 --    18 C    0.971
    52   1 H    0.997 --    20 C    0.971
    53   1 H    0.997 --    20 C    0.975
    54   1 H    0.997 --    20 C    0.985
    55   1 H    0.993 --    22 C    0.965
    56   1 H    0.994 --    22 C    0.967
    57   1 H    0.994 --    22 C    0.981
    58   1 H    0.992 --    25 C    0.929
    59   1 H    0.889 --    27 O    0.840
    60   1 H    0.996 --    32 C    0.972
    61   1 H    0.997 --    34 C    0.974
    62   1 H    0.997 --    34 C    0.985
    63   1 H    0.997 --    34 C    0.974
    64   1 H    0.994 --    36 C    0.967
    65   1 H    0.995 --    36 C    0.971
    66   1 H    0.996 --    36 C    0.983
 ---------------------------------------------------------------------------

molecular dipole:
                 x           y           z       tot (Debye)
 q only:       -1.047       1.294       0.776
   full:       -1.222       1.419       1.014       5.412

           -------------------------------------------------
          | TOTAL ENERGY             -108.827252811519 Eh   |
          | GRADIENT NORM               0.000834006949 Eh/Î± |
          | HOMO-LUMO GAP               2.846366516586 eV   |
           -------------------------------------------------

 * finished run on 2022/03/16 at 22:42:01.553
