   * xtb version 6.3.3 (4ae9cef) compiled by 'conda@95abc7406d43' on 2020-10-14
          program call               : xtb acid_25.xyz --opt --chrg 0 --uhf 0 --gfn 2
          number of atoms            :                    78
          number of electrons        :                   214
          charge                     :                     0
          spin                       :                   0.0

   ID    Z sym.   atoms
    1    6 C      1-14, 16-25, 27, 28, 32-41
    2    7 N      15, 31
    3    8 O      26, 29, 30, 42
    4    1 H      43-78

          :  Hamiltonian                  GFN2-xTB          :
 * total energy  :  -117.5765800 Eh     change       -0.1498620E-08 Eh
 * total energy  :  -117.5914482 Eh     change       -0.1486825E-01 Eh
 * total energy  :  -117.5967254 Eh     change       -0.5277222E-02 Eh
 * total energy  :  -117.5989726 Eh     change       -0.2247170E-02 Eh
 * total energy  :  -117.6002745 Eh     change       -0.1301940E-02 Eh
 * total energy  :  -117.6009976 Eh     change       -0.7230829E-03 Eh
 * total energy  :  -117.6016523 Eh     change       -0.6547153E-03 Eh
 * total energy  :  -117.6024153 Eh     change       -0.7629442E-03 Eh
 * total energy  :  -117.6031077 Eh     change       -0.6924742E-03 Eh
 * total energy  :  -117.6037608 Eh     change       -0.6530306E-03 Eh
 * total energy  :  -117.6202838 Eh     change       -0.1179466E-04 Eh
 * total energy  :  -117.6202832 Eh     change        0.5730886E-06 Eh
 * total energy  :  -117.6202929 Eh     change       -0.9664570E-05 Eh
 * total energy  :  -117.6202997 Eh     change       -0.6767353E-05 Eh
 * total energy  :  -117.6203106 Eh     change       -0.1096394E-04 Eh
 * total energy  :  -117.6203193 Eh     change       -0.8636264E-05 Eh
 * total energy  :  -117.6203278 Eh     change       -0.8572063E-05 Eh
 * total energy  :  -117.6203392 Eh     change       -0.1131940E-04 Eh
 * total energy  :  -117.6203422 Eh     change       -0.3045982E-05 Eh
   *** GEOMETRY OPTIMIZATION CONVERGED AFTER 122 ITERATIONS ***

 final structure:
================
78
 xtb: 6.3.3 (4ae9cef)
C         0.67889606724456   -3.94391618782412    0.60776028881642
C         0.89282550944493   -4.96186384540045    1.51986193578820
C         1.24808682280969   -4.66366928656308    2.82398041580699
C         1.38252703821858   -3.34252664043285    3.21572265714102
C         1.16040457295745   -2.32446907354741    2.30700048591025
C         0.81705139695979   -2.61894173999814    0.99408659144935
C         0.54051287202065   -1.51419996910935    0.01181224967038
C        -0.85715776026111   -0.89178887494640    0.23743776393833
C        -1.88028008123069   -1.57312483123177   -0.62754460627207
C        -1.86985630158487   -1.39246493113359   -2.00543603897511
C        -2.79364799143127   -2.04618908863170   -2.79881295520021
C        -3.72497700641079   -2.89647691491285   -2.22633806654965
C        -3.72061915443805   -3.10040266362353   -0.85800527829801
C        -2.79963570254181   -2.44329748385967   -0.06152157660412
N        -0.64491078271092    0.51231949411526   -0.06401965473286
C        -1.46845567455047    1.39233969594534   -0.68152867933977
C        -2.92420895211883    1.10693210502043   -0.66839469289914
C        -3.64954263130176    1.27710338626559   -1.84207168215506
C        -5.01107150410737    1.04712637421751   -1.84124844255129
C        -5.65288680860153    0.68527330705825   -0.66956735189884
C        -4.94957181948614    0.55281054053482    0.52131201253884
C        -5.67512636050758    0.21968513143425    1.80204874428709
C        -5.13931001992748   -1.06759712148551    2.42966409262330
C        -5.57757869881916    1.38693431326874    2.78728372666321
C        -3.57659659979479    0.75794153949294    0.50626615928810
O        -0.99836982606101    2.40058350796159   -1.18888279913728
C         0.75847718607737    0.87054421374712   -0.00525319883743
C         1.18607956585134    1.59533192318773   -1.30088094142194
O         0.90266176127442    0.85137766075254   -2.37968081090998
O         1.84212648683325    2.59619272021312   -1.33589288537112
N         1.44508111625274   -0.38621071540486    0.17218918883358
C         2.79370596458448   -0.58066103399318    0.06283481741215
C         3.61427532928434    0.65024665784691    0.23706415097913
C         4.46525442337540    1.05071902575811   -0.78291758229054
C         5.23450723106431    2.19813461221401   -0.66162623879115
C         6.09489237879495    2.65999443344785   -1.81040782228186
C         7.56617359896699    2.75788277073674   -1.40425672165653
C         5.57780006534485    4.00101621104616   -2.33708301763943
C         5.16484340511958    2.91973567224249    0.52376243552843
C         4.34898684885937    2.50471305290017    1.55987247821781
C         3.56353511551321    1.37585724251903    1.41982437450891
O         3.26132615622650   -1.68381600304922   -0.12551782433141
H         0.40807485093380   -4.17691559193727   -0.41167695253423
H         0.78830558901015   -5.99088511277939    1.20942153634796
H         1.42395285400057   -5.45867426890173    3.53334469362564
H         1.66267955519007   -3.10471571203717    4.23143753053660
H         1.26940436233344   -1.29354786688640    2.61245790986279
H         0.61620355146766   -1.90764847377762   -1.01146084386101
H        -1.12874522683137   -1.00252882584670    1.29746894657001
H        -1.14106729856004   -0.73226669789910   -2.45334074932776
H        -2.78564486416845   -1.89493088255276   -3.86781185830855
H        -4.44716388693000   -3.40490790970030   -2.84723228277492
H        -4.43471468082799   -3.77465126392043   -0.40885404832135
H        -2.78946264990652   -2.61068569685218    1.00538918156041
H        -3.13591063958620    1.58089022049547   -2.74094707312673
H        -5.57816509497497    1.16093035344287   -2.75298560559853
H        -6.72049387630576    0.51729595662886   -0.67669285329359
H        -6.73260869321676    0.06452789085077    1.56166875651585
H        -5.72509762460617   -1.32691835323840    3.30875670140705
H        -4.10277440410241   -0.94836825029205    2.73458207349664
H        -5.19930898537165   -1.88682183538728    1.71713786802590
H        -5.96628782311470    2.29690048329452    2.33591186352896
H        -4.54462344770931    1.56339410790512    3.07638182477865
H        -6.15394513565704    1.17123975102342    3.68415459339920
H        -3.00731285965565    0.67279531965489    1.41956220759764
H         0.94870783531109    1.56758119739701    0.82625148035051
H         1.18969272043338    1.31809236259605   -3.17989436920564
H         4.50611721036005    0.46258907683328   -1.68901623945278
H         6.01271162472807    1.92060856220491   -2.61471434948431
H         7.91814817422506    1.80140500445060   -1.02392047377252
H         8.17411563838496    3.03443239067628   -2.26298299644801
H         7.70715104227196    3.50808379994036   -0.63035872308302
H         5.72640940272299    4.78607023401002   -1.60006390576200
H         6.10418571569819    4.27936082956308   -3.24760381667417
H         4.51362748544081    3.93332994665960   -2.55046563271488
H         5.75221319392572    3.81757296583087    0.64307757591861
H         4.31720374765493    3.07028263159645    2.47977602406161
H         2.92819640017093    1.04790047009848    2.23034530489652

          :  Hamiltonian                  GFN2-xTB          :
         :: total energy            -117.620342213722 Eh    ::
         :: gradient norm              0.000338820815 Eh/a0 ::
         :: HOMO-LUMO gap              3.401792688570 eV    ::
         :: SCC energy              -119.466557867542 Eh    ::
         :: -> dispersion             -0.106830747404 Eh    ::
         :: repulsion energy           1.843172078975 Eh    ::

    * Orbital Energies and Occupations

         #    Occupation            Energy/Eh            Energy/eV
      -------------------------------------------------------------
         1        2.0000           -0.7495314             -20.3958
       ...           ...                  ...                  ...
        95        2.0000           -0.4216736             -11.4743
        96        2.0000           -0.4211876             -11.4611
        97        2.0000           -0.4138019             -11.2601
        98        2.0000           -0.4129461             -11.2368
        99        2.0000           -0.4109368             -11.1822
       100        2.0000           -0.4088040             -11.1241
       101        2.0000           -0.4074897             -11.0884
       102        2.0000           -0.4055028             -11.0343
       103        2.0000           -0.4026169             -10.9558
       104        2.0000           -0.3996971             -10.8763
       105        2.0000           -0.3946313             -10.7385
       106        2.0000           -0.3893517             -10.5948
       107        2.0000           -0.3853952             -10.4871 (HOMO)
       108                         -0.2603816              -7.0853 (LUMO)
       109                         -0.2457448              -6.6871
       110                         -0.2392661              -6.5108
       111                         -0.2375637              -6.4644
       112                         -0.2350198              -6.3952
       113                         -0.2320193              -6.3136
       114                         -0.2279391              -6.2025
       115                         -0.2267974              -6.1715
       116                         -0.2183732              -5.9422
       117                         -0.2017037              -5.4886
       118                         -0.1948899              -5.3032
       ...                                ...                  ...
       204                          0.6717099              18.2782
      -------------------------------------------------------------
                  HL-Gap            0.1250136 Eh            3.4018 eV

     #   Z          covCN         q      C6AA      Î±(0)
     1   6 C        2.924    -0.029    28.725     8.789
     2   6 C        2.920    -0.025    28.637     8.775
     3   6 C        2.920    -0.029    28.713     8.787
     4   6 C        2.920    -0.027    28.669     8.780
     5   6 C        2.924    -0.029    28.727     8.789
     6   6 C        2.974     0.013    27.719     8.636
     7   6 C        3.831     0.051    19.701     6.315
     8   6 C        3.819     0.042    19.860     6.342
     9   6 C        2.975     0.001    27.990     8.678
    10   6 C        2.924    -0.034    28.846     8.808
    11   6 C        2.920    -0.027    28.676     8.781
    12   6 C        2.920    -0.029    28.727     8.789
    13   6 C        2.920    -0.027    28.680     8.782
    14   6 C        2.924    -0.034    28.859     8.810
    15   7 N        2.763    -0.111    23.428     7.189
    16   6 C        2.775     0.273    22.393     7.750
    17   6 C        2.975    -0.013    28.342     8.733
    18   6 C        2.925    -0.023    28.583     8.768
    19   6 C        2.918    -0.028    28.703     8.785
    20   6 C        2.927    -0.035    28.878     8.813
    21   6 C        2.972     0.015    27.675     8.629
    22   6 C        3.855    -0.015    20.801     6.487
    23   6 C        3.755    -0.103    22.519     6.766
    24   6 C        3.756    -0.104    22.532     6.768
    25   6 C        2.928    -0.033    28.826     8.805
    26   8 O        0.862    -0.426    22.206     6.318
    27   6 C        3.770     0.098    19.000     6.212
    28   6 C        2.689     0.368    20.755     7.456
    29   8 O        1.659    -0.377    20.414     6.099
    30   8 O        0.856    -0.393    21.533     6.221
    31   7 N        2.762    -0.126    23.726     7.234
    32   6 C        2.765     0.272    22.401     7.751
    33   6 C        2.976    -0.021    28.517     8.760
    34   6 C        2.931    -0.027    28.671     8.781
    35   6 C        2.973     0.021    27.534     8.607
    36   6 C        3.855    -0.013    20.775     6.483
    37   6 C        3.755    -0.103    22.530     6.768
    38   6 C        3.757    -0.105    22.558     6.772
    39   6 C        2.926    -0.028    28.694     8.785
    40   6 C        2.919    -0.026    28.662     8.779
    41   6 C        2.923    -0.032    28.790     8.799
    42   8 O        0.859    -0.419    22.064     6.298
    43   1 H        0.926     0.034     2.533     2.489
    44   1 H        0.926     0.038     2.478     2.462
    45   1 H        0.926     0.037     2.494     2.469
    46   1 H        0.926     0.036     2.499     2.472
    47   1 H        0.926     0.030     2.590     2.517
    48   1 H        0.923     0.055     2.258     2.350
    49   1 H        0.923     0.045     2.378     2.411
    50   1 H        0.926     0.046     2.375     2.410
    51   1 H        0.926     0.040     2.449     2.447
    52   1 H        0.926     0.039     2.460     2.453
    53   1 H        0.926     0.037     2.484     2.465
    54   1 H        0.926     0.034     2.525     2.485
    55   1 H        0.926     0.048     2.341     2.393
    56   1 H        0.926     0.041     2.438     2.442
    57   1 H        0.926     0.037     2.483     2.464
    58   1 H        0.924     0.035     2.510     2.478
    59   1 H        0.925     0.040     2.442     2.444
    60   1 H        0.925     0.035     2.520     2.482
    61   1 H        0.925     0.035     2.514     2.480
    62   1 H        0.925     0.037     2.494     2.470
    63   1 H        0.925     0.039     2.465     2.455
    64   1 H        0.925     0.040     2.442     2.444
    65   1 H        0.926     0.035     2.519     2.482
    66   1 H        0.923     0.065     2.147     2.292
    67   1 H        0.804     0.338     0.617     1.234
    68   1 H        0.926     0.036     2.499     2.472
    69   1 H        0.924     0.033     2.547     2.496
    70   1 H        0.925     0.035     2.522     2.484
    71   1 H        0.925     0.038     2.481     2.463
    72   1 H        0.925     0.038     2.475     2.460
    73   1 H        0.925     0.039     2.455     2.450
    74   1 H        0.925     0.036     2.504     2.475
    75   1 H        0.925     0.045     2.388     2.417
    76   1 H        0.926     0.040     2.442     2.444
    77   1 H        0.926     0.036     2.500     2.473
    78   1 H        0.926     0.024     2.667     2.554

Wiberg/Mayer (AO) data.
largest (>0.10) Wiberg bond orders for each atom

     #   Z sym  total        # sym  WBO       # sym  WBO       # sym  WBO
 ---------------------------------------------------------------------------
     1   6 C    3.990 --     2 C    1.443     6 C    1.414    43 H    0.969
                             4 C    0.111
     2   6 C    3.992 --     1 C    1.443     3 C    1.440    44 H    0.971
                             5 C    0.111
     3   6 C    3.991 --     2 C    1.440     4 C    1.437    45 H    0.971
                             6 C    0.109
     4   6 C    3.992 --     5 C    1.447     3 C    1.437    46 H    0.971
                             1 C    0.111
     5   6 C    3.991 --     4 C    1.447     6 C    1.410    47 H    0.968
                             2 C    0.111
     6   6 C    3.985 --     1 C    1.414     5 C    1.410     7 C    0.992
                             3 C    0.109
     7   6 C    3.965 --     6 C    0.992    31 N    0.961    48 H    0.952
                             8 C    0.945
     8   6 C    3.966 --     9 C    0.994    15 N    0.962    49 H    0.953
                             7 C    0.945
     9   6 C    3.985 --    14 C    1.416    10 C    1.405     8 C    0.994
                            12 C    0.109
    10   6 C    3.990 --    11 C    1.450     9 C    1.405    50 H    0.965
                            13 C    0.112
    11   6 C    3.992 --    10 C    1.450    12 C    1.434    51 H    0.971
                            14 C    0.109
    12   6 C    3.990 --    13 C    1.442    11 C    1.434    52 H    0.971
                             9 C    0.109
    13   6 C    3.992 --    12 C    1.442    14 C    1.440    53 H    0.970
                            10 C    0.112
    14   6 C    3.991 --    13 C    1.440     9 C    1.416    54 H    0.967
                            11 C    0.109
    15   7 N    3.467 --    16 C    1.224    27 C    0.977     8 C    0.962
                            26 O    0.181
    16   6 C    3.941 --    26 O    1.635    15 N    1.224    17 C    0.987
    17   6 C    3.987 --    25 C    1.402    18 C    1.391    16 C    0.987
                            20 C    0.104
    18   6 C    3.989 --    19 C    1.448    17 C    1.391    55 H    0.969
                            21 C    0.106
    19   6 C    3.991 --    18 C    1.448    20 C    1.438    56 H    0.970
                            25 C    0.107
    20   6 C    3.991 --    19 C    1.438    21 C    1.410    57 H    0.968
                            17 C    0.104
    21   6 C    3.987 --    25 C    1.416    20 C    1.410    22 C    0.998
                            18 C    0.106
    22   6 C    3.995 --    23 C    0.998    21 C    0.998    24 C    0.996
                            58 H    0.968
    23   6 C    3.996 --    22 C    0.998    61 H    0.986    59 H    0.985
                            60 H    0.985
    24   6 C    3.996 --    22 C    0.996    62 H    0.987    63 H    0.985
                            64 H    0.985
    25   6 C    3.991 --    21 C    1.416    17 C    1.402    65 H    0.965
                            19 C    0.107
    26   8 O    2.058 --    16 C    1.635    15 N    0.181
    27   6 C    3.965 --    31 N    0.983    15 N    0.977    66 H    0.945
                            28 C    0.908
    28   6 C    3.923 --    30 O    1.768    29 O    1.122    27 C    0.908
    29   8 O    2.186 --    28 C    1.122    67 H    0.862    30 O    0.165
    30   8 O    2.059 --    28 C    1.768    29 O    0.165
    31   7 N    3.437 --    32 C    1.182    27 C    0.983     7 C    0.961
                            42 O    0.182
    32   6 C    3.942 --    42 O    1.701    31 N    1.182    33 C    0.972
    33   6 C    3.986 --    34 C    1.406    41 C    1.399    32 C    0.972
                            39 C    0.107
    34   6 C    3.990 --    35 C    1.417    33 C    1.406    68 H    0.967
                            40 C    0.107
    35   6 C    3.986 --    34 C    1.417    39 C    1.407    36 C    0.999
                            41 C    0.108
    36   6 C    3.995 --    35 C    0.999    37 C    0.999    38 C    0.995
                            69 H    0.968
    37   6 C    3.996 --    36 C    0.999    70 H    0.987    71 H    0.986
                            72 H    0.985
    38   6 C    3.995 --    36 C    0.995    75 H    0.986    74 H    0.986
                            73 H    0.985
    39   6 C    3.992 --    40 C    1.445    35 C    1.407    76 H    0.967
                            33 C    0.107
    40   6 C    3.992 --    39 C    1.445    41 C    1.441    77 H    0.970
                            34 C    0.107
    41   6 C    3.990 --    40 C    1.441    33 C    1.399    78 H    0.969
                            35 C    0.108
    42   8 O    2.023 --    32 C    1.701    31 N    0.182
    43   1 H    0.999 --     1 C    0.969
    44   1 H    0.998 --     2 C    0.971
    45   1 H    0.998 --     3 C    0.971
    46   1 H    0.998 --     4 C    0.971
    47   1 H    0.999 --     5 C    0.968
    48   1 H    0.996 --     7 C    0.952
    49   1 H    0.998 --     8 C    0.953
    50   1 H    0.998 --    10 C    0.965
    51   1 H    0.998 --    11 C    0.971
    52   1 H    0.998 --    12 C    0.971
    53   1 H    0.998 --    13 C    0.970
    54   1 H    0.999 --    14 C    0.967
    55   1 H    0.997 --    18 C    0.969
    56   1 H    0.997 --    19 C    0.970
    57   1 H    0.998 --    20 C    0.968
    58   1 H    0.998 --    22 C    0.968
    59   1 H    0.998 --    23 C    0.985
    60   1 H    0.999 --    23 C    0.985
    61   1 H    0.999 --    23 C    0.986
    62   1 H    0.999 --    24 C    0.987
    63   1 H    0.998 --    24 C    0.985
    64   1 H    0.997 --    24 C    0.985
    65   1 H    0.999 --    25 C    0.965
    66   1 H    0.995 --    27 C    0.945
    67   1 H    0.886 --    29 O    0.862
    68   1 H    0.999 --    34 C    0.967
    69   1 H    0.999 --    36 C    0.968
    70   1 H    0.999 --    37 C    0.987
    71   1 H    0.998 --    37 C    0.986
    72   1 H    0.999 --    37 C    0.985
    73   1 H    0.998 --    38 C    0.985
    74   1 H    0.998 --    38 C    0.986
    75   1 H    0.998 --    38 C    0.986
    76   1 H    0.998 --    39 C    0.967
    77   1 H    0.998 --    40 C    0.970
    78   1 H    0.999 --    41 C    0.969
 ---------------------------------------------------------------------------

molecular dipole:
                 x           y           z       tot (Debye)
 q only:       -1.786      -0.952       0.440
   full:       -1.887      -0.818       0.345       5.301

           -------------------------------------------------
          | TOTAL ENERGY             -117.620342213722 Eh   |
          | GRADIENT NORM               0.000338820815 Eh/Î± |
          | HOMO-LUMO GAP               3.401792688570 eV   |
           -------------------------------------------------

 * finished run on 2022/03/16 at 22:58:26.155
