   * xtb version 6.3.3 (4ae9cef) compiled by 'conda@95abc7406d43' on 2020-10-14
          program call               : xtb acid_332.xyz --opt --chrg 0 --uhf 0 --gfn 2
          number of atoms            :                    62
          number of electrons        :                   206
          charge                     :                     0
          spin                       :                   0.0

   ID    Z sym.   atoms
    1    6 C      1, 3-16, 18, 20-22, 24, 25, 28, 29, 33-35, 37, 38
    2    8 O      2, 17, 27, 30, 31, 40
    3    7 N      19, 32
    4   16 S      23, 36
    5   35 Br     26, 39
    6    1 H      41-62

          :  Hamiltonian                  GFN2-xTB          :
 * total energy  :  -116.0582424 Eh     change       -0.2826184E-08 Eh
 * total energy  :  -116.0718858 Eh     change       -0.1364337E-01 Eh
 * total energy  :  -116.0763945 Eh     change       -0.4508760E-02 Eh
 * total energy  :  -116.0784148 Eh     change       -0.2020311E-02 Eh
 * total energy  :  -116.0799530 Eh     change       -0.1538170E-02 Eh
 * total energy  :  -116.0811542 Eh     change       -0.1201200E-02 Eh
 * total energy  :  -116.0823960 Eh     change       -0.1241781E-02 Eh
 * total energy  :  -116.0835536 Eh     change       -0.1157582E-02 Eh
 * total energy  :  -116.0847851 Eh     change       -0.1231568E-02 Eh
 * total energy  :  -116.0860196 Eh     change       -0.1234475E-02 Eh
 * total energy  :  -116.1106928 Eh     change       -0.1476239E-04 Eh
 * total energy  :  -116.1107088 Eh     change       -0.1594299E-04 Eh
 * total energy  :  -116.1107265 Eh     change       -0.1767957E-04 Eh
 * total energy  :  -116.1107448 Eh     change       -0.1830276E-04 Eh
 * total energy  :  -116.1107613 Eh     change       -0.1651816E-04 Eh
 * total energy  :  -116.1107745 Eh     change       -0.1320161E-04 Eh
 * total energy  :  -116.1107844 Eh     change       -0.9872717E-05 Eh
 * total energy  :  -116.1107916 Eh     change       -0.7260034E-05 Eh
 * total energy  :  -116.1107963 Eh     change       -0.4681937E-05 Eh
   *** GEOMETRY OPTIMIZATION CONVERGED AFTER 169 ITERATIONS ***

 final structure:
================
62
 xtb: 6.3.3 (4ae9cef)
C        -0.37973863852768   -2.79619381506850    1.47655389425135
O        -0.09411103966447   -1.70329727003828    2.24377128473231
C         0.06816656450954   -1.87381613842221    3.63353229608543
C        -0.46811518550126   -4.09002548140932    1.97608619570834
C        -0.77009817550453   -5.14703855722416    1.13508155260581
C        -0.99008863532365   -4.92910794929019   -0.21112305334071
C        -0.89764943916362   -3.64342670075455   -0.71425285203633
C        -0.59715714069090   -2.57026981708747    0.10779992715364
C        -0.47046418362950   -1.19282616847066   -0.49232240176424
C        -1.39251475280588   -0.13270594485004    0.13514100345138
C        -2.49501646201214    0.25913057467155   -0.81127530580972
C        -3.79125713444940   -0.16069329082905   -0.57468697715878
C        -4.81307614650713    0.14959950826543   -1.45566883107159
C        -4.53330510014773    0.89493502394380   -2.58407172637430
C        -3.24189714969847    1.32304653120463   -2.84104034989919
C        -2.21144921130494    1.00517332649094   -1.96578346206030
O        -0.91046090553266    1.36625470535290   -2.14091388845874
C        -0.56894577352460    2.18671546423344   -3.23080483156560
N        -0.48998760238583    0.96508845782435    0.47366720785873
C        -0.97785366023537    2.19723602204562    0.72861781984280
C         0.02242569916272    3.27633080904348    1.01185754298596
C         0.22811448984019    4.33351316377649    0.17968094889162
S         1.30812667369537    5.49542074688040    0.83108059532455
C         1.46870946202798    4.59327634025008    2.27895570237634
C         0.73490929116716    3.45053636579855    2.22781061604959
Br        0.69676582630366    2.19547091374456    3.64308291108313
O        -2.16403552817142    2.44872068184465    0.74148871980045
C         0.88283605038878    0.51322592377700    0.52140222673549
C         1.89080228689307    1.56429428667896    0.00812013768291
O         2.84439163681681    1.90439703299713    0.88459910243333
O         1.86090881355703    2.03621620387672   -1.08913424492994
N         0.87759298091055   -0.66224333483782   -0.31501599335732
C         1.86419405317294   -1.15661394844439   -1.09958911633779
C         3.24428835208369   -0.63992688433067   -0.85936939883186
C         4.01181838663777   -0.07624279677486   -1.83305140493929
S         5.59785213755920    0.29464020915025   -1.30114987356728
C         5.27223160309804   -0.35518968373332    0.25116241556266
C         3.99398338562782   -0.80898229111410    0.33646659074531
Br        3.30165125496423   -1.60338901058105    1.90495200508833
O         1.65731749957233   -2.01834988030564   -1.92798227826165
H         0.22855171178256   -0.87467615437572    4.03663931654462
H        -0.82629825823816   -2.30755188847550    4.08941382530394
H         0.93932333166667   -2.49498721728352    3.86006632298373
H        -0.29239619630768   -4.28496613394317    3.02164060930244
H        -0.82693338443931   -6.14536143604687    1.54247715902977
H        -1.22340382124969   -5.75226248417975   -0.86801488282582
H        -1.05130729699540   -3.46436663305419   -1.76713738264557
H        -0.65510437466389   -1.27015775873776   -1.56980648652308
H        -1.83927075957352   -0.51286658436770    1.06094264167490
H        -4.00196507976278   -0.73563086562500    0.31483670819359
H        -5.81938323592899   -0.18463433052426   -1.25684836667983
H        -5.32123506445208    1.15012596440968   -3.27700659935846
H        -3.04667467594341    1.90327602087851   -3.72898405794786
H        -0.73365974794660    1.67574532153866   -4.18494839822965
H        -1.13407448084931    3.12446862441043   -3.21877167418677
H         0.49199132116484    2.39623032851529   -3.10481038205890
H        -0.18230536460274    4.47220995477821   -0.79953036589913
H         2.09033581148642    4.94002383143061    3.07964470918588
H         1.13079484521197    0.22389481792341    1.56216895439051
H         2.76877585295845    1.45703474711108    1.74382112535506
H         3.70827718087507    0.16372224166253   -2.83172654731759
H         6.02609510254756   -0.37215469429178    1.01226006498085

          :  Hamiltonian                  GFN2-xTB          :
         :: total energy            -116.110796306731 Eh    ::
         :: gradient norm              0.000901272870 Eh/a0 ::
         :: HOMO-LUMO gap              2.455720218719 eV    ::
         :: SCC energy              -117.544384081669 Eh    ::
         :: -> dispersion             -0.105702296916 Eh    ::
         :: repulsion energy           1.429132887658 Eh    ::

    * Orbital Energies and Occupations

         #    Occupation            Energy/Eh            Energy/eV
      -------------------------------------------------------------
         1        2.0000           -0.8582922             -23.3553
       ...           ...                  ...                  ...
        91        2.0000           -0.4282369             -11.6529
        92        2.0000           -0.4276043             -11.6357
        93        2.0000           -0.4250138             -11.5652
        94        2.0000           -0.4164468             -11.3321
        95        2.0000           -0.4142989             -11.2736
        96        2.0000           -0.4131816             -11.2432
        97        2.0000           -0.4114774             -11.1969
        98        2.0000           -0.4075432             -11.0898
        99        2.0000           -0.4052979             -11.0287
       100        2.0000           -0.4013532             -10.9214
       101        2.0000           -0.3985545             -10.8452
       102        2.0000           -0.3857386             -10.4965
       103        2.0000           -0.3772567             -10.2657 (HOMO)
       104                         -0.2870106              -7.8100 (LUMO)
       105                         -0.2769497              -7.5362
       106                         -0.2682487              -7.2994
       107                         -0.2435215              -6.6266
       108                         -0.2423301              -6.5941
       109                         -0.2408798              -6.5547
       110                         -0.2356802              -6.4132
       111                         -0.2325702              -6.3286
       112                         -0.2243315              -6.1044
       113                         -0.2194192              -5.9707
       114                         -0.2140999              -5.8260
       ...                                ...                  ...
       202                          0.6746889              18.3592
      -------------------------------------------------------------
                  HL-Gap            0.0902461 Eh            2.4557 eV

     #   Z          covCN         q      C6AA      Î±(0)
     1   6 C        2.865     0.140    24.954     8.188
     2   8 O        1.704    -0.274    18.538     5.813
     3   6 C        3.642     0.028    20.445     6.501
     4   6 C        2.918    -0.066    29.632     8.927
     5   6 C        2.921    -0.030    28.741     8.792
     6   6 C        2.917    -0.038    28.951     8.823
     7   6 C        2.926    -0.028    28.707     8.787
     8   6 C        2.971    -0.020    28.493     8.756
     9   6 C        3.831     0.047    19.761     6.325
    10   6 C        3.825     0.049    19.740     6.322
    11   6 C        2.973    -0.010    28.250     8.718
    12   6 C        2.925    -0.031    28.763     8.795
    13   6 C        2.918    -0.039    28.958     8.824
    14   6 C        2.921    -0.030    28.747     8.793
    15   6 C        2.918    -0.064    29.601     8.922
    16   6 C        2.867     0.145    24.848     8.171
    17   8 O        1.705    -0.273    18.527     5.811
    18   6 C        3.643     0.038    20.283     6.475
    19   7 N        2.762    -0.090    22.988     7.121
    20   6 C        2.759     0.281    22.237     7.722
    21   6 C        3.190    -0.039    28.458     8.701
    22   6 C        2.955    -0.017    28.423     8.744
    23  16 S        2.319     0.056   138.774    19.827
    24   6 C        2.996    -0.037    28.900     8.819
    25   6 C        3.144     0.058    26.460     8.417
    26  35 Br       1.027    -0.165   189.610    22.202
    27   8 O        0.859    -0.415    21.974     6.285
    28   6 C        3.750     0.078    19.345     6.273
    29   6 C        2.686     0.353    21.012     7.502
    30   8 O        1.659    -0.371    20.286     6.080
    31   8 O        0.856    -0.354    20.776     6.111
    32   7 N        2.763    -0.095    23.093     7.137
    33   6 C        2.764     0.277    22.308     7.735
    34   6 C        3.190    -0.039    28.470     8.703
    35   6 C        2.954    -0.016    28.407     8.742
    36  16 S        2.317     0.057   138.751    19.825
    37   6 C        3.000    -0.038    28.927     8.823
    38   6 C        3.139     0.057    26.504     8.425
    39  35 Br       1.028    -0.161   189.493    22.195
    40   8 O        0.860    -0.416    22.002     6.289
    41   1 H        0.925     0.068     2.103     2.268
    42   1 H        0.924     0.045     2.379     2.412
    43   1 H        0.924     0.050     2.316     2.380
    44   1 H        0.926     0.043     2.407     2.426
    45   1 H        0.926     0.040     2.446     2.446
    46   1 H        0.926     0.042     2.421     2.433
    47   1 H        0.926     0.050     2.315     2.380
    48   1 H        0.924     0.075     2.030     2.228
    49   1 H        0.924     0.068     2.112     2.272
    50   1 H        0.926     0.039     2.456     2.451
    51   1 H        0.926     0.040     2.449     2.447
    52   1 H        0.926     0.039     2.464     2.455
    53   1 H        0.926     0.039     2.455     2.450
    54   1 H        0.924     0.039     2.458     2.452
    55   1 H        0.924     0.035     2.514     2.479
    56   1 H        0.925     0.077     2.013     2.219
    57   1 H        0.927     0.070     2.087     2.259
    58   1 H        0.926     0.070     2.085     2.258
    59   1 H        0.922     0.072     2.067     2.248
    60   1 H        0.804     0.342     0.607     1.224
    61   1 H        0.926     0.073     2.048     2.238
    62   1 H        0.926     0.070     2.082     2.256

Wiberg/Mayer (AO) data.
largest (>0.10) Wiberg bond orders for each atom

     #   Z sym  total        # sym  WBO       # sym  WBO       # sym  WBO
 ---------------------------------------------------------------------------
     1   6 C    3.935 --     4 C    1.381     8 C    1.327     2 O    1.057
     2   8 O    2.232 --     1 C    1.057     3 C    0.981
     3   6 C    3.941 --     2 O    0.981    42 H    0.976    41 H    0.976
                            43 H    0.974
     4   6 C    3.988 --     5 C    1.436     1 C    1.381    44 H    0.965
                             7 C    0.103
     5   6 C    3.990 --     6 C    1.443     4 C    1.436    45 H    0.971
                             8 C    0.106
     6   6 C    3.991 --     5 C    1.443     7 C    1.428    46 H    0.970
     7   6 C    3.988 --     8 C    1.435     6 C    1.428    47 H    0.966
                             4 C    0.103
     8   6 C    3.981 --     7 C    1.435     1 C    1.327     9 C    0.990
                             5 C    0.106
     9   6 C    3.958 --     8 C    0.990    10 C    0.957    48 H    0.952
                            32 N    0.947
    10   6 C    3.960 --    11 C    0.994     9 C    0.957    49 H    0.951
                            19 N    0.949
    11   6 C    3.982 --    12 C    1.438    16 C    1.319    10 C    0.994
                            14 C    0.106
    12   6 C    3.988 --    11 C    1.438    13 C    1.423    50 H    0.968
                            15 C    0.102
    13   6 C    3.991 --    14 C    1.445    12 C    1.423    51 H    0.971
    14   6 C    3.990 --    13 C    1.445    15 C    1.433    52 H    0.971
                            11 C    0.106
    15   6 C    3.987 --    14 C    1.433    16 C    1.382    53 H    0.966
                            12 C    0.102
    16   6 C    3.936 --    15 C    1.382    11 C    1.319    17 O    1.065
    17   8 O    2.234 --    16 C    1.065    18 C    0.981
    18   6 C    3.942 --    17 O    0.981    55 H    0.977    54 H    0.977
                            56 H    0.975
    19   7 N    3.492 --    20 C    1.237    28 C    0.981    10 C    0.949
                            27 O    0.201
    20   6 C    3.954 --    27 O    1.682    19 N    1.237    21 C    0.948
    21   6 C    3.979 --    22 C    1.585    25 C    1.222    20 C    0.948
    22   6 C    3.954 --    21 C    1.585    23 S    1.213    57 H    0.967
                            24 C    0.108
    23  16 S    2.685 --    22 C    1.213    24 C    1.207
    24   6 C    3.950 --    25 C    1.582    23 S    1.207    58 H    0.968
                            22 C    0.108
    25   6 C    3.927 --    24 C    1.582    21 C    1.222    26 Br   0.974
    26  35 Br   1.132 --    25 C    0.974
    27   8 O    2.033 --    20 C    1.682    19 N    0.201
    28   6 C    3.967 --    32 N    0.983    19 N    0.981    59 H    0.927
                            29 C    0.915
    29   6 C    3.922 --    31 O    1.797    30 O    1.137    28 C    0.915
    30   8 O    2.211 --    29 C    1.137    60 H    0.850    31 O    0.168
    31   8 O    2.090 --    29 C    1.797    30 O    0.168
    32   7 N    3.485 --    33 C    1.225    28 C    0.983     9 C    0.947
                            40 O    0.197
    33   6 C    3.954 --    40 O    1.682    32 N    1.225    34 C    0.960
    34   6 C    3.980 --    35 C    1.581    38 C    1.218    33 C    0.960
    35   6 C    3.954 --    34 C    1.581    36 S    1.218    61 H    0.966
                            37 C    0.107
    36  16 S    2.686 --    35 C    1.218    37 C    1.205
    37   6 C    3.949 --    38 C    1.583    36 S    1.205    62 H    0.968
                            35 C    0.107
    38   6 C    3.929 --    37 C    1.583    34 C    1.218    39 Br   0.980
    39  35 Br   1.140 --    38 C    0.980
    40   8 O    2.026 --    33 C    1.682    32 N    0.197
    41   1 H    0.995 --     3 C    0.976
    42   1 H    0.998 --     3 C    0.976
    43   1 H    0.997 --     3 C    0.974
    44   1 H    0.998 --     4 C    0.965
    45   1 H    0.998 --     5 C    0.971
    46   1 H    0.998 --     6 C    0.970
    47   1 H    0.997 --     7 C    0.966
    48   1 H    0.994 --     9 C    0.952
    49   1 H    0.994 --    10 C    0.951
    50   1 H    0.998 --    12 C    0.968
    51   1 H    0.998 --    13 C    0.971
    52   1 H    0.998 --    14 C    0.971
    53   1 H    0.998 --    15 C    0.966
    54   1 H    0.998 --    18 C    0.977
    55   1 H    0.999 --    18 C    0.977
    56   1 H    0.994 --    18 C    0.975
    57   1 H    0.995 --    22 C    0.967
    58   1 H    0.994 --    24 C    0.968
    59   1 H    0.995 --    28 C    0.927
    60   1 H    0.883 --    30 O    0.850
    61   1 H    0.995 --    35 C    0.966
    62   1 H    0.994 --    37 C    0.968
 ---------------------------------------------------------------------------

molecular dipole:
                 x           y           z       tot (Debye)
 q only:        0.752       0.203       0.495
   full:        0.683       0.398       0.191       2.068

           -------------------------------------------------
          | TOTAL ENERGY             -116.110796306731 Eh   |
          | GRADIENT NORM               0.000901272870 Eh/Î± |
          | HOMO-LUMO GAP               2.455720218719 eV   |
           -------------------------------------------------

 * finished run on 2022/03/16 at 23:55:48.458
