   * xtb version 6.3.3 (4ae9cef) compiled by 'conda@95abc7406d43' on 2020-10-14
          program call               : xtb acid_326.xyz --opt --chrg 0 --uhf 0 --gfn 2
          number of atoms            :                    70
          number of electrons        :                   238
          charge                     :                     0
          spin                       :                   0.0

   ID    Z sym.   atoms
    1    6 C      1-22, 24-28, 34, 35, 39-43
    2    7 N      23, 29, 38, 44
    3    8 O      30-33, 36, 37, 45-48
    4    1 H      49-70

          :  Hamiltonian                  GFN2-xTB          :
 * total energy  :  -136.1718450 Eh     change       -0.1634163E-08 Eh
 * total energy  :  -136.1924130 Eh     change       -0.2056798E-01 Eh
 * total energy  :  -136.1995998 Eh     change       -0.7186729E-02 Eh
 * total energy  :  -136.2024422 Eh     change       -0.2842427E-02 Eh
 * total energy  :  -136.2043624 Eh     change       -0.1920241E-02 Eh
 * total energy  :  -136.2056665 Eh     change       -0.1304035E-02 Eh
 * total energy  :  -136.2068016 Eh     change       -0.1135168E-02 Eh
 * total energy  :  -136.2078255 Eh     change       -0.1023834E-02 Eh
 * total energy  :  -136.2087022 Eh     change       -0.8766927E-03 Eh
 * total energy  :  -136.2096392 Eh     change       -0.9370279E-03 Eh
 * total energy  :  -136.2198074 Eh     change       -0.1730218E-04 Eh
 * total energy  :  -136.2198224 Eh     change       -0.1507305E-04 Eh
 * total energy  :  -136.2198356 Eh     change       -0.1317685E-04 Eh
 * total energy  :  -136.2198487 Eh     change       -0.1305211E-04 Eh
 * total energy  :  -136.2198617 Eh     change       -0.1307080E-04 Eh
 * total energy  :  -136.2198736 Eh     change       -0.1182978E-04 Eh
 * total energy  :  -136.2198835 Eh     change       -0.9918172E-05 Eh
 * total energy  :  -136.2198914 Eh     change       -0.7919514E-05 Eh
 * total energy  :  -136.2198951 Eh     change       -0.3680816E-05 Eh
   *** GEOMETRY OPTIMIZATION CONVERGED AFTER 68 ITERATIONS ***

 final structure:
================
70
 xtb: 6.3.3 (4ae9cef)
C         4.20979030064459   -2.57907592285307   -3.04220377849503
C         4.28461746345944   -1.46888004521001   -3.83395268413428
C         3.36217069709200   -0.42821853703022   -3.66096907288723
C         2.39531913590828   -0.50713641267617   -2.69688434204059
C         2.29827365580464   -1.63176250902397   -1.84922787579561
C         3.22297751025234   -2.69248304394487   -2.04108194171743
C         3.13932874069450   -3.84407689437998   -1.23116658248801
C         2.17468360842641   -3.94497789160072   -0.27303708864182
C         1.27112608160024   -2.89339772282115   -0.06247531431997
C         1.33029761231594   -1.74773193776783   -0.81091918628822
C         0.35510835612852   -0.62050222543221   -0.60979202647132
C        -0.69553171538848   -0.73416834194379    0.51206444085800
C        -1.85421604902935   -1.64235830086627    0.19155559759514
C        -2.60376838051896   -1.36030091944514   -0.92500297616254
C        -3.65838936422270   -2.18834324195214   -1.32580342225246
C        -3.95425866092519   -3.31043570598616   -0.60789040616434
C        -3.23479782654389   -3.62100993711588    0.56341217984830
C        -2.18115771717746   -2.76772196841344    0.99701564881974
C        -1.54002507159283   -3.08994535081513    2.21436500130350
C        -1.88704954789635   -4.20140742371943    2.93076375656325
C        -2.89728570867561   -5.05986442627935    2.47603321748812
C        -3.56125713465699   -4.76630344310694    1.32030352733979
N        -1.11606033758140    0.67083548912545    0.62597076849640
C        -2.16551983632713    1.01180371719526    1.40559381225589
C        -2.62702864167308    2.42258677050451    1.34349201215148
C        -3.53185764145503    3.03570553575774    2.18521762514959
C        -3.75562223306451    4.31943986751900    1.66592240585334
C        -2.97624608313445    4.39595150011398    0.53381048195320
N        -2.83561196370065    5.42982929788278   -0.42069053122379
O        -3.42647395456791    6.46383204632757   -0.20053684037594
O        -2.13965074107534    5.20611050803397   -1.39253762732891
O        -2.28872722015321    3.25311092375766    0.34364805500289
O        -2.75338384703833    0.21723337288673    2.11005661524345
C        -0.15424082001197    1.55205923010662   -0.01514042477010
C        -0.71432277466758    2.15544483503245   -1.32795042099373
O        -0.14867667795309    3.32257908613981   -1.57704780047910
O        -1.53623768434971    1.62445588222104   -2.01700096212830
N         0.96611585572101    0.68237250573261   -0.29242392852511
C         2.16065067752021    0.77161678841903    0.37311056198946
C         2.59835029760555    2.16860915708948    0.67140239895522
C         2.58364859392506    3.31314341128610   -0.09851607894451
C         3.29626748343229    4.28332828866610    0.62383540331898
C         3.69630863126543    3.65356985809014    1.77994365314763
N         4.42354413303358    4.16558079408349    2.88803216952747
O         4.60860370992245    3.43425730174843    3.83218840126179
O         4.79659005005053    5.31732382177551    2.79357415338979
O         3.28120566461702    2.37941612459085    1.80327610396684
O         2.87409326429472   -0.16565382948691    0.62908657018757
H         4.90937630219235   -3.39276294414767   -3.16909510781090
H         5.04525333612063   -1.38648636242148   -4.59605125415683
H         3.41872802860947    0.44184311107857   -4.29903628639910
H         1.69719431533668    0.30922979547975   -2.59035848349769
H         3.85055201746196   -4.64189342900653   -1.38806903957550
H         2.09858914312996   -4.82890889250410    0.34210360188897
H         0.52582677888442   -3.01315276282289    0.70540461872595
H        -0.18526085067151   -0.47541328173799   -1.55547071889977
H        -0.20351090200025   -1.01564638538367    1.44755750580322
H        -2.39316930271406   -0.47780288924436   -1.51011103118038
H        -4.22277839785463   -1.93236605618751   -2.20979873205615
H        -4.75274627039050   -3.96991759737833   -0.91593575514502
H        -0.77814079236733   -2.44167833550608    2.61899084872853
H        -1.38352837408913   -4.42085300540284    3.86078480375613
H        -3.15253124569794   -5.93758238282365    3.05093256998074
H        -4.35794135965645   -5.40472662250157    0.96589530328415
H        -3.96859734315107    2.59204651587053    3.05574018029399
H        -4.39739536873273    5.08828122985729    2.04444361820734
H         0.14165141731160    2.38320803710011    0.63631428325860
H        -0.60315194884634    3.80616014776883   -2.29193153360967
H         2.12159095281034    3.43541503619921   -1.05522095242795
H         3.49831597396028    5.29856699146372    0.35149231178724

          :  Hamiltonian                  GFN2-xTB          :
         :: total energy            -136.219895095331 Eh    ::
         :: gradient norm              0.000445248981 Eh/a0 ::
         :: HOMO-LUMO gap              0.770175042057 eV    ::
         :: SCC energy              -138.001522560833 Eh    ::
         :: -> dispersion             -0.102843718075 Eh    ::
         :: repulsion energy           1.778992745276 Eh    ::

    * Orbital Energies and Occupations

         #    Occupation            Energy/Eh            Energy/eV
      -------------------------------------------------------------
         1        2.0000           -0.8196414             -22.3036
       ...           ...                  ...                  ...
       107        2.0000           -0.4449891             -12.1088
       108        2.0000           -0.4388122             -11.9407
       109        2.0000           -0.4352043             -11.8425
       110        2.0000           -0.4319660             -11.7544
       111        2.0000           -0.4259234             -11.5900
       112        2.0000           -0.4253616             -11.5747
       113        2.0000           -0.4236363             -11.5277
       114        2.0000           -0.4209948             -11.4559
       115        2.0000           -0.4182892             -11.3822
       116        2.0000           -0.4084831             -11.1154
       117        2.0000           -0.4077666             -11.0959
       118        2.0000           -0.3860657             -10.5054
       119        2.0000           -0.3858404             -10.4993 (HOMO)
       120        0.0000           -0.3575370              -9.7291 (LUMO)
       121                         -0.3413993              -9.2899
       122                         -0.2939535              -7.9989
       123                         -0.2858369              -7.7780
       124                         -0.2837117              -7.7202
       125                         -0.2696998              -7.3389
       126                         -0.2690112              -7.3202
       127                         -0.2364628              -6.4345
       128                         -0.2358999              -6.4192
       129                         -0.2319662              -6.3121
       130                         -0.2273688              -6.1870
       ...                                ...                  ...
       214                          0.6881746              18.7262
      -------------------------------------------------------------
                  HL-Gap            0.0283034 Eh            0.7702 eV

     #   Z          covCN         q      C6AA      Î±(0)
     1   6 C        2.921    -0.032    28.788     8.799
     2   6 C        2.915    -0.029    28.722     8.788
     3   6 C        2.917    -0.029    28.725     8.789
     4   6 C        2.917    -0.037    28.929     8.820
     5   6 C        2.986     0.014    27.695     8.633
     6   6 C        2.989     0.020    27.556     8.611
     7   6 C        2.919    -0.032    28.798     8.800
     8   6 C        2.915    -0.026    28.656     8.778
     9   6 C        2.920    -0.034    28.839     8.806
    10   6 C        2.965     0.009    27.823     8.652
    11   6 C        3.862     0.041    19.843     6.335
    12   6 C        3.829     0.044    19.822     6.335
    13   6 C        2.966     0.003    27.957     8.673
    14   6 C        2.923    -0.040    28.994     8.830
    15   6 C        2.914    -0.029    28.719     8.788
    16   6 C        2.921    -0.033    28.833     8.806
    17   6 C        2.989     0.017    27.625     8.622
    18   6 C        2.982     0.017    27.629     8.622
    19   6 C        2.917    -0.031    28.763     8.795
    20   6 C        2.917    -0.027    28.677     8.782
    21   6 C        2.915    -0.028    28.705     8.786
    22   6 C        2.922    -0.033    28.810     8.802
    23   7 N        2.770    -0.106    23.320     7.172
    24   6 C        2.756     0.266    22.510     7.769
    25   6 C        3.119     0.104    25.545     8.278
    26   6 C        3.028    -0.039    28.951     8.826
    27   6 C        3.005    -0.036    28.885     8.816
    28   6 C        3.081     0.116    25.366     8.257
    29   7 N        2.755     0.541    13.577     5.473
    30   8 O        0.933    -0.366    20.983     6.143
    31   8 O        0.932    -0.389    21.429     6.208
    32   8 O        1.726    -0.166    16.795     5.533
    33   8 O        0.860    -0.398    21.637     6.237
    34   6 C        3.786     0.083    19.214     6.244
    35   6 C        2.686     0.359    20.908     7.483
    36   8 O        1.659    -0.360    20.096     6.052
    37   8 O        0.856    -0.374    21.162     6.168
    38   7 N        2.767    -0.126    23.730     7.235
    39   6 C        2.754     0.276    22.327     7.737
    40   6 C        3.133     0.095    25.693     8.298
    41   6 C        3.029    -0.059    29.434     8.899
    42   6 C        3.008    -0.042    29.025     8.838
    43   6 C        3.093     0.114    25.378     8.257
    44   7 N        2.755     0.543    13.560     5.469
    45   8 O        0.931    -0.354    20.757     6.110
    46   8 O        0.933    -0.380    21.247     6.182
    47   8 O        1.728    -0.123    16.168     5.429
    48   8 O        0.858    -0.361    20.923     6.133
    49   1 H        0.926     0.038     2.473     2.459
    50   1 H        0.926     0.035     2.511     2.478
    51   1 H        0.926     0.031     2.568     2.506
    52   1 H        0.926     0.020     2.737     2.587
    53   1 H        0.926     0.041     2.439     2.442
    54   1 H        0.926     0.040     2.449     2.447
    55   1 H        0.926     0.042     2.427     2.436
    56   1 H        0.923     0.074     2.048     2.238
    57   1 H        0.924     0.063     2.166     2.302
    58   1 H        0.926     0.051     2.302     2.373
    59   1 H        0.926     0.039     2.465     2.455
    60   1 H        0.926     0.039     2.466     2.456
    61   1 H        0.926     0.033     2.548     2.496
    62   1 H        0.926     0.036     2.503     2.474
    63   1 H        0.926     0.035     2.515     2.480
    64   1 H        0.926     0.036     2.502     2.473
    65   1 H        0.927     0.097     1.816     2.107
    66   1 H        0.926     0.098     1.799     2.097
    67   1 H        0.924     0.064     2.159     2.298
    68   1 H        0.804     0.370     0.545     1.159
    69   1 H        0.927     0.084     1.934     2.175
    70   1 H        0.926     0.094     1.840     2.121

Wiberg/Mayer (AO) data.
largest (>0.10) Wiberg bond orders for each atom

     #   Z sym  total        # sym  WBO       # sym  WBO       # sym  WBO
 ---------------------------------------------------------------------------
     1   6 C    3.991 --     2 C    1.555     6 C    1.282    49 H    0.968
                             4 C    0.118
     2   6 C    3.992 --     1 C    1.555     3 C    1.325    50 H    0.971
     3   6 C    3.992 --     4 C    1.551     2 C    1.325    51 H    0.971
     4   6 C    3.993 --     3 C    1.551     5 C    1.288    52 H    0.966
                             1 C    0.118
     5   6 C    3.989 --     4 C    1.288     6 C    1.258    10 C    1.241
     6   6 C    3.990 --     1 C    1.282     7 C    1.273     5 C    1.258
     7   6 C    3.991 --     8 C    1.561     6 C    1.273    53 H    0.968
                            10 C    0.114
     8   6 C    3.991 --     7 C    1.561     9 C    1.317    54 H    0.970
     9   6 C    3.990 --    10 C    1.533     8 C    1.317    55 H    0.961
    10   6 C    3.981 --     9 C    1.533     5 C    1.241    11 C    0.995
                             7 C    0.114
    11   6 C    3.948 --    10 C    0.995    12 C    0.960    56 H    0.939
                            38 N    0.938
    12   6 C    3.950 --    13 C    0.991    11 C    0.960    57 H    0.944
                            23 N    0.937
    13   6 C    3.980 --    14 C    1.519    18 C    1.253    12 C    0.991
                            16 C    0.114
    14   6 C    3.988 --    13 C    1.519    15 C    1.329    58 H    0.960
    15   6 C    3.992 --    16 C    1.550    14 C    1.329    59 H    0.970
    16   6 C    3.989 --    15 C    1.550    17 C    1.281    60 H    0.968
                            13 C    0.114
    17   6 C    3.990 --    16 C    1.281    22 C    1.279    18 C    1.251
    18   6 C    3.988 --    19 C    1.282    13 C    1.253    17 C    1.251
    19   6 C    3.992 --    20 C    1.554    18 C    1.282    61 H    0.958
                            22 C    0.118
    20   6 C    3.990 --    19 C    1.554    21 C    1.322    62 H    0.971
    21   6 C    3.992 --    22 C    1.558    20 C    1.322    63 H    0.971
    22   6 C    3.990 --    21 C    1.558    17 C    1.279    64 H    0.968
                            19 C    0.118
    23   7 N    3.487 --    24 C    1.230    34 C    0.974    12 C    0.937
                            33 O    0.207
    24   6 C    3.965 --    33 O    1.661    23 N    1.230    25 C    0.991
    25   6 C    3.902 --    26 C    1.493    32 O    1.129    24 C    0.991
                            28 C    0.119
    26   6 C    3.979 --    25 C    1.493    27 C    1.362    65 H    0.967
    27   6 C    3.979 --    28 C    1.466    26 C    1.362    66 H    0.966
    28   6 C    3.891 --    27 C    1.466    32 O    1.105    29 N    1.014
                            25 C    0.119
    29   7 N    3.918 --    30 O    1.438    31 O    1.413    28 C    1.014
    30   8 O    1.931 --    29 N    1.438    31 O    0.353
    31   8 O    1.914 --    29 N    1.413    30 O    0.353
    32   8 O    2.466 --    25 C    1.129    28 C    1.105
    33   8 O    2.023 --    24 C    1.661    23 N    0.207
    34   6 C    3.968 --    38 N    0.984    23 N    0.974    67 H    0.947
                            35 C    0.903
    35   6 C    3.927 --    37 O    1.779    36 O    1.177    34 C    0.903
    36   8 O    2.230 --    35 C    1.177    68 H    0.829    37 O    0.187
    37   8 O    2.074 --    35 C    1.779    36 O    0.187
    38   7 N    3.429 --    39 C    1.177    34 C    0.984    11 C    0.938
                            48 O    0.189
    39   6 C    3.959 --    48 O    1.728    38 N    1.177    40 C    0.971
    40   6 C    3.906 --    41 C    1.491    47 O    1.152    39 C    0.971
                            43 C    0.120
    41   6 C    3.981 --    40 C    1.491    42 C    1.357    69 H    0.965
    42   6 C    3.981 --    43 C    1.474    41 C    1.357    70 H    0.967
    43   6 C    3.897 --    42 C    1.474    47 O    1.129    44 N    0.997
                            40 C    0.120
    44   7 N    3.920 --    45 O    1.450    46 O    1.424    43 C    0.997
    45   8 O    1.952 --    44 N    1.450    46 O    0.366
    46   8 O    1.919 --    44 N    1.424    45 O    0.366
    47   8 O    2.500 --    40 C    1.152    43 C    1.129
    48   8 O    2.079 --    39 C    1.728    38 N    0.189
    49   1 H    0.998 --     1 C    0.968
    50   1 H    0.998 --     2 C    0.971
    51   1 H    0.999 --     3 C    0.971
    52   1 H    0.999 --     4 C    0.966
    53   1 H    0.997 --     7 C    0.968
    54   1 H    0.998 --     8 C    0.970
    55   1 H    0.998 --     9 C    0.961
    56   1 H    0.994 --    11 C    0.939
    57   1 H    0.994 --    12 C    0.944
    58   1 H    0.997 --    14 C    0.960
    59   1 H    0.997 --    15 C    0.970
    60   1 H    0.997 --    16 C    0.968
    61   1 H    0.998 --    19 C    0.958
    62   1 H    0.998 --    20 C    0.971
    63   1 H    0.998 --    21 C    0.971
    64   1 H    0.998 --    22 C    0.968
    65   1 H    0.990 --    26 C    0.967
    66   1 H    0.990 --    27 C    0.966
    67   1 H    0.995 --    34 C    0.947
    68   1 H    0.863 --    36 O    0.829
    69   1 H    0.992 --    41 C    0.965
    70   1 H    0.990 --    42 C    0.967
 ---------------------------------------------------------------------------

molecular dipole:
                 x           y           z       tot (Debye)
 q only:       -1.254      -1.408      -1.271
   full:       -1.336      -0.784      -1.275       5.101

           -------------------------------------------------
          | TOTAL ENERGY             -136.219895095331 Eh   |
          | GRADIENT NORM               0.000445248981 Eh/Î± |
          | HOMO-LUMO GAP               0.770175042057 eV   |
           -------------------------------------------------

 * finished run on 2022/03/16 at 23:51:39.287
