   * xtb version 6.3.3 (4ae9cef) compiled by 'conda@95abc7406d43' on 2020-10-14
          program call               : xtb acid_78.xyz --opt --chrg 0 --uhf 0 --gfn 2
          number of atoms            :                    62
          number of electrons        :                   206
          charge                     :                     0
          spin                       :                   0.0

   ID    Z sym.   atoms
    1    6 C      1, 3-16, 18, 20-24, 28, 29, 33-37
    2    8 O      2, 17, 27, 30, 31, 40
    3    7 N      19, 32
    4   35 Br     25, 38
    5   16 S      26, 39
    6    1 H      41-62

          :  Hamiltonian                  GFN2-xTB          :
 * total energy  :  -116.0842275 Eh     change       -0.2709882E-08 Eh
 * total energy  :  -116.0985237 Eh     change       -0.1429628E-01 Eh
 * total energy  :  -116.1030198 Eh     change       -0.4496091E-02 Eh
 * total energy  :  -116.1043608 Eh     change       -0.1340987E-02 Eh
 * total energy  :  -116.1051903 Eh     change       -0.8294908E-03 Eh
 * total energy  :  -116.1057343 Eh     change       -0.5439439E-03 Eh
 * total energy  :  -116.1062720 Eh     change       -0.5377645E-03 Eh
 * total energy  :  -116.1067099 Eh     change       -0.4379219E-03 Eh
 * total energy  :  -116.1070551 Eh     change       -0.3451858E-03 Eh
 * total energy  :  -116.1073168 Eh     change       -0.2616279E-03 Eh
 * total energy  :  -116.1127363 Eh     change       -0.1879126E-04 Eh
 * total energy  :  -116.1127539 Eh     change       -0.1759602E-04 Eh
 * total energy  :  -116.1127717 Eh     change       -0.1779914E-04 Eh
 * total energy  :  -116.1127902 Eh     change       -0.1853021E-04 Eh
 * total energy  :  -116.1128090 Eh     change       -0.1872679E-04 Eh
 * total energy  :  -116.1128274 Eh     change       -0.1845252E-04 Eh
 * total energy  :  -116.1128448 Eh     change       -0.1734441E-04 Eh
 * total energy  :  -116.1128598 Eh     change       -0.1507736E-04 Eh
 * total energy  :  -116.1128601 Eh     change       -0.2446276E-06 Eh
   *** GEOMETRY OPTIMIZATION CONVERGED AFTER 94 ITERATIONS ***

 final structure:
================
62
 xtb: 6.3.3 (4ae9cef)
C         2.20361762100964   -1.47787891028603    0.06234055896627
O         2.20821652631541   -1.35545291691902   -1.29572362593067
C         3.05876943994956   -2.19192318009331   -2.04408042857909
C         3.02772997021980   -2.33882943026270    0.77722745379901
C         2.96198532748692   -2.37995102919946    2.15965173863469
C         2.07178676740164   -1.57592284200066    2.84636851525984
C         1.24706189454143   -0.71855827348295    2.14001896681802
C         1.31109588522494   -0.64991401683288    0.75783071430178
C         0.42541561105687    0.29888241204851   -0.00093815431697
C        -1.05935920087208   -0.09990815575192    0.04815914496896
C        -1.42500684666842   -0.92719069908152   -1.15158662470488
C        -1.80617514051627   -0.35108447383742   -2.34897418350946
C        -2.10284006955851   -1.13750450789357   -3.44939700644055
C        -2.00629766350743   -2.51177688703700   -3.34808840700160
C        -1.61140649268333   -3.10556799237691   -2.16082438810551
C        -1.31104122276875   -2.32120632343563   -1.05426720235465
O        -0.88592790527847   -2.80410729934359    0.14684630214368
C        -0.86320830802319   -4.19665220798069    0.34621211055411
N        -1.75380165491118    1.18346698836891    0.10669578748294
C        -3.12222497162056    1.13426846299372    0.25986646285524
C        -3.80801108344062    2.42368655492350    0.45121945895268
C        -3.57380506405663    3.66565511192922   -0.07406209472047
C        -4.53316092420947    4.61954318525001    0.30908404684099
C        -5.48278363746446    4.07249157762283    1.12069008876178
Br       -6.93661395387274    4.97534943216358    1.87872942737610
S        -5.23784054526575    2.39067674160056    1.41753729166607
O        -3.73658512090630    0.09489314160401    0.16416438582240
C        -0.91528444800698    2.14406583460085    0.77463563858670
C        -1.29765522011053    2.26261673000179    2.29074414759253
O        -0.56421632571791    3.09609613211056    2.98719028182361
O        -2.22347226425160    1.64580388596120    2.73443788128055
N         0.43196465687430    1.63832009487901    0.57458467308210
C         1.52578340970158    2.37083072422230    0.83101474882402
C         2.80213688638913    1.77525386559940    0.38250527828975
C         3.22352359253480    1.54658913292865   -0.89492189011510
C         4.49954861315279    0.95462306990017   -0.95775813355537
C         5.01544300209390    0.74188948153643    0.28354801495289
Br        6.64119994424486   -0.09508580415327    0.68639468035656
S         3.98324421607976    1.30028107048511    1.55260239348068
O         1.46831694988392    3.45518937759535    1.40884503193455
H         2.88018720941178   -1.93128193252264   -3.08595261171194
H         4.11166307155174   -2.01841971975923   -1.80036346668889
H         2.81792466668672   -3.24775193337891   -1.89059039670293
H         3.72935857179913   -2.97905138546140    0.26695503793689
H         3.61567342227177   -3.04935985028914    2.69776924577115
H         2.01794236464085   -1.61372725080056    3.92267876180203
H         0.54854058538454   -0.08692609378498    2.66993548015546
H         0.75012158588443    0.34313088401991   -1.04614456122206
H        -1.27464073011023   -0.68104252343434    0.95448881177331
H        -1.88649538649076    0.72405636885254   -2.41322739508287
H        -2.40784854193836   -0.67836765745513   -4.37703955904700
H        -2.23732445729981   -3.13598402045662   -4.19849774126493
H        -1.54171153108300   -4.18061600050789   -2.10831164509947
H        -0.14070995533253   -4.68636658925782   -0.31516806336628
H        -1.85273370904547   -4.63937558118835    0.19920771650211
H        -0.55358904863062   -4.33747908480080    1.38069667449735
H        -2.76790420279860    3.89129374348095   -0.74953270833962
H        -4.52564820960669    5.65000572981959    0.00392739695235
H        -0.99554246998253    3.15125149133529    0.33817562752599
H         0.21233814883452    3.46396998734944    2.46937698099950
H         2.64692191632888    1.79667989290194   -1.76672007503337
H         5.00335144906811    0.69340046699125   -1.87018459642862

          :  Hamiltonian                  GFN2-xTB          :
         :: total energy            -116.112860089601 Eh    ::
         :: gradient norm              0.000357821319 Eh/a0 ::
         :: HOMO-LUMO gap              2.492534804779 eV    ::
         :: SCC energy              -117.537626390526 Eh    ::
         :: -> dispersion             -0.101735287367 Eh    ::
         :: repulsion energy           1.421406956225 Eh    ::

    * Orbital Energies and Occupations

         #    Occupation            Energy/Eh            Energy/eV
      -------------------------------------------------------------
         1        2.0000           -0.8639422             -23.5091
       ...           ...                  ...                  ...
        91        2.0000           -0.4376533             -11.9092
        92        2.0000           -0.4358785             -11.8609
        93        2.0000           -0.4294571             -11.6861
        94        2.0000           -0.4271345             -11.6229
        95        2.0000           -0.4218957             -11.4804
        96        2.0000           -0.4186786             -11.3928
        97        2.0000           -0.4167106             -11.3393
        98        2.0000           -0.4154210             -11.3042
        99        2.0000           -0.4119110             -11.2087
       100        2.0000           -0.4053921             -11.0313
       101        2.0000           -0.4044945             -11.0069
       102        2.0000           -0.3973015             -10.8111
       103        2.0000           -0.3886336             -10.5753 (HOMO)
       104                         -0.2970347              -8.0827 (LUMO)
       105                         -0.2831248              -7.7042
       106                         -0.2663540              -7.2479
       107                         -0.2572734              -7.0008
       108                         -0.2530917              -6.8870
       109                         -0.2493413              -6.7849
       110                         -0.2394984              -6.5171
       111                         -0.2352470              -6.4014
       112                         -0.2294381              -6.2433
       113                         -0.2248427              -6.1183
       114                         -0.2246818              -6.1139
       ...                                ...                  ...
       202                          0.6591414              17.9361
      -------------------------------------------------------------
                  HL-Gap            0.0915990 Eh            2.4925 eV

     #   Z          covCN         q      C6AA      Î±(0)
     1   6 C        2.867     0.139    24.959     8.189
     2   8 O        1.705    -0.280    18.640     5.829
     3   6 C        3.644     0.038    20.275     6.473
     4   6 C        2.917    -0.064    29.600     8.922
     5   6 C        2.921    -0.028    28.712     8.787
     6   6 C        2.917    -0.037    28.922     8.819
     7   6 C        2.924    -0.031    28.778     8.797
     8   6 C        2.973    -0.023    28.579     8.769
     9   6 C        3.823     0.038    19.922     6.352
    10   6 C        3.844     0.054    19.639     6.304
    11   6 C        2.975    -0.008    28.212     8.713
    12   6 C        2.923    -0.030    28.739     8.791
    13   6 C        2.918    -0.039    28.972     8.827
    14   6 C        2.921    -0.030    28.757     8.794
    15   6 C        2.918    -0.064    29.584     8.919
    16   6 C        2.869     0.144    24.861     8.173
    17   8 O        1.705    -0.274    18.546     5.814
    18   6 C        3.644     0.039    20.265     6.471
    19   7 N        2.761    -0.137    23.955     7.269
    20   6 C        2.815     0.283    22.209     7.721
    21   6 C        2.993    -0.023    28.569     8.768
    22   6 C        3.115    -0.051    29.107     8.838
    23   6 C        3.136    -0.054    29.116     8.832
    24   6 C        2.945     0.076    26.303     8.412
    25  35 Br       1.141    -0.114   188.188    22.119
    26  16 S        2.484     0.099   137.085    19.706
    27   8 O        0.859    -0.402    21.721     6.249
    28   6 C        3.764     0.079    19.305     6.263
    29   6 C        2.683     0.350    21.056     7.509
    30   8 O        1.654    -0.365    20.177     6.064
    31   8 O        0.856    -0.367    21.038     6.149
    32   7 N        2.766    -0.104    23.286     7.167
    33   6 C        2.788     0.270    22.448     7.761
    34   6 C        2.998    -0.016    28.406     8.743
    35   6 C        3.112    -0.038    28.797     8.791
    36   6 C        3.137    -0.050    28.995     8.813
    37   6 C        2.943     0.077    26.271     8.406
    38  35 Br       1.141    -0.114   188.183    22.118
    39  16 S        2.464     0.058   138.712    19.822
    40   8 O        0.860    -0.453    22.776     6.399
    41   1 H        0.925     0.065     2.142     2.289
    42   1 H        0.924     0.045     2.389     2.417
    43   1 H        0.924     0.046     2.373     2.409
    44   1 H        0.926     0.046     2.375     2.410
    45   1 H        0.926     0.048     2.348     2.396
    46   1 H        0.926     0.048     2.339     2.391
    47   1 H        0.926     0.040     2.446     2.446
    48   1 H        0.924     0.069     2.096     2.264
    49   1 H        0.923     0.076     2.016     2.220
    50   1 H        0.926     0.036     2.499     2.472
    51   1 H        0.926     0.040     2.447     2.446
    52   1 H        0.926     0.041     2.436     2.441
    53   1 H        0.926     0.041     2.430     2.438
    54   1 H        0.924     0.038     2.482     2.464
    55   1 H        0.924     0.049     2.329     2.386
    56   1 H        0.925     0.064     2.158     2.297
    57   1 H        0.926     0.042     2.418     2.432
    58   1 H        0.926     0.063     2.162     2.299
    59   1 H        0.923     0.064     2.148     2.292
    60   1 H        0.799     0.368     0.548     1.163
    61   1 H        0.926     0.058     2.228     2.334
    62   1 H        0.926     0.067     2.123     2.279

Wiberg/Mayer (AO) data.
largest (>0.10) Wiberg bond orders for each atom

     #   Z sym  total        # sym  WBO       # sym  WBO       # sym  WBO
 ---------------------------------------------------------------------------
     1   6 C    3.934 --     4 C    1.380     8 C    1.325     2 O    1.059
     2   8 O    2.228 --     1 C    1.059     3 C    0.979
     3   6 C    3.941 --     2 O    0.979    41 H    0.979    43 H    0.977
                            42 H    0.975
     4   6 C    3.987 --     5 C    1.437     1 C    1.380    44 H    0.965
                             7 C    0.103
     5   6 C    3.990 --     6 C    1.440     4 C    1.437    45 H    0.970
                             8 C    0.106
     6   6 C    3.991 --     5 C    1.440     7 C    1.430    46 H    0.970
     7   6 C    3.990 --     8 C    1.432     6 C    1.430    47 H    0.967
                             4 C    0.103
     8   6 C    3.981 --     7 C    1.432     1 C    1.325     9 C    0.992
                             5 C    0.106
     9   6 C    3.956 --     8 C    0.992    10 C    0.952    48 H    0.949
                            32 N    0.949
    10   6 C    3.961 --    11 C    0.994    19 N    0.957     9 C    0.952
                            49 H    0.946
    11   6 C    3.982 --    12 C    1.440    16 C    1.322    10 C    0.994
                            14 C    0.106
    12   6 C    3.990 --    11 C    1.440    13 C    1.424    50 H    0.968
                            15 C    0.102
    13   6 C    3.991 --    14 C    1.445    12 C    1.424    51 H    0.971
    14   6 C    3.990 --    13 C    1.445    15 C    1.434    52 H    0.971
                            11 C    0.106
    15   6 C    3.987 --    14 C    1.434    16 C    1.382    53 H    0.966
                            12 C    0.102
    16   6 C    3.934 --    15 C    1.382    11 C    1.322    17 O    1.062
    17   8 O    2.232 --    16 C    1.062    18 C    0.982
    18   6 C    3.943 --    17 O    0.982    56 H    0.979    54 H    0.976
                            55 H    0.976
    19   7 N    3.393 --    20 C    1.143    28 C    1.000    10 C    0.957
                            27 O    0.167
    20   6 C    3.950 --    27 O    1.701    19 N    1.143    21 C    1.017
    21   6 C    3.949 --    22 C    1.540    26 S    1.168    20 C    1.017
    22   6 C    3.986 --    21 C    1.540    23 C    1.301    57 H    0.960
    23   6 C    3.981 --    24 C    1.541    22 C    1.301    58 H    0.963
    24   6 C    3.911 --    23 C    1.541    26 S    1.206    25 Br   1.019
    25  35 Br   1.165 --    24 C    1.019
    26  16 S    2.687 --    24 C    1.206    21 C    1.168
    27   8 O    2.038 --    20 C    1.701    19 N    0.167
    28   6 C    3.959 --    19 N    1.000    32 N    0.969    59 H    0.937
                            29 C    0.880
    29   6 C    3.930 --    31 O    1.772    30 O    1.218    28 C    0.880
    30   8 O    2.246 --    29 C    1.218    60 H    0.755    31 O    0.184
    31   8 O    2.091 --    29 C    1.772    30 O    0.184
    32   7 N    3.515 --    33 C    1.281    28 C    0.969     9 C    0.949
                            40 O    0.191
    33   6 C    3.951 --    40 O    1.580    32 N    1.281    34 C    0.991
    34   6 C    3.947 --    35 C    1.569    39 S    1.157    33 C    0.991
                            37 C    0.103
    35   6 C    3.985 --    34 C    1.569    36 C    1.283    61 H    0.961
    36   6 C    3.982 --    37 C    1.561    35 C    1.283    62 H    0.961
    37   6 C    3.908 --    36 C    1.561    39 S    1.181    38 Br   1.021
                            34 C    0.103
    38  35 Br   1.171 --    37 C    1.021
    39  16 S    2.653 --    37 C    1.181    34 C    1.157
    40   8 O    2.019 --    33 C    1.580    32 N    0.191
    41   1 H    0.995 --     3 C    0.979
    42   1 H    0.998 --     3 C    0.975
    43   1 H    0.998 --     3 C    0.977
    44   1 H    0.997 --     4 C    0.965
    45   1 H    0.997 --     5 C    0.970
    46   1 H    0.997 --     6 C    0.970
    47   1 H    0.998 --     7 C    0.967
    48   1 H    0.995 --     9 C    0.949
    49   1 H    0.993 --    10 C    0.946
    50   1 H    0.998 --    12 C    0.968
    51   1 H    0.998 --    13 C    0.971
    52   1 H    0.998 --    14 C    0.971
    53   1 H    0.998 --    15 C    0.966
    54   1 H    0.999 --    18 C    0.976
    55   1 H    0.997 --    18 C    0.976
    56   1 H    0.996 --    18 C    0.979
    57   1 H    0.998 --    22 C    0.960
    58   1 H    0.995 --    23 C    0.963
    59   1 H    0.995 --    28 C    0.937
    60   1 H    0.864 --    30 O    0.755
    61   1 H    0.997 --    35 C    0.961
    62   1 H    0.995 --    36 C    0.961
 ---------------------------------------------------------------------------

molecular dipole:
                 x           y           z       tot (Debye)
 q only:        2.134      -1.568      -1.961
   full:        2.585      -1.620      -2.632      10.241

           -------------------------------------------------
          | TOTAL ENERGY             -116.112860089601 Eh   |
          | GRADIENT NORM               0.000357821319 Eh/Î± |
          | HOMO-LUMO GAP               2.492534804779 eV   |
           -------------------------------------------------

 * finished run on 2022/03/17 at 02:04:55.643
