   * xtb version 6.3.3 (4ae9cef) compiled by 'conda@95abc7406d43' on 2020-10-14
          program call               : xtb acid_340.xyz --opt --chrg 0 --uhf 0 --gfn 2
          number of atoms            :                    92
          number of electrons        :                   250
          charge                     :                     0
          spin                       :                   0.0

   ID    Z sym.   atoms
    1    6 C      1, 3-16, 18, 20-30, 32, 33, 37-47
    2    8 O      2, 17, 31, 34, 35, 48
    3    7 N      19, 36
    4    1 H      49-92

          :  Hamiltonian                  GFN2-xTB          :
 * total energy  :  -138.3869853 Eh     change       -0.3169362E-08 Eh
 * total energy  :  -138.4043014 Eh     change       -0.1731610E-01 Eh
 * total energy  :  -138.4098814 Eh     change       -0.5580093E-02 Eh
 * total energy  :  -138.4115707 Eh     change       -0.1689254E-02 Eh
 * total energy  :  -138.4127647 Eh     change       -0.1194037E-02 Eh
 * total energy  :  -138.4134124 Eh     change       -0.6476435E-03 Eh
 * total energy  :  -138.4138229 Eh     change       -0.4105406E-03 Eh
 * total energy  :  -138.4141587 Eh     change       -0.3358117E-03 Eh
 * total energy  :  -138.4144280 Eh     change       -0.2693098E-03 Eh
 * total energy  :  -138.4146225 Eh     change       -0.1944363E-03 Eh
 * total energy  :  -138.4170526 Eh     change       -0.7458739E-05 Eh
 * total energy  :  -138.4170604 Eh     change       -0.7821015E-05 Eh
 * total energy  :  -138.4170674 Eh     change       -0.7006789E-05 Eh
 * total energy  :  -138.4170753 Eh     change       -0.7928486E-05 Eh
 * total energy  :  -138.4170855 Eh     change       -0.1020514E-04 Eh
 * total energy  :  -138.4170954 Eh     change       -0.9851162E-05 Eh
 * total energy  :  -138.4171047 Eh     change       -0.9289769E-05 Eh
 * total energy  :  -138.4171119 Eh     change       -0.7207267E-05 Eh
 * total energy  :  -138.4171168 Eh     change       -0.4937036E-05 Eh
   *** GEOMETRY OPTIMIZATION CONVERGED AFTER 52 ITERATIONS ***

 final structure:
================
92
 xtb: 6.3.3 (4ae9cef)
C        -0.88116975347591    2.70008407392578    1.09612922513526
O        -1.01376535031966    1.46388062496950    1.66242397386408
C        -1.29271556275381    1.37727402051928    3.03766285951038
C        -0.91232196991100    3.89065204479001    1.80910067638441
C        -0.72916904151407    5.09978408603628    1.15918358258385
C        -0.51579248152011    5.13572561835829   -0.20425575007366
C        -0.50034884022023    3.95173838501871   -0.92142057037549
C        -0.68544092120474    2.73426733490721   -0.29308154990406
C        -0.62751479299294    1.45717688253380   -1.08094792645498
C         0.62079587065751    0.62317067818143   -0.70812443291479
C         1.78094385574785    0.87817116942658   -1.62910648107684
C         1.90631958258656    0.23052965557778   -2.84466029489901
C         2.98406340593647    0.48365145381490   -3.67620517769626
C         3.93975616644961    1.40255418014999   -3.28897443853434
C         3.82672900182105    2.06871055984111   -2.08000795244178
C         2.75113191543098    1.81347854299339   -1.23944630685354
O         2.55524267770460    2.40945506547398   -0.02941625857721
C         3.50117453825871    3.34427599866300    0.42523639894739
N         0.13748833688338   -0.74664940193331   -0.72003952303325
C         0.80374299022478   -1.81179896745728   -0.20338357097192
C         2.24169477822094   -1.51442875854824    0.08262819518770
C         2.62018741667274   -0.86389610046219    1.24668125088480
C         3.94699875705606   -0.53760833966192    1.46807100825367
C         4.93092977114864   -0.85112211895757    0.53880909421043
C         6.39558625446007   -0.48771763632928    0.72849290509342
C         7.22869338181057   -1.77632476452485    0.76871786733988
C         6.84900424881239    0.38755112159458   -0.44836294579776
C         6.65071692569369    0.28587726670779    2.02525228772387
C         4.53940082370758   -1.53635784732855   -0.60891125150058
C         3.21920487239451   -1.86814503640927   -0.83664421029125
O         0.26998363469744   -2.88838030584879   -0.03355948027373
C        -1.27827462740594   -0.80072493917384   -0.98099992446164
C        -1.61042579936605   -1.28585695310223   -2.40612746466034
O        -0.65888783030929   -2.05824374848337   -2.91968381762290
O        -2.62629325686240   -1.01035799182214   -2.98045363404146
N        -1.72767659472884    0.55002712541240   -0.78598514260222
C        -3.01866921236339    0.97738432124220   -0.70862025704638
C        -4.01438615926824   -0.07511727862678   -0.35944951599779
C        -3.89675422682379   -0.81769291894932    0.80985159868187
C        -4.85963315708506   -1.75009244012080    1.14048326899895
C        -5.96311702346209   -1.97964499806125    0.32052938372849
C        -6.98783434357759   -3.02831570275359    0.72409472464782
C        -8.12090485640469   -3.16976970890779   -0.29581460019473
C        -7.60429879602441   -2.62960951588717    2.07244444988632
C        -6.28829938095411   -4.38894063339682    0.85195996947888
C        -6.07506413650430   -1.21816962341428   -0.83654216143119
C        -5.12270581959997   -0.27079497292843   -1.16833688232748
O        -3.32076437111550    2.14219212671706   -0.86614741065154
H        -2.23978084544797    1.86539403493643    3.28745822842151
H        -1.36779520426410    0.31247930870059    3.25752433134390
H        -0.48793513656724    1.80943330797101    3.64211980132795
H        -1.08046202028362    3.88975040118764    2.87459793532831
H        -0.75669293832249    6.01563740869763    1.73111826176644
H        -0.37233019256433    6.07811216007932   -0.71015968866814
H        -0.34837681264084    3.97064176322556   -1.99046612446170
H        -0.61719748783973    1.69254327526993   -2.15585932046785
H         0.92817617167438    0.89140323500643    0.30723116928408
H         1.16074715911018   -0.49531661412703   -3.12931167328906
H         3.07491949531100   -0.03334751543159   -4.61903045914302
H         4.78469245412114    1.61049704873147   -3.92835458496129
H         4.58208208905858    2.78808660338542   -1.80612174512672
H         3.13485419648867    3.68200864257503    1.39329613078445
H         3.57516913015687    4.20326975733021   -0.24848949338101
H         4.48894755368784    2.88803516117988    0.54857763810344
H         1.87615233157669   -0.60922911133177    1.98805707289119
H         4.19771767454067   -0.02610796873972    2.38318861847853
H         8.27918893096685   -1.53917356101705    0.92352058508175
H         7.13824757974858   -2.33450943607652   -0.15865088843713
H         6.89451786808939   -2.41431887975626    1.58396089212787
H         7.89149710709396    0.67321887857315   -0.32409064907553
H         6.24556102513367    1.29106596583920   -0.49897359259161
H         6.74823405577153   -0.13545597006722   -1.39478190004050
H         6.38655495225178   -0.31061836035366    2.89511806727430
H         7.70808617742481    0.53303942940389    2.09778774218732
H         6.08670521752572    1.21591538260981    2.04707267184065
H         5.27330985242652   -1.81666438356906   -1.34891474329724
H         2.93888148362413   -2.39563599554600   -1.73574503860065
H        -1.75925769269898   -1.52043166746220   -0.30083956982748
H        -0.92724601124053   -2.40860993495081   -3.78556579490769
H        -3.05930191525259   -0.64755679493727    1.47151692033995
H        -4.74178138050648   -2.30757761568823    2.05773104223207
H        -8.81376507495231   -3.94005877838571    0.03719376865971
H        -7.73570074816582   -3.46275568781341   -1.26956718194082
H        -8.67627935308296   -2.24029125234528   -0.39610087116997
H        -6.85022926228434   -2.57550702932860    2.85265260128490
H        -8.08278959039415   -1.65572955109477    1.99286584568155
H        -8.35345197295544   -3.35939752531897    2.37234071643574
H        -7.01096825169653   -5.15780527902494    1.11736658218604
H        -5.51670864382971   -4.37001366571098    1.61631561240026
H        -5.82422901116259   -4.66247922138270   -0.09321157851188
H        -6.91392334543940   -1.34852218813668   -1.50008305099595
H        -5.22559751481980    0.31472358911007   -2.06839407440913

          :  Hamiltonian                  GFN2-xTB          :
         :: total energy            -138.417116811775 Eh    ::
         :: gradient norm              0.000379253581 Eh/a0 ::
         :: HOMO-LUMO gap              3.283599136860 eV    ::
         :: SCC energy              -140.456763040532 Eh    ::
         :: -> dispersion             -0.126661179895 Eh    ::
         :: repulsion energy           2.034486642771 Eh    ::

    * Orbital Energies and Occupations

         #    Occupation            Energy/Eh            Energy/eV
      -------------------------------------------------------------
         1        2.0000           -0.7627230             -20.7547
       ...           ...                  ...                  ...
       113        2.0000           -0.4145712             -11.2811
       114        2.0000           -0.4071813             -11.0800
       115        2.0000           -0.4059709             -11.0470
       116        2.0000           -0.4028013             -10.9608
       117        2.0000           -0.3979699             -10.8293
       118        2.0000           -0.3972381             -10.8094
       119        2.0000           -0.3943432             -10.7306
       120        2.0000           -0.3913355             -10.6488
       121        2.0000           -0.3888364             -10.5808
       122        2.0000           -0.3863914             -10.5142
       123        2.0000           -0.3820204             -10.3953
       124        2.0000           -0.3816006             -10.3839
       125        2.0000           -0.3710288             -10.0962 (HOMO)
       126                         -0.2503588              -6.8126 (LUMO)
       127                         -0.2373043              -6.4574
       128                         -0.2309771              -6.2852
       129                         -0.2283050              -6.2125
       130                         -0.2255220              -6.1368
       131                         -0.2223499              -6.0504
       132                         -0.2205014              -6.0001
       133                         -0.2147410              -5.8434
       134                         -0.2116980              -5.7606
       135                         -0.2074589              -5.6452
       136                         -0.1850670              -5.0359
       ...                                ...                  ...
       236                          0.6803883              18.5143
      -------------------------------------------------------------
                  HL-Gap            0.1206700 Eh            3.2836 eV

     #   Z          covCN         q      C6AA      Î±(0)
     1   6 C        2.867     0.146    24.825     8.167
     2   8 O        1.705    -0.275    18.566     5.817
     3   6 C        3.643     0.044    20.183     6.458
     4   6 C        2.918    -0.064    29.593     8.921
     5   6 C        2.921    -0.031    28.775     8.797
     6   6 C        2.918    -0.038    28.945     8.823
     7   6 C        2.925    -0.027    28.669     8.781
     8   6 C        2.973    -0.001    28.052     8.688
     9   6 C        3.837     0.056    19.607     6.299
    10   6 C        3.827     0.034    19.975     6.360
    11   6 C        2.972    -0.022    28.551     8.765
    12   6 C        2.923    -0.036    28.903     8.816
    13   6 C        2.918    -0.041    29.019     8.834
    14   6 C        2.921    -0.032    28.796     8.800
    15   6 C        2.917    -0.065    29.612     8.924
    16   6 C        2.869     0.138    24.990     8.194
    17   8 O        1.705    -0.276    18.572     5.819
    18   6 C        3.644     0.040    20.231     6.465
    19   7 N        2.766    -0.108    23.358     7.178
    20   6 C        2.764     0.273    22.379     7.747
    21   6 C        2.979    -0.016    28.408     8.743
    22   6 C        2.922    -0.028    28.701     8.785
    23   6 C        2.925    -0.037    28.928     8.820
    24   6 C        2.973     0.009    27.805     8.649
    25   6 C        3.903     0.025    20.090     6.371
    26   6 C        3.762    -0.107    22.589     6.775
    27   6 C        3.762    -0.104    22.540     6.768
    28   6 C        3.761    -0.107    22.590     6.775
    29   6 C        2.928    -0.034    28.849     8.808
    30   6 C        2.922    -0.026    28.661     8.779
    31   8 O        0.859    -0.429    22.268     6.327
    32   6 C        3.776     0.092    19.080     6.224
    33   6 C        2.688     0.351    21.036     7.506
    34   8 O        1.659    -0.354    19.969     6.033
    35   8 O        0.856    -0.391    21.508     6.218
    36   7 N        2.767    -0.110    23.400     7.184
    37   6 C        2.761     0.279    22.278     7.730
    38   6 C        2.976    -0.018    28.464     8.751
    39   6 C        2.921    -0.036    28.899     8.816
    40   6 C        2.927    -0.035    28.877     8.813
    41   6 C        2.973     0.011    27.757     8.642
    42   6 C        3.903     0.026    20.087     6.371
    43   6 C        3.761    -0.109    22.626     6.781
    44   6 C        3.762    -0.106    22.569     6.772
    45   6 C        3.762    -0.106    22.577     6.773
    46   6 C        2.925    -0.037    28.917     8.819
    47   6 C        2.923    -0.018    28.464     8.749
    48   8 O        0.859    -0.423    22.149     6.310
    49   1 H        0.924     0.043     2.405     2.425
    50   1 H        0.925     0.057     2.230     2.335
    51   1 H        0.924     0.037     2.484     2.465
    52   1 H        0.926     0.038     2.476     2.461
    53   1 H        0.926     0.037     2.490     2.467
    54   1 H        0.926     0.038     2.475     2.460
    55   1 H        0.926     0.039     2.465     2.455
    56   1 H        0.923     0.043     2.412     2.429
    57   1 H        0.924     0.077     2.012     2.218
    58   1 H        0.926     0.047     2.354     2.399
    59   1 H        0.926     0.039     2.461     2.453
    60   1 H        0.926     0.040     2.450     2.448
    61   1 H        0.926     0.039     2.463     2.454
    62   1 H        0.925     0.063     2.170     2.304
    63   1 H        0.924     0.043     2.405     2.425
    64   1 H        0.924     0.041     2.437     2.441
    65   1 H        0.926     0.032     2.553     2.499
    66   1 H        0.926     0.041     2.437     2.441
    67   1 H        0.925     0.039     2.461     2.453
    68   1 H        0.925     0.038     2.469     2.457
    69   1 H        0.925     0.037     2.495     2.470
    70   1 H        0.925     0.039     2.464     2.455
    71   1 H        0.925     0.029     2.605     2.524
    72   1 H        0.925     0.038     2.481     2.463
    73   1 H        0.925     0.038     2.473     2.459
    74   1 H        0.925     0.038     2.478     2.462
    75   1 H        0.925     0.032     2.564     2.504
    76   1 H        0.926     0.035     2.514     2.479
    77   1 H        0.926     0.037     2.486     2.466
    78   1 H        0.923     0.096     1.821     2.111
    79   1 H        0.804     0.341     0.611     1.228
    80   1 H        0.926     0.031     2.571     2.507
    81   1 H        0.926     0.034     2.537     2.491
    82   1 H        0.925     0.037     2.491     2.468
    83   1 H        0.925     0.037     2.485     2.465
    84   1 H        0.925     0.037     2.486     2.466
    85   1 H        0.925     0.036     2.497     2.471
    86   1 H        0.925     0.035     2.516     2.481
    87   1 H        0.925     0.038     2.475     2.460
    88   1 H        0.925     0.038     2.477     2.461
    89   1 H        0.925     0.038     2.482     2.464
    90   1 H        0.925     0.035     2.515     2.480
    91   1 H        0.926     0.044     2.393     2.419
    92   1 H        0.926     0.051     2.303     2.373

Wiberg/Mayer (AO) data.
largest (>0.10) Wiberg bond orders for each atom

     #   Z sym  total        # sym  WBO       # sym  WBO       # sym  WBO
 ---------------------------------------------------------------------------
     1   6 C    3.934 --     4 C    1.388     8 C    1.321     2 O    1.054
     2   8 O    2.225 --     1 C    1.054     3 C    0.985
     3   6 C    3.947 --     2 O    0.985    50 H    0.979    49 H    0.977
                            51 H    0.976
     4   6 C    3.987 --     5 C    1.430     1 C    1.388    52 H    0.966
                             7 C    0.101
     5   6 C    3.990 --     6 C    1.447     4 C    1.430    53 H    0.971
                             8 C    0.107
     6   6 C    3.991 --     5 C    1.447     7 C    1.423    54 H    0.971
     7   6 C    3.989 --     8 C    1.439     6 C    1.423    55 H    0.968
                             4 C    0.101
     8   6 C    3.984 --     7 C    1.439     1 C    1.321     9 C    0.998
                             5 C    0.107
     9   6 C    3.970 --     8 C    0.998    36 N    0.960    56 H    0.955
                            10 C    0.946
    10   6 C    3.964 --    11 C    0.995    19 N    0.963     9 C    0.946
                            57 H    0.944
    11   6 C    3.984 --    12 C    1.438    16 C    1.321    10 C    0.995
                            14 C    0.106
    12   6 C    3.989 --    11 C    1.438    13 C    1.424    58 H    0.964
                            15 C    0.102
    13   6 C    3.991 --    14 C    1.445    12 C    1.424    59 H    0.971
    14   6 C    3.990 --    13 C    1.445    15 C    1.432    60 H    0.971
                            11 C    0.106
    15   6 C    3.987 --    14 C    1.432    16 C    1.383    61 H    0.965
                            12 C    0.102
    16   6 C    3.933 --    15 C    1.383    11 C    1.321    17 O    1.059
    17   8 O    2.231 --    16 C    1.059    18 C    0.983
    18   6 C    3.944 --    17 O    0.983    62 H    0.979    63 H    0.976
                            64 H    0.974
    19   7 N    3.467 --    20 C    1.210    32 C    0.988    10 C    0.963
                            31 O    0.189
    20   6 C    3.943 --    31 O    1.692    19 N    1.210    21 C    0.957
    21   6 C    3.987 --    22 C    1.412    30 C    1.398    20 C    0.957
                            24 C    0.109
    22   6 C    3.991 --    23 C    1.438    21 C    1.412    65 H    0.969
                            29 C    0.110
    23   6 C    3.991 --    22 C    1.438    24 C    1.419    66 H    0.965
                            30 C    0.107
    24   6 C    3.986 --    23 C    1.419    29 C    1.403    25 C    0.985
                            21 C    0.109
    25   6 C    3.992 --    28 C    1.000    27 C    0.987    26 C    0.987
                            24 C    0.985
    26   6 C    3.995 --    25 C    0.987    69 H    0.987    67 H    0.984
                            68 H    0.984
    27   6 C    3.996 --    25 C    0.987    70 H    0.984    71 H    0.984
                            72 H    0.983
    28   6 C    3.996 --    25 C    1.000    73 H    0.984    74 H    0.984
                            75 H    0.984
    29   6 C    3.991 --    30 C    1.455    24 C    1.403    76 H    0.964
                            22 C    0.110
    30   6 C    3.990 --    29 C    1.455    21 C    1.398    77 H    0.969
                            23 C    0.107
    31   8 O    2.012 --    20 C    1.692    19 N    0.189
    32   6 C    3.970 --    36 N    0.992    19 N    0.988    78 H    0.918
                            33 C    0.914
    33   6 C    3.918 --    35 O    1.777    34 O    1.157    32 C    0.914
    34   8 O    2.227 --    33 C    1.157    79 H    0.857    35 O    0.181
    35   8 O    2.060 --    33 C    1.777    34 O    0.181
    36   7 N    3.449 --    37 C    1.191    32 C    0.992     9 C    0.960
                            48 O    0.182
    37   6 C    3.941 --    48 O    1.693    36 N    1.191    38 C    0.972
    38   6 C    3.986 --    47 C    1.409    39 C    1.388    37 C    0.972
                            41 C    0.106
    39   6 C    3.991 --    40 C    1.460    38 C    1.388    80 H    0.967
                            46 C    0.106
    40   6 C    3.991 --    39 C    1.460    41 C    1.399    81 H    0.964
                            47 C    0.108
    41   6 C    3.986 --    46 C    1.419    40 C    1.399    42 C    0.985
                            38 C    0.106
    42   6 C    3.992 --    43 C    1.000    45 C    0.987    44 C    0.986
                            41 C    0.985
    43   6 C    3.996 --    42 C    1.000    83 H    0.985    84 H    0.984
                            82 H    0.984
    44   6 C    3.995 --    86 H    0.987    42 C    0.986    87 H    0.984
                            85 H    0.984
    45   6 C    3.995 --    42 C    0.987    90 H    0.987    88 H    0.984
                            89 H    0.983
    46   6 C    3.991 --    47 C    1.440    41 C    1.419    91 H    0.964
                            39 C    0.106
    47   6 C    3.989 --    46 C    1.440    38 C    1.409    92 H    0.968
                            40 C    0.108
    48   8 O    2.017 --    37 C    1.693    36 N    0.182
    49   1 H    0.998 --     3 C    0.977
    50   1 H    0.996 --     3 C    0.979
    51   1 H    0.999 --     3 C    0.976
    52   1 H    0.998 --     4 C    0.966
    53   1 H    0.998 --     5 C    0.971
    54   1 H    0.998 --     6 C    0.971
    55   1 H    0.998 --     7 C    0.968
    56   1 H    0.998 --     9 C    0.955
    57   1 H    0.994 --    10 C    0.944
    58   1 H    0.997 --    12 C    0.964
    59   1 H    0.998 --    13 C    0.971
    60   1 H    0.998 --    14 C    0.971
    61   1 H    0.998 --    15 C    0.965
    62   1 H    0.996 --    18 C    0.979
    63   1 H    0.998 --    18 C    0.976
    64   1 H    0.998 --    18 C    0.974
    65   1 H    0.999 --    22 C    0.969
    66   1 H    0.998 --    23 C    0.965
    67   1 H    0.998 --    26 C    0.984
    68   1 H    0.999 --    26 C    0.984
    69   1 H    0.999 --    26 C    0.987
    70   1 H    0.998 --    27 C    0.984
    71   1 H    0.999 --    27 C    0.984
    72   1 H    0.999 --    27 C    0.983
    73   1 H    0.999 --    28 C    0.984
    74   1 H    0.998 --    28 C    0.984
    75   1 H    0.999 --    28 C    0.984
    76   1 H    0.999 --    29 C    0.964
    77   1 H    0.998 --    30 C    0.969
    78   1 H    0.990 --    32 C    0.918
    79   1 H    0.883 --    34 O    0.857
    80   1 H    0.999 --    39 C    0.967
    81   1 H    0.998 --    40 C    0.964
    82   1 H    0.998 --    43 C    0.984
    83   1 H    0.999 --    43 C    0.985
    84   1 H    0.999 --    43 C    0.984
    85   1 H    0.999 --    44 C    0.984
    86   1 H    0.999 --    44 C    0.987
    87   1 H    0.998 --    44 C    0.984
    88   1 H    0.998 --    45 C    0.984
    89   1 H    0.999 --    45 C    0.983
    90   1 H    0.999 --    45 C    0.987
    91   1 H    0.998 --    46 C    0.964
    92   1 H    0.997 --    47 C    0.968
 ---------------------------------------------------------------------------

molecular dipole:
                 x           y           z       tot (Debye)
 q only:        1.994       0.438       0.519
   full:        2.131       0.388       0.521       5.662

           -------------------------------------------------
          | TOTAL ENERGY             -138.417116811775 Eh   |
          | GRADIENT NORM               0.000379253581 Eh/Î± |
          | HOMO-LUMO GAP               3.283599136860 eV   |
           -------------------------------------------------

 * finished run on 2022/03/17 at 00:02:55.981
