   * xtb version 6.3.3 (4ae9cef) compiled by 'conda@95abc7406d43' on 2020-10-14
          program call               : xtb acid_54.xyz --opt --chrg 0 --uhf 0 --gfn 2
          number of atoms            :                    84
          number of electrons        :                   254
          charge                     :                     0
          spin                       :                   0.0

   ID    Z sym.   atoms
    1    6 C      1-22, 24-33, 36, 37, 41-50
    2    7 N      23, 40
    3    8 O      34, 35, 38, 39, 51, 52
    4    1 H      53-84

          :  Hamiltonian                  GFN2-xTB          :
 * total energy  :  -140.8464200 Eh     change       -0.5490364E-08 Eh
 * total energy  :  -140.8634417 Eh     change       -0.1702171E-01 Eh
 * total energy  :  -140.8680264 Eh     change       -0.4584686E-02 Eh
 * total energy  :  -140.8693259 Eh     change       -0.1299507E-02 Eh
 * total energy  :  -140.8701071 Eh     change       -0.7811654E-03 Eh
 * total energy  :  -140.8705082 Eh     change       -0.4011285E-03 Eh
 * total energy  :  -140.8709568 Eh     change       -0.4485814E-03 Eh
 * total energy  :  -140.8715804 Eh     change       -0.6235975E-03 Eh
 * total energy  :  -140.8721441 Eh     change       -0.5637584E-03 Eh
 * total energy  :  -140.8727293 Eh     change       -0.5852018E-03 Eh
 * total energy  :  -140.8810001 Eh     change       -0.1123712E-04 Eh
 * total energy  :  -140.8810140 Eh     change       -0.1385168E-04 Eh
 * total energy  :  -140.8810313 Eh     change       -0.1732909E-04 Eh
 * total energy  :  -140.8810528 Eh     change       -0.2144857E-04 Eh
 * total energy  :  -140.8810781 Eh     change       -0.2528584E-04 Eh
 * total energy  :  -140.8811041 Eh     change       -0.2605095E-04 Eh
 * total energy  :  -140.8811272 Eh     change       -0.2305119E-04 Eh
 * total energy  :  -140.8811445 Eh     change       -0.1731560E-04 Eh
 * total energy  :  -140.8811492 Eh     change       -0.4730843E-05 Eh
   *** GEOMETRY OPTIMIZATION CONVERGED AFTER 94 ITERATIONS ***

 final structure:
================
84
 xtb: 6.3.3 (4ae9cef)
C         2.51474940175180    2.78129404361103   -1.86931028151240
C         2.94770317035130    3.14601678414757   -3.11055414210306
C         2.09502774823668    3.04744979780479   -4.23018293549963
C         2.50447176975441    3.42029894161802   -5.52669552433907
C         1.65043862435107    3.30272221482758   -6.58743585237591
C         0.35180869934693    2.80300776398527   -6.40095138686432
C        -0.07558191968558    2.43579505218907   -5.15578908089293
C         0.77937790408323    2.55236583629372   -4.04043091299728
C         0.35848227838764    2.18562513533105   -2.74497141080825
C         1.20249858060816    2.30026669194926   -1.67229982249117
C         0.83578422383751    1.87698034298508   -0.26893289201702
C        -0.66300191413934    1.81327937975323    0.06247301741972
C        -0.95697440340663    2.31219668732934    1.45576943552813
C        -1.66770937033028    3.46634710628264    1.64726820826985
C        -1.94480396098003    3.94595548820682    2.94300015321031
C        -2.68273586190121    5.12804770490456    3.16136482396748
C        -2.94122969324845    5.56472507778277    4.43022699270094
C        -2.47288606326825    4.84174333384955    5.53876362519615
C        -1.75461585287831    3.69277416043193    5.36002257510746
C        -1.47283522335258    3.21470710588095    4.06385215239383
C        -0.74271575498196    2.02901321187116    3.83997328598740
C        -0.49358720893539    1.58868759079144    2.57242141976744
N        -0.98547669050909    0.39396619141248   -0.05059733963197
C        -2.28547206716609    0.02997088880901   -0.24220697039773
C        -2.58073490172996   -1.40245787708878   -0.38094119539787
C        -3.74049221869289   -1.98289500509086   -0.82052611379373
C        -4.98900794916548   -1.32238586769928   -1.27279796720501
C        -3.51049209869484   -3.39644397127014   -0.77156608612669
C        -4.27059013901207   -4.52389812261995   -1.07784442317939
C        -3.70085089413128   -5.76351642121675   -0.88794506332126
C        -2.39882363409730   -5.90029295786319   -0.40155378294563
C        -1.62509014951914   -4.79995843926868   -0.09042220699508
C        -2.19976038563679   -3.55410100740883   -0.28517889586815
O        -1.63744489673979   -2.34770015428793   -0.04988303891126
O        -3.16584955293667    0.87337996633915   -0.25055812814380
C         0.19219470289665   -0.39144237395834   -0.32664533588098
C         0.17557497936753   -0.84811059685266   -1.82085259518011
O         1.28961769196174   -1.42421203064141   -2.24695595388908
O        -0.78255201663077   -0.69296712070863   -2.51799925041645
N         1.28796757894788    0.50055326030182   -0.04281277274481
C         2.37759888746857    0.27796792089416    0.74625641504667
C         2.73123163993499   -1.11978139566480    1.04624617088976
C         3.47638023504167   -1.60494773773675    2.08539490074750
C         4.08040502859245   -0.85170464737502    3.21059409801977
C         3.54726462545427   -3.02454026095911    1.88593855445521
C         2.83530764699525   -3.28557926822971    0.70248198343230
C         2.69262687871210   -4.55964835558444    0.17934302723086
C         3.28918509413388   -5.58760142449651    0.88227297540746
C         4.00175024962113   -5.35069052402546    2.06010623093550
C         4.14093178976890   -4.08068900576839    2.57526715357774
O         2.33577188563602   -2.13140714860554    0.19278125679011
O         3.05940337127695    1.19787327220827    1.16352815995818
H         3.17282468998687    2.85140405351424   -1.01552539545523
H         3.95262285121918    3.51736342832477   -3.25198550090371
H         3.50669098650782    3.80072674607325   -5.66522073604724
H         1.96952177023215    3.59145069493095   -7.57841367600000
H        -0.30646608353645    2.71154282385447   -7.25246974876942
H        -1.07112174831424    2.04492998854189   -5.00489690242866
H        -0.64613438863508    1.80491544692149   -2.63747906452609
H         1.36793373713037    2.51439146124232    0.44592179035822
H        -1.26703380927176    2.38375265510273   -0.64925144241573
H        -2.03653338677703    4.02243915168409    0.79765308461097
H        -3.04241663732706    5.67967040156526    2.30476281851127
H        -3.50886075530897    6.46969517620903    4.59077319839944
H        -2.68691415470564    5.20198592676345    6.53449505774769
H        -1.39294801182516    3.13204146247753    6.21045115294604
H        -0.38510459384290    1.46994148988563    4.69309807590713
H         0.06098376833214    0.67382992472140    2.42010755521521
H        -4.88077572307093   -0.24448740957844   -1.21422989922738
H        -5.82271870425585   -1.63343999924623   -0.64421976145963
H        -5.21124385078086   -1.61478307368187   -2.29826207742496
H        -5.27740247317691   -4.42131084246455   -1.45177711930348
H        -4.26810059166707   -6.65327333740412   -1.11704186100578
H        -1.98910902574890   -6.88983721293033   -0.26574074464519
H        -0.61968668606252   -4.89832859618443    0.28904420638939
H         0.23312805666464   -1.28691214916180    0.30449896516889
H         1.92979901582114   -1.57877840857128   -1.52733318967622
H         3.65311346759435   -1.18495432871325    4.15608137047277
H         3.90793794209457    0.21259957728797    3.08510031119387
H         5.15299844585184   -1.03685347390351    3.24339517576702
H         2.14298338389583   -4.73020172828616   -0.73269591398197
H         3.20443542857344   -6.59796818707602    0.51276761634208
H         4.45245531432852   -6.18646438485343    2.57345933137180
H         4.69289890117400   -3.90112751448806    3.48442806875464

          :  Hamiltonian                  GFN2-xTB          :
         :: total energy            -140.881149205134 Eh    ::
         :: gradient norm              0.000302940442 Eh/a0 ::
         :: HOMO-LUMO gap              2.434525640542 eV    ::
         :: SCC energy              -143.087533716311 Eh    ::
         :: -> dispersion             -0.118506834213 Eh    ::
         :: repulsion energy           2.204236643234 Eh    ::

    * Orbital Energies and Occupations

         #    Occupation            Energy/Eh            Energy/eV
      -------------------------------------------------------------
         1        2.0000           -0.7702837             -20.9605
       ...           ...                  ...                  ...
       115        2.0000           -0.4176719             -11.3654
       116        2.0000           -0.4140961             -11.2681
       117        2.0000           -0.4113870             -11.1944
       118        2.0000           -0.4098563             -11.1528
       119        2.0000           -0.4051400             -11.0244
       120        2.0000           -0.4043844             -11.0039
       121        2.0000           -0.3997636             -10.8781
       122        2.0000           -0.3963413             -10.7850
       123        2.0000           -0.3937434             -10.7143
       124        2.0000           -0.3923770             -10.6771
       125        2.0000           -0.3835131             -10.4359
       126        2.0000           -0.3776734             -10.2770
       127        2.0000           -0.3770632             -10.2604 (HOMO)
       128                         -0.2875961              -7.8259 (LUMO)
       129                         -0.2671735              -7.2702
       130                         -0.2594244              -7.0593
       131                         -0.2578603              -7.0167
       132                         -0.2503662              -6.8128
       133                         -0.2422776              -6.5927
       134                         -0.2305174              -6.2727
       135                         -0.2279269              -6.2022
       136                         -0.2278748              -6.2008
       137                         -0.2229836              -6.0677
       138                         -0.2080112              -5.6603
       ...                                ...                  ...
       240                          0.7174549              19.5229
      -------------------------------------------------------------
                  HL-Gap            0.0894672 Eh            2.4345 eV

     #   Z          covCN         q      C6AA      Î±(0)
     1   6 C        2.921    -0.038    28.954     8.824
     2   6 C        2.916    -0.035    28.867     8.810
     3   6 C        2.987     0.013    27.714     8.636
     4   6 C        2.918    -0.035    28.869     8.811
     5   6 C        2.916    -0.029    28.718     8.788
     6   6 C        2.916    -0.029    28.714     8.787
     7   6 C        2.919    -0.031    28.785     8.798
     8   6 C        2.988     0.016    27.639     8.624
     9   6 C        2.921    -0.041    29.026     8.835
    10   6 C        2.968    -0.006    28.172     8.706
    11   6 C        3.838     0.036    19.942     6.353
    12   6 C        3.829     0.040    19.885     6.345
    13   6 C        2.970     0.005    27.909     8.665
    14   6 C        2.923    -0.036    28.900     8.816
    15   6 C        2.987     0.017    27.630     8.622
    16   6 C        2.918    -0.033    28.822     8.804
    17   6 C        2.916    -0.029    28.725     8.789
    18   6 C        2.916    -0.029    28.735     8.790
    19   6 C        2.918    -0.034    28.852     8.808
    20   6 C        2.988     0.013    27.704     8.634
    21   6 C        2.917    -0.034    28.855     8.809
    22   6 C        2.919    -0.030    28.758     8.794
    23   7 N        2.765    -0.112    23.452     7.192
    24   6 C        2.760     0.269    22.457     7.760
    25   6 C        3.080     0.083    26.076     8.372
    26   6 C        3.025     0.005    27.885     8.662
    27   6 C        3.754    -0.113    22.727     6.798
    28   6 C        3.082    -0.018    28.372     8.732
    29   6 C        2.912    -0.031    28.776     8.796
    30   6 C        2.921    -0.037    28.932     8.821
    31   6 C        2.927    -0.032    28.806     8.802
    32   6 C        2.907    -0.053    29.309     8.877
    33   6 C        3.091     0.130    25.061     8.205
    34   8 O        1.718    -0.244    18.041     5.735
    35   8 O        0.860    -0.434    22.371     6.341
    36   6 C        3.762     0.078    19.327     6.267
    37   6 C        2.685     0.354    20.986     7.497
    38   8 O        1.658    -0.360    20.094     6.051
    39   8 O        0.856    -0.356    20.823     6.118
    40   7 N        2.764    -0.118    23.574     7.211
    41   6 C        2.757     0.261    22.597     7.784
    42   6 C        3.068     0.069    26.378     8.422
    43   6 C        3.021     0.005    27.894     8.663
    44   6 C        3.754    -0.113    22.724     6.797
    45   6 C        3.081    -0.018    28.376     8.733
    46   6 C        3.080     0.128    25.108     8.215
    47   6 C        2.907    -0.052    29.296     8.875
    48   6 C        2.929    -0.029    28.718     8.788
    49   6 C        2.921    -0.035    28.864     8.810
    50   6 C        2.913    -0.031    28.762     8.794
    51   8 O        1.717    -0.256    18.242     5.767
    52   8 O        0.860    -0.430    22.290     6.330
    53   1 H        0.926     0.046     2.376     2.411
    54   1 H        0.926     0.036     2.503     2.474
    55   1 H        0.926     0.032     2.562     2.503
    56   1 H        0.926     0.031     2.570     2.507
    57   1 H        0.926     0.033     2.545     2.494
    58   1 H        0.926     0.042     2.422     2.434
    59   1 H        0.926     0.048     2.347     2.396
    60   1 H        0.924     0.081     1.970     2.195
    61   1 H        0.924     0.074     2.044     2.236
    62   1 H        0.926     0.042     2.426     2.436
    63   1 H        0.926     0.036     2.506     2.475
    64   1 H        0.926     0.032     2.557     2.501
    65   1 H        0.926     0.031     2.571     2.507
    66   1 H        0.926     0.032     2.565     2.504
    67   1 H        0.926     0.034     2.536     2.490
    68   1 H        0.926     0.022     2.704     2.572
    69   1 H        0.925     0.081     1.972     2.196
    70   1 H        0.925     0.056     2.243     2.342
    71   1 H        0.925     0.057     2.231     2.336
    72   1 H        0.926     0.044     2.391     2.418
    73   1 H        0.926     0.039     2.459     2.452
    74   1 H        0.926     0.040     2.449     2.447
    75   1 H        0.926     0.039     2.462     2.454
    76   1 H        0.924     0.080     1.980     2.201
    77   1 H        0.804     0.345     0.599     1.216
    78   1 H        0.925     0.057     2.229     2.335
    79   1 H        0.925     0.078     2.001     2.212
    80   1 H        0.925     0.062     2.170     2.304
    81   1 H        0.926     0.052     2.289     2.366
    82   1 H        0.926     0.048     2.347     2.396
    83   1 H        0.926     0.045     2.383     2.414
    84   1 H        0.926     0.048     2.348     2.396

Wiberg/Mayer (AO) data.
largest (>0.10) Wiberg bond orders for each atom

     #   Z sym  total        # sym  WBO       # sym  WBO       # sym  WBO
 ---------------------------------------------------------------------------
     1   6 C    3.989 --     2 C    1.568    10 C    1.289    53 H    0.967
     2   6 C    3.991 --     1 C    1.568     3 C    1.274    54 H    0.968
                             9 C    0.113
     3   6 C    3.990 --     4 C    1.282     2 C    1.274     8 C    1.253
     4   6 C    3.992 --     5 C    1.556     3 C    1.282    55 H    0.968
                             7 C    0.118
     5   6 C    3.990 --     4 C    1.556     6 C    1.322    56 H    0.971
     6   6 C    3.992 --     7 C    1.557     5 C    1.322    57 H    0.971
     7   6 C    3.989 --     6 C    1.557     8 C    1.280    58 H    0.968
                             4 C    0.118
     8   6 C    3.990 --     7 C    1.280     9 C    1.277     3 C    1.253
     9   6 C    3.989 --    10 C    1.533     8 C    1.277    59 H    0.960
                             2 C    0.113
    10   6 C    3.982 --     9 C    1.533     1 C    1.289    11 C    0.983
    11   6 C    3.952 --    10 C    0.983    12 C    0.965    60 H    0.949
                            40 N    0.944
    12   6 C    3.961 --    13 C    0.986    11 C    0.965    23 N    0.957
                            61 H    0.949
    13   6 C    3.985 --    14 C    1.528    22 C    1.295    12 C    0.986
    14   6 C    3.989 --    13 C    1.528    15 C    1.282    62 H    0.965
                            21 C    0.115
    15   6 C    3.990 --    14 C    1.282    16 C    1.279    20 C    1.251
    16   6 C    3.989 --    17 C    1.558    15 C    1.279    63 H    0.968
                            19 C    0.118
    17   6 C    3.992 --    16 C    1.558    18 C    1.321    64 H    0.971
    18   6 C    3.990 --    19 C    1.556    17 C    1.321    65 H    0.971
    19   6 C    3.992 --    18 C    1.556    20 C    1.282    66 H    0.968
                            16 C    0.118
    20   6 C    3.990 --    19 C    1.282    21 C    1.276    15 C    1.251
    21   6 C    3.992 --    22 C    1.564    20 C    1.276    67 H    0.968
                            14 C    0.115
    22   6 C    3.992 --    21 C    1.564    13 C    1.295    68 H    0.969
    23   7 N    3.448 --    24 C    1.190    36 C    0.990    12 C    0.957
                            35 O    0.180
    24   6 C    3.956 --    35 O    1.641    23 N    1.190    25 C    1.029
    25   6 C    3.904 --    26 C    1.556    34 O    1.044    24 C    1.029
    26   6 C    3.983 --    25 C    1.556    28 C    1.184    27 C    1.040
    27   6 C    3.991 --    26 C    1.040    69 H    0.975    71 H    0.966
                            70 H    0.965
    28   6 C    3.985 --    29 C    1.332    33 C    1.273    26 C    1.184
    29   6 C    3.984 --    30 C    1.500    28 C    1.332    72 H    0.969
                            32 C    0.114
    30   6 C    3.991 --    29 C    1.500    31 C    1.382    73 H    0.971
    31   6 C    3.981 --    32 C    1.479    30 C    1.382    74 H    0.971
    32   6 C    3.988 --    31 C    1.479    33 C    1.356    75 H    0.968
                            29 C    0.114
    33   6 C    3.920 --    32 C    1.356    28 C    1.273    34 O    1.080
    34   8 O    2.358 --    33 C    1.080    25 C    1.044
    35   8 O    1.985 --    24 C    1.641    23 N    0.180
    36   6 C    3.965 --    23 N    0.990    40 N    0.989    76 H    0.930
                            37 C    0.890
    37   6 C    3.921 --    39 O    1.796    38 O    1.170    36 C    0.890
    38   8 O    2.230 --    37 C    1.170    77 H    0.823    39 O    0.172
    39   8 O    2.090 --    37 C    1.796    38 O    0.172
    40   7 N    3.464 --    41 C    1.201    36 C    0.989    11 C    0.944
                            52 O    0.187
    41   6 C    3.956 --    52 O    1.642    40 N    1.201    42 C    1.021
    42   6 C    3.896 --    43 C    1.568    51 O    1.026    41 C    1.021
    43   6 C    3.982 --    42 C    1.568    45 C    1.177    44 C    1.041
    44   6 C    3.990 --    43 C    1.041    79 H    0.976    78 H    0.965
                            80 H    0.964
    45   6 C    3.985 --    50 C    1.331    46 C    1.282    43 C    1.177
    46   6 C    3.916 --    47 C    1.359    45 C    1.282    51 O    1.060
    47   6 C    3.987 --    48 C    1.478    46 C    1.359    81 H    0.967
                            50 C    0.116
    48   6 C    3.981 --    47 C    1.478    49 C    1.383    82 H    0.971
    49   6 C    3.991 --    50 C    1.501    48 C    1.383    83 H    0.970
    50   6 C    3.984 --    49 C    1.501    45 C    1.331    84 H    0.968
                            47 C    0.116
    51   8 O    2.360 --    46 C    1.060    42 C    1.026
    52   8 O    1.996 --    41 C    1.642    40 N    0.187
    53   1 H    0.997 --     1 C    0.967
    54   1 H    0.998 --     2 C    0.968
    55   1 H    0.999 --     4 C    0.968
    56   1 H    0.999 --     5 C    0.971
    57   1 H    0.998 --     6 C    0.971
    58   1 H    0.998 --     7 C    0.968
    59   1 H    0.997 --     9 C    0.960
    60   1 H    0.992 --    11 C    0.949
    61   1 H    0.993 --    12 C    0.949
    62   1 H    0.998 --    14 C    0.965
    63   1 H    0.998 --    16 C    0.968
    64   1 H    0.998 --    17 C    0.971
    65   1 H    0.999 --    18 C    0.971
    66   1 H    0.999 --    19 C    0.968
    67   1 H    0.998 --    21 C    0.968
    68   1 H    0.999 --    22 C    0.969
    69   1 H    0.993 --    27 C    0.975
    70   1 H    0.996 --    27 C    0.965
    71   1 H    0.996 --    27 C    0.966
    72   1 H    0.998 --    29 C    0.969
    73   1 H    0.998 --    30 C    0.971
    74   1 H    0.998 --    31 C    0.971
    75   1 H    0.998 --    32 C    0.968
    76   1 H    0.993 --    36 C    0.930
    77   1 H    0.881 --    38 O    0.823
    78   1 H    0.996 --    44 C    0.965
    79   1 H    0.994 --    44 C    0.976
    80   1 H    0.995 --    44 C    0.964
    81   1 H    0.997 --    47 C    0.967
    82   1 H    0.997 --    48 C    0.971
    83   1 H    0.998 --    49 C    0.970
    84   1 H    0.998 --    50 C    0.968
 ---------------------------------------------------------------------------

molecular dipole:
                 x           y           z       tot (Debye)
 q only:        0.881      -1.267       0.854
   full:        1.177      -1.774       1.044       6.027

           -------------------------------------------------
          | TOTAL ENERGY             -140.881149205134 Eh   |
          | GRADIENT NORM               0.000302940442 Eh/Î± |
          | HOMO-LUMO GAP               2.434525640542 eV   |
           -------------------------------------------------

 * finished run on 2022/03/17 at 01:49:09.167
