   * xtb version 6.3.3 (4ae9cef) compiled by 'conda@95abc7406d43' on 2020-10-14
          program call               : xtb acid_178.xyz --opt --chrg 0 --uhf 0 --gfn 2
          number of atoms            :                    88
          number of electrons        :                   258
          charge                     :                     0
          spin                       :                   0.0

   ID    Z sym.   atoms
    1    6 C      1, 3-16, 18, 20-32, 34, 35, 39-51
    2    8 O      2, 17, 33, 36, 37, 52
    3    7 N      19, 38
    4    1 H      53-88

          :  Hamiltonian                  GFN2-xTB          :
 * total energy  :  -142.7933652 Eh     change       -0.1993669E-08 Eh
 * total energy  :  -142.8128508 Eh     change       -0.1948556E-01 Eh
 * total energy  :  -142.8200697 Eh     change       -0.7218904E-02 Eh
 * total energy  :  -142.8228037 Eh     change       -0.2733963E-02 Eh
 * total energy  :  -142.8246128 Eh     change       -0.1809116E-02 Eh
 * total energy  :  -142.8260484 Eh     change       -0.1435619E-02 Eh
 * total energy  :  -142.8274512 Eh     change       -0.1402769E-02 Eh
 * total energy  :  -142.8288580 Eh     change       -0.1406849E-02 Eh
 * total energy  :  -142.8301150 Eh     change       -0.1257019E-02 Eh
 * total energy  :  -142.8311767 Eh     change       -0.1061691E-02 Eh
 * total energy  :  -142.8557539 Eh     change       -0.1756513E-04 Eh
 * total energy  :  -142.8557699 Eh     change       -0.1594326E-04 Eh
 * total energy  :  -142.8557833 Eh     change       -0.1344149E-04 Eh
 * total energy  :  -142.8557954 Eh     change       -0.1203176E-04 Eh
 * total energy  :  -142.8558044 Eh     change       -0.8997168E-05 Eh
 * total energy  :  -142.8558106 Eh     change       -0.6274864E-05 Eh
 * total energy  :  -142.8558164 Eh     change       -0.5731090E-05 Eh
 * total energy  :  -142.8558218 Eh     change       -0.5388306E-05 Eh
 * total energy  :  -142.8558255 Eh     change       -0.3781390E-05 Eh
   *** GEOMETRY OPTIMIZATION CONVERGED AFTER 135 ITERATIONS ***

 final structure:
================
88
 xtb: 6.3.3 (4ae9cef)
C        -1.68355303606813    4.74903313980728    0.60246465637645
O        -0.88372985296084    4.83195062527019   -0.49703609121570
C        -0.79128454931294    6.06001823667666   -1.17518166294105
C        -2.46880243798849    5.78740808954109    1.08719891473025
C        -3.24131396854414    5.60614047442273    2.22255816997654
C        -3.23527789046468    4.39707233095550    2.89004353810823
C        -2.44978180318567    3.36088759999089    2.41391037952203
C        -1.68401852446658    3.51693361723347    1.27345828216233
C        -0.78549055833141    2.42722919795825    0.76200782536075
C         0.59503160277760    2.48653916959339    1.43806502989555
C         1.53528355998615    3.39672038473481    0.70277913848495
C         1.88300826669216    4.61751042505131    1.25085749304170
C         2.68591396756036    5.50801950911659    0.55866527942893
C         3.15237872485012    5.16708998044746   -0.69545082622350
C         2.81926846366304    3.94787769326075   -1.26069985454078
C         2.00558886571959    3.05569379518198   -0.57460902507370
O         1.61455711827078    1.84536364250926   -1.05360164672472
C         2.01524536045542    1.45390463654566   -2.34275501219752
N         0.99730504407574    1.08669710802754    1.47379147505235
C         2.29063305010037    0.70923351903383    1.62206392160640
C         2.51311324286977   -0.77010439803396    1.54925937601630
C         2.34706037788988   -1.57822653359057    2.66670385292319
C         2.58163789885323   -2.93827817761616    2.56677010974075
C         2.97614681795367   -3.49249515545129    1.36257358246108
C         3.16666364779038   -2.68937131109980    0.24021758849637
C         3.59498120792122   -3.26795593317068   -1.04245793868376
C         3.05166511383731   -4.46547369466770   -1.50104715498381
C         3.45394781278413   -5.00315344850788   -2.70963547891559
C         4.40890139535831   -4.35637405217648   -3.47579161253663
C         4.95723161129155   -3.16615601503351   -3.02782863264207
C         4.55165157080659   -2.62345184257192   -1.82296452593565
C         2.94011047302605   -1.32035901458605    0.35050826863790
O         3.19187135199228    1.50138707742380    1.79359516624534
C        -0.14675257119129    0.20769526083047    1.40831940766471
C        -0.01233969618951   -0.88897789009364    0.33050315138360
O        -0.07816907786406   -2.10736063199635    0.87147967893892
O         0.07729078605114   -0.69309959669863   -0.84669159643858
N        -1.25167600540491    1.08599365888914    1.08349278494540
C        -2.46341086147720    0.66415221184823    0.61753440836122
C        -2.78671796014425   -0.76144057331873    0.92912856018653
C        -3.07292950170368   -1.62918710907900   -0.11431856789700
C        -3.37538060866390   -2.96414173856206    0.13720837257471
C        -3.65072887855297   -3.88899555230485   -0.97311539048434
C        -4.45233111672222   -3.49296990526802   -2.04077603872683
C        -4.72037130444770   -4.36670047786190   -3.07802127767867
C        -4.18555341185742   -5.64428528499331   -3.06932395563697
C        -3.38122696094209   -6.04504590957809   -2.01577716704181
C        -3.11798511737550   -5.17579394191614   -0.97331621008037
C        -3.41627120426190   -3.40596472059912    1.45765532147665
C        -3.17201399421138   -2.53152060591904    2.50066012236150
C        -2.85184536180245   -1.21087412688820    2.24313702545742
O        -3.22903772469952    1.40280217050638    0.03864812248447
H        -1.75413847320429    6.36081737103182   -1.60068624835186
H        -0.07573931339640    5.89511160670380   -1.97914244572038
H        -0.41499700385436    6.85121861241435   -0.51906966481593
H        -2.48891308187366    6.74208020360007    0.58592862748325
H        -3.84933644267970    6.42256719687165    2.58304250399504
H        -3.83650225663301    4.25893010384140    3.77547242273428
H        -2.43839724989248    2.41194589213038    2.92924016214861
H        -0.67900435528890    2.52951744838687   -0.32376060884615
H         0.48231040283343    2.84823040203258    2.47151228336216
H         1.51457360928209    4.87575402204065    2.23312802821278
H         2.94713862628475    6.45797508330789    0.99941916800089
H         3.78371276742273    5.84959236575660   -1.24553931606427
H         3.19876811045689    3.70109080595427   -2.23994839772254
H         1.54438896222792    0.48480944437952   -2.50252317995433
H         1.66421938766109    2.15808192850089   -3.10396676435872
H         3.10397352708360    1.35459156956402   -2.41484398149422
H         2.04288307257208   -1.14267987624517    3.60692348755588
H         2.45679488352521   -3.57013337053856    3.43352708303126
H         3.16683337530877   -4.55374380362853    1.29573624640345
H         2.29749802338890   -4.97015982668206   -0.91347033363925
H         3.01988001051868   -5.92988121555846   -3.05603290826636
H         4.72503187578558   -4.77867779392898   -4.41802524527610
H         5.70645959688070   -2.66039628943601   -3.61935193206252
H         4.99437025954519   -1.70439755625369   -1.46814075503159
H         3.06515096500672   -0.67976037531221   -0.50883961659214
H        -0.31016545600130   -0.30494209220310    2.37239724791765
H        -0.01786682270299   -2.79223292828165    0.18550425280569
H        -3.02500578808686   -1.26268351528952   -1.12901627871746
H        -4.88254951475021   -2.50243042163656   -2.04250358809146
H        -5.35098054697183   -4.05088917455110   -3.89606176708140
H        -4.39500477518083   -6.32563057392065   -3.88052160393355
H        -2.95802393017536   -7.03908734950730   -2.00645378690187
H        -2.48096290293002   -5.48899724890356   -0.15807762400354
H        -3.67079043359584   -4.43471986169256    1.66631537140367
H        -3.23227098473378   -2.88125910838354    3.52064099868381
H        -2.67183647760107   -0.52520658784668    3.05822682577656

          :  Hamiltonian                  GFN2-xTB          :
         :: total energy            -142.855825538908 Eh    ::
         :: gradient norm              0.000396906690 Eh/a0 ::
         :: HOMO-LUMO gap              2.762256232254 eV    ::
         :: SCC energy              -145.105208096384 Eh    ::
         :: -> dispersion             -0.127242205578 Eh    ::
         :: repulsion energy           2.244966779328 Eh    ::

    * Orbital Energies and Occupations

         #    Occupation            Energy/Eh            Energy/eV
      -------------------------------------------------------------
         1        2.0000           -0.7693721             -20.9357
       ...           ...                  ...                  ...
       117        2.0000           -0.4140586             -11.2671
       118        2.0000           -0.4101804             -11.1616
       119        2.0000           -0.4097066             -11.1487
       120        2.0000           -0.4037618             -10.9869
       121        2.0000           -0.4029306             -10.9643
       122        2.0000           -0.3984455             -10.8423
       123        2.0000           -0.3954465             -10.7606
       124        2.0000           -0.3943468             -10.7307
       125        2.0000           -0.3909392             -10.6380
       126        2.0000           -0.3884465             -10.5702
       127        2.0000           -0.3862896             -10.5115
       128        2.0000           -0.3773170             -10.2673
       129        2.0000           -0.3678946             -10.0109 (HOMO)
       130                         -0.2663835              -7.2487 (LUMO)
       131                         -0.2549075              -6.9364
       132                         -0.2511841              -6.8351
       133                         -0.2438114              -6.6344
       134                         -0.2342516              -6.3743
       135                         -0.2281199              -6.2075
       136                         -0.2276318              -6.1942
       137                         -0.2251305              -6.1261
       138                         -0.2180825              -5.9343
       139                         -0.2145301              -5.8377
       140                         -0.2122555              -5.7758
       ...                                ...                  ...
       244                          0.6844392              18.6245
      -------------------------------------------------------------
                  HL-Gap            0.1015110 Eh            2.7623 eV

     #   Z          covCN         q      C6AA      Î±(0)
     1   6 C        2.869     0.142    24.906     8.181
     2   8 O        1.705    -0.272    18.512     5.809
     3   6 C        3.644     0.038    20.271     6.472
     4   6 C        2.917    -0.065    29.614     8.924
     5   6 C        2.921    -0.032    28.787     8.799
     6   6 C        2.918    -0.040    28.996     8.830
     7   6 C        2.923    -0.029    28.723     8.789
     8   6 C        2.974    -0.008    28.225     8.715
     9   6 C        3.833     0.049    19.730     6.320
    10   6 C        3.829     0.054    19.647     6.307
    11   6 C        2.973    -0.001    28.056     8.688
    12   6 C        2.925    -0.028    28.701     8.786
    13   6 C        2.918    -0.040    28.985     8.829
    14   6 C        2.921    -0.031    28.782     8.798
    15   6 C        2.918    -0.064    29.598     8.921
    16   6 C        2.867     0.150    24.733     8.152
    17   8 O        1.705    -0.267    18.423     5.795
    18   6 C        3.643     0.040    20.242     6.468
    19   7 N        2.765    -0.103    23.261     7.163
    20   6 C        2.762     0.275    22.352     7.742
    21   6 C        2.976    -0.019    28.485     8.755
    22   6 C        2.922    -0.029    28.719     8.788
    23   6 C        2.918    -0.027    28.671     8.781
    24   6 C        2.924    -0.036    28.895     8.815
    25   6 C        2.976     0.010    27.784     8.646
    26   6 C        2.977     0.010    27.790     8.647
    27   6 C        2.925    -0.035    28.865     8.811
    28   6 C        2.918    -0.029    28.727     8.789
    29   6 C        2.920    -0.030    28.744     8.792
    30   6 C        2.919    -0.028    28.705     8.786
    31   6 C        2.925    -0.032    28.798     8.800
    32   6 C        2.930    -0.030    28.748     8.793
    33   8 O        0.859    -0.417    22.018     6.291
    34   6 C        3.755     0.091    19.131     6.237
    35   6 C        2.687     0.353    21.000     7.500
    36   8 O        1.659    -0.375    20.362     6.092
    37   8 O        0.856    -0.376    21.198     6.173
    38   7 N        2.765    -0.118    23.571     7.211
    39   6 C        2.765     0.272    22.408     7.752
    40   6 C        2.975    -0.021    28.536     8.762
    41   6 C        2.929    -0.028    28.710     8.787
    42   6 C        2.977     0.011    27.755     8.642
    43   6 C        2.978     0.009    27.812     8.651
    44   6 C        2.925    -0.032    28.792     8.800
    45   6 C        2.919    -0.028    28.693     8.784
    46   6 C        2.920    -0.030    28.746     8.792
    47   6 C        2.918    -0.030    28.741     8.791
    48   6 C        2.925    -0.036    28.888     8.814
    49   6 C        2.925    -0.033    28.829     8.805
    50   6 C        2.918    -0.027    28.676     8.781
    51   6 C        2.922    -0.031    28.776     8.797
    52   8 O        0.859    -0.408    21.847     6.267
    53   1 H        0.924     0.046     2.375     2.410
    54   1 H        0.925     0.061     2.182     2.310
    55   1 H        0.924     0.041     2.432     2.439
    56   1 H        0.926     0.040     2.448     2.447
    57   1 H        0.926     0.038     2.469     2.457
    58   1 H        0.926     0.038     2.479     2.462
    59   1 H        0.926     0.034     2.526     2.485
    60   1 H        0.924     0.083     1.953     2.186
    61   1 H        0.923     0.047     2.357     2.401
    62   1 H        0.926     0.035     2.514     2.479
    63   1 H        0.926     0.036     2.507     2.476
    64   1 H        0.926     0.036     2.509     2.477
    65   1 H        0.926     0.038     2.480     2.463
    66   1 H        0.925     0.075     2.031     2.229
    67   1 H        0.924     0.039     2.468     2.457
    68   1 H        0.924     0.035     2.520     2.483
    69   1 H        0.926     0.033     2.538     2.491
    70   1 H        0.926     0.039     2.462     2.454
    71   1 H        0.926     0.038     2.481     2.463
    72   1 H        0.926     0.026     2.646     2.544
    73   1 H        0.926     0.031     2.568     2.506
    74   1 H        0.926     0.032     2.552     2.498
    75   1 H        0.926     0.033     2.543     2.494
    76   1 H        0.926     0.036     2.497     2.471
    77   1 H        0.926     0.046     2.364     2.404
    78   1 H        0.923     0.059     2.209     2.324
    79   1 H        0.804     0.342     0.606     1.223
    80   1 H        0.926     0.048     2.340     2.392
    81   1 H        0.926     0.039     2.461     2.453
    82   1 H        0.926     0.034     2.528     2.486
    83   1 H        0.926     0.032     2.555     2.500
    84   1 H        0.926     0.031     2.576     2.510
    85   1 H        0.926     0.027     2.623     2.533
    86   1 H        0.926     0.039     2.459     2.452
    87   1 H        0.926     0.039     2.462     2.454
    88   1 H        0.926     0.031     2.574     2.509

Wiberg/Mayer (AO) data.
largest (>0.10) Wiberg bond orders for each atom

     #   Z sym  total        # sym  WBO       # sym  WBO       # sym  WBO
 ---------------------------------------------------------------------------
     1   6 C    3.934 --     4 C    1.383     8 C    1.320     2 O    1.062
     2   8 O    2.234 --     1 C    1.062     3 C    0.983
     3   6 C    3.944 --     2 O    0.983    54 H    0.979    55 H    0.977
                            53 H    0.976
     4   6 C    3.987 --     5 C    1.432     1 C    1.383    56 H    0.966
                             7 C    0.101
     5   6 C    3.990 --     6 C    1.446     4 C    1.432    57 H    0.971
                             8 C    0.106
     6   6 C    3.991 --     5 C    1.446     7 C    1.422    58 H    0.971
     7   6 C    3.990 --     8 C    1.441     6 C    1.422    59 H    0.968
                             4 C    0.101
     8   6 C    3.983 --     7 C    1.441     1 C    1.320     9 C    0.995
                             5 C    0.106
     9   6 C    3.959 --     8 C    0.995    38 N    0.956    10 C    0.949
                            60 H    0.945
    10   6 C    3.963 --    11 C    0.997    61 H    0.953    19 N    0.951
                             9 C    0.949
    11   6 C    3.983 --    12 C    1.439    16 C    1.317    10 C    0.997
                            14 C    0.106
    12   6 C    3.989 --    11 C    1.439    13 C    1.422    62 H    0.968
                            15 C    0.101
    13   6 C    3.991 --    14 C    1.445    12 C    1.422    63 H    0.971
    14   6 C    3.991 --    13 C    1.445    15 C    1.433    64 H    0.971
                            11 C    0.106
    15   6 C    3.987 --    14 C    1.433    16 C    1.381    65 H    0.966
                            12 C    0.101
    16   6 C    3.936 --    15 C    1.381    11 C    1.317    17 O    1.069
    17   8 O    2.242 --    16 C    1.069    18 C    0.982
    18   6 C    3.943 --    17 O    0.982    68 H    0.976    67 H    0.976
                            66 H    0.975
    19   7 N    3.470 --    20 C    1.215    34 C    0.987    10 C    0.951
                            33 O    0.194
    20   6 C    3.945 --    33 O    1.694    19 N    1.215    21 C    0.952
    21   6 C    3.986 --    32 C    1.414    22 C    1.401    20 C    0.952
                            24 C    0.105
    22   6 C    3.986 --    23 C    1.438    21 C    1.401    69 H    0.970
                            25 C    0.104
    23   6 C    3.991 --    24 C    1.447    22 C    1.438    70 H    0.970
                            32 C    0.106
    24   6 C    3.991 --    23 C    1.447    25 C    1.389    71 H    0.968
                            21 C    0.105
    25   6 C    3.988 --    32 C    1.389    24 C    1.389    26 C    1.045
                            22 C    0.104
    26   6 C    3.988 --    27 C    1.391    31 C    1.389    25 C    1.045
                            29 C    0.106
    27   6 C    3.992 --    28 C    1.450    26 C    1.391    72 H    0.969
                            30 C    0.108
    28   6 C    3.992 --    27 C    1.450    29 C    1.435    73 H    0.971
                            31 C    0.109
    29   6 C    3.987 --    28 C    1.435    30 C    1.434    74 H    0.971
                            26 C    0.106
    30   6 C    3.992 --    31 C    1.452    29 C    1.434    75 H    0.971
                            27 C    0.108
    31   6 C    3.991 --    30 C    1.452    26 C    1.389    76 H    0.968
                            28 C    0.109
    32   6 C    3.989 --    21 C    1.414    25 C    1.389    77 H    0.965
                            23 C    0.106
    33   8 O    2.026 --    20 C    1.694    19 N    0.194
    34   6 C    3.973 --    19 N    0.987    38 N    0.982    78 H    0.944
                            35 C    0.911
    35   6 C    3.919 --    37 O    1.787    36 O    1.140    34 C    0.911
    36   8 O    2.205 --    35 C    1.140    79 H    0.856    37 O    0.179
    37   8 O    2.073 --    35 C    1.787    36 O    0.179
    38   7 N    3.441 --    39 C    1.189    34 C    0.982     9 C    0.956
                            52 O    0.185
    39   6 C    3.945 --    52 O    1.708    38 N    1.189    40 C    0.965
    40   6 C    3.987 --    41 C    1.414    51 C    1.394    39 C    0.965
                            49 C    0.104
    41   6 C    3.989 --    40 C    1.414    42 C    1.391    80 H    0.966
                            50 C    0.105
    42   6 C    3.988 --    41 C    1.391    49 C    1.389    43 C    1.044
                            51 C    0.103
    43   6 C    3.989 --    48 C    1.391    44 C    1.390    42 C    1.044
                            46 C    0.106
    44   6 C    3.991 --    45 C    1.451    43 C    1.390    81 H    0.968
                            47 C    0.109
    45   6 C    3.992 --    44 C    1.451    46 C    1.435    82 H    0.971
                            48 C    0.109
    46   6 C    3.988 --    47 C    1.435    45 C    1.435    83 H    0.971
                            43 C    0.106
    47   6 C    3.992 --    48 C    1.450    46 C    1.435    84 H    0.971
                            44 C    0.109
    48   6 C    3.992 --    47 C    1.450    43 C    1.391    85 H    0.969
                            45 C    0.109
    49   6 C    3.991 --    50 C    1.445    42 C    1.389    86 H    0.968
                            40 C    0.104
    50   6 C    3.991 --    49 C    1.445    51 C    1.441    87 H    0.970
                            41 C    0.105
    51   6 C    3.986 --    50 C    1.441    40 C    1.394    88 H    0.969
                            42 C    0.103
    52   8 O    2.033 --    39 C    1.708    38 N    0.185
    53   1 H    0.998 --     3 C    0.976
    54   1 H    0.996 --     3 C    0.979
    55   1 H    0.998 --     3 C    0.977
    56   1 H    0.998 --     4 C    0.966
    57   1 H    0.998 --     5 C    0.971
    58   1 H    0.998 --     6 C    0.971
    59   1 H    0.998 --     7 C    0.968
    60   1 H    0.993 --     9 C    0.945
    61   1 H    0.997 --    10 C    0.953
    62   1 H    0.998 --    12 C    0.968
    63   1 H    0.998 --    13 C    0.971
    64   1 H    0.998 --    14 C    0.971
    65   1 H    0.998 --    15 C    0.966
    66   1 H    0.994 --    18 C    0.975
    67   1 H    0.998 --    18 C    0.976
    68   1 H    0.999 --    18 C    0.976
    69   1 H    0.998 --    22 C    0.970
    70   1 H    0.997 --    23 C    0.970
    71   1 H    0.998 --    24 C    0.968
    72   1 H    0.999 --    27 C    0.969
    73   1 H    0.998 --    28 C    0.971
    74   1 H    0.998 --    29 C    0.971
    75   1 H    0.998 --    30 C    0.971
    76   1 H    0.999 --    31 C    0.968
    77   1 H    0.998 --    32 C    0.965
    78   1 H    0.996 --    34 C    0.944
    79   1 H    0.882 --    36 O    0.856
    80   1 H    0.998 --    41 C    0.966
    81   1 H    0.998 --    44 C    0.968
    82   1 H    0.998 --    45 C    0.971
    83   1 H    0.998 --    46 C    0.971
    84   1 H    0.998 --    47 C    0.971
    85   1 H    0.999 --    48 C    0.969
    86   1 H    0.998 --    49 C    0.968
    87   1 H    0.997 --    50 C    0.970
    88   1 H    0.999 --    51 C    0.969
 ---------------------------------------------------------------------------

molecular dipole:
                 x           y           z       tot (Debye)
 q only:       -0.073      -0.804      -0.211
   full:       -0.045      -1.111      -0.270       2.909

           -------------------------------------------------
          | TOTAL ENERGY             -142.855825538908 Eh   |
          | GRADIENT NORM               0.000396906690 Eh/Î± |
          | HOMO-LUMO GAP               2.762256232254 eV   |
           -------------------------------------------------

 * finished run on 2022/03/16 at 22:08:21.079
