   * xtb version 6.3.3 (4ae9cef) compiled by 'conda@95abc7406d43' on 2020-10-14
          program call               : xtb acid_11.xyz --opt --chrg 0 --uhf 0 --gfn 2
          number of atoms            :                    80
          number of electrons        :                   262
          charge                     :                     0
          spin                       :                   0.0

   ID    Z sym.   atoms
    1    6 C      1, 2, 6-15, 19-22, 24-32, 35, 36, 40-48
    2    9 F      3-5, 16-18
    3    7 N      23, 39
    4   16 S      33, 49
    5    8 O      34, 37, 38, 50
    6    1 H      51-80

          :  Hamiltonian                  GFN2-xTB          :
 * total energy  :  -149.4787849 Eh     change       -0.2141462E-08 Eh
 * total energy  :  -149.4956067 Eh     change       -0.1682183E-01 Eh
 * total energy  :  -149.5018465 Eh     change       -0.6239794E-02 Eh
 * total energy  :  -149.5040630 Eh     change       -0.2216488E-02 Eh
 * total energy  :  -149.5056650 Eh     change       -0.1602014E-02 Eh
 * total energy  :  -149.5067631 Eh     change       -0.1098125E-02 Eh
 * total energy  :  -149.5077548 Eh     change       -0.9916979E-03 Eh
 * total energy  :  -149.5088003 Eh     change       -0.1045494E-02 Eh
 * total energy  :  -149.5098402 Eh     change       -0.1039838E-02 Eh
 * total energy  :  -149.5106306 Eh     change       -0.7904532E-03 Eh
 * total energy  :  -149.5159286 Eh     change       -0.1227962E-04 Eh
 * total energy  :  -149.5159347 Eh     change       -0.6114589E-05 Eh
 * total energy  :  -149.5159417 Eh     change       -0.7016149E-05 Eh
 * total energy  :  -149.5159490 Eh     change       -0.7210036E-05 Eh
 * total energy  :  -149.5159557 Eh     change       -0.6710178E-05 Eh
 * total energy  :  -149.5159568 Eh     change       -0.1150968E-05 Eh
 * total energy  :  -149.5159625 Eh     change       -0.5726123E-05 Eh
 * total energy  :  -149.5159700 Eh     change       -0.7463590E-05 Eh
 * total energy  :  -149.5159705 Eh     change       -0.5228024E-06 Eh
   *** GEOMETRY OPTIMIZATION CONVERGED AFTER 68 ITERATIONS ***

 final structure:
================
80
 xtb: 6.3.3 (4ae9cef)
C        -1.85166348455514    4.72446132753300   -0.44458300287785
C        -0.87703010313435    5.38576742746245   -1.37694475451767
F        -1.20080898268715    6.65150709510412   -1.66834060324912
F         0.37449624586924    5.44358125532035   -0.86049910257284
F        -0.74430467414121    4.76103254203432   -2.56153500110730
C        -2.94264889811354    5.45965167189579    0.00283742705150
C        -3.84722900518423    4.89737351582749    0.88200845157712
C        -3.65970147341709    3.59944197058351    1.32342120930971
C        -2.57387992815416    2.86816118711640    0.88358664442297
C        -1.65952671604451    3.41262535244746   -0.01138741528031
C        -0.48165961376825    2.57564584075078   -0.44084042582048
C         0.48851569153376    2.30296856333276    0.72890377089875
C         1.67157756950945    3.23588943510146    0.72346982943788
C         1.84840431601252    4.25571637452042    1.65792487514688
C         0.84082341418376    4.50099698341313    2.74669845574939
F         0.64833759409842    3.45391291509034    3.56450488326942
F        -0.38188842349630    4.80726819261100    2.25396047104530
F         1.17122244649654    5.52754958368470    3.54238668936876
C         2.95777050663326    5.08944224003615    1.58496364887166
C         3.89665613700647    4.91697556880519    0.58651133371237
C         3.72660587575700    3.91204326981737   -0.34913719253274
C         2.62287684641207    3.08518814166942   -0.27921835407072
N         0.92702778380383    0.93162044601343    0.48553456174673
C         1.87443416245178    0.38919878014752    1.31454736667771
C         2.29292000504822   -0.99817389885072    1.07962350780766
C         2.76501270578872   -1.81986875811282    2.06619395431761
C         3.19922132024334   -3.07709446108935    1.59527545438297
C         3.75363404246137   -4.17833895272332    2.44410212650011
C         3.76830817096620   -5.49674790831561    1.67136972671228
C         4.37291510123071   -5.29408927802458    0.28377165433077
C         3.47267405932393   -4.38795310016751   -0.55861350320535
C         3.09018062309822   -3.19154118612478    0.24005591814643
S         2.42335888253177   -1.76565089439985   -0.47524873187922
O         2.37939769295878    1.05192005507076    2.19925615106531
C        -0.04060830930208    0.20899956636112   -0.30255023375875
C        -0.87170437980840   -0.72272672882614    0.60748575922692
O        -0.58505910622500   -2.00537094934915    0.41389791095951
O        -1.65216530360247   -0.32859794028405    1.42831486931300
N        -0.88428218173398    1.23732104603104   -0.85685059864344
C        -2.02101495263136    0.99397117724739   -1.56349162703339
C        -2.30407129389875   -0.44578068545899   -1.78744056890725
C        -3.40332976894759   -1.11992550239725   -1.34859880061832
C        -3.42280237616947   -2.47801160971698   -1.74988529658271
C        -2.34563291839354   -2.81244957219332   -2.51329549951708
C        -2.09158176902539   -4.15328289612721   -3.10793816956574
C        -2.95919757084085   -5.19420661859411   -2.39735225291604
C        -4.40002811921842   -4.69939037360477   -2.29242415190069
C        -4.48079593837545   -3.47253760883659   -1.38457963306814
S        -1.28370853501759   -1.46493809351873   -2.75525833490438
O        -2.75403819091680    1.87353745606888   -1.95661163452680
H        -3.07891426228813    6.47331575509655   -0.34008879662410
H        -4.69290083300447    5.47441167097008    1.22224403517396
H        -4.35865665982432    3.15415913470206    2.01486310954805
H        -2.43650199178025    1.85447606061081    1.22988055846480
H         0.06125080763893    3.04152122264246   -1.26987934822233
H        -0.05106541571262    2.34479219971435    1.68110971983867
H         3.08297323862542    5.87425892925114    2.31434335320932
H         4.75569017872506    5.56777684226501    0.54028119487666
H         4.45261175830696    3.77237682576082   -1.13554941523862
H         2.49469176799001    2.29860318303296   -1.00823308697353
H         2.78465239242053   -1.51931845484328    3.09833529423927
H         4.77267106832356   -3.91369305357941    2.74247614800888
H         3.16245971013865   -4.27512939095846    3.35721529851040
H         2.74699823216111   -5.86915547573058    1.56590838690569
H         4.34215787359944   -6.24080764145182    2.22569185978321
H         4.49761173856332   -6.25429567943278   -0.21870956490371
H         5.35777291704163   -4.83437353885823    0.38511136963586
H         3.97940997808528   -4.08551885330443   -1.47763639521328
H         2.56799863483932   -4.93234384863174   -0.85065901238046
H         0.44636042838680   -0.38866197053021   -1.08542987715204
H        -1.09790757513629   -2.57199956391668    1.01398660691249
H        -4.16300770697846   -0.66040549690406   -0.74189292975388
H        -1.03287843570779   -4.40947785757770   -3.02758393578401
H        -2.34118323224400   -4.13086464092147   -4.17380170690300
H        -2.56555391465496   -5.37240452759870   -1.39444747407979
H        -2.92319460468367   -6.13604468136862   -2.94634933023832
H        -5.04144351437128   -5.49007694812735   -1.89964776573615
H        -4.76027994539977   -4.43705791994463   -3.28885371356493
H        -4.34258290701134   -3.77440075620562   -0.34080952456802
H        -5.46525290266619   -3.00675448857020   -1.45985281972777

          :  Hamiltonian                  GFN2-xTB          :
         :: total energy            -149.515970530509 Eh    ::
         :: gradient norm              0.000491089898 Eh/a0 ::
         :: HOMO-LUMO gap              3.033505835211 eV    ::
         :: SCC energy              -151.260477396622 Eh    ::
         :: -> dispersion             -0.118688051714 Eh    ::
         :: repulsion energy           1.741138558010 Eh    ::

    * Orbital Energies and Occupations

         #    Occupation            Energy/Eh            Energy/eV
      -------------------------------------------------------------
         1        2.0000           -0.8690874             -23.6491
       ...           ...                  ...                  ...
       119        2.0000           -0.4388723             -11.9423
       120        2.0000           -0.4316961             -11.7470
       121        2.0000           -0.4282754             -11.6540
       122        2.0000           -0.4273760             -11.6295
       123        2.0000           -0.4239398             -11.5360
       124        2.0000           -0.4185789             -11.3901
       125        2.0000           -0.4095253             -11.1438
       126        2.0000           -0.4075815             -11.0909
       127        2.0000           -0.4055635             -11.0359
       128        2.0000           -0.4036287             -10.9833
       129        2.0000           -0.4016758             -10.9302
       130        2.0000           -0.3931552             -10.6983
       131        2.0000           -0.3908641             -10.6360 (HOMO)
       132                         -0.2793848              -7.6024 (LUMO)
       133                         -0.2759288              -7.5084
       134                         -0.2613388              -7.1114
       135                         -0.2563663              -6.9761
       136                         -0.2511959              -6.8354
       137                         -0.2467688              -6.7149
       138                         -0.2407906              -6.5522
       139                         -0.2284719              -6.2170
       140                         -0.2232358              -6.0746
       141                         -0.2103044              -5.7227
       142                         -0.2067090              -5.6248
       ...                                ...                  ...
       240                          0.6666301              18.1399
      -------------------------------------------------------------
                  HL-Gap            0.1114793 Eh            3.0335 eV

     #   Z          covCN         q      C6AA      Î±(0)
     1   6 C        2.976    -0.024    28.603     8.773
     2   6 C        3.336     0.485    17.303     6.588
     3   9 F        0.792    -0.200    11.238     3.960
     4   9 F        0.791    -0.225    11.499     4.006
     5   9 F        0.791    -0.207    11.306     3.972
     6   6 C        2.923    -0.019    28.480     8.752
     7   6 C        2.920    -0.020    28.512     8.756
     8   6 C        2.919    -0.014    28.370     8.735
     9   6 C        2.926    -0.024    28.599     8.770
    10   6 C        2.972     0.026    27.422     8.590
    11   6 C        3.821     0.047    19.768     6.327
    12   6 C        3.830     0.050    19.722     6.319
    13   6 C        2.973     0.027    27.401     8.586
    14   6 C        2.976    -0.021    28.531     8.762
    15   6 C        3.335     0.486    17.294     6.587
    16   9 F        0.791    -0.201    11.248     3.962
    17   9 F        0.791    -0.223    11.475     4.001
    18   9 F        0.792    -0.202    11.252     3.962
    19   6 C        2.924    -0.019    28.472     8.750
    20   6 C        2.920    -0.021    28.523     8.758
    21   6 C        2.919    -0.016    28.415     8.741
    22   6 C        2.928    -0.023    28.588     8.768
    23   7 N        2.765    -0.123    23.669     7.226
    24   6 C        2.774     0.268    22.475     7.765
    25   6 C        2.985    -0.023    28.574     8.768
    26   6 C        3.117    -0.041    28.843     8.797
    27   6 C        3.154    -0.009    27.938     8.644
    28   6 C        3.808    -0.058    21.605     6.617
    29   6 C        3.807    -0.058    21.619     6.619
    30   6 C        3.809    -0.058    21.608     6.617
    31   6 C        3.824    -0.058    21.590     6.612
    32   6 C        2.999     0.025    27.427     8.591
    33  16 S        2.321    -0.052   143.222    20.142
    34   8 O        0.860    -0.417    22.017     6.291
    35   6 C        3.755     0.085    19.222     6.251
    36   6 C        2.689     0.351    21.047     7.508
    37   8 O        1.659    -0.358    20.058     6.046
    38   8 O        0.856    -0.386    21.407     6.203
    39   7 N        2.768    -0.113    23.465     7.195
    40   6 C        2.774     0.274    22.366     7.746
    41   6 C        2.990    -0.025    28.623     8.776
    42   6 C        3.110    -0.047    29.012     8.824
    43   6 C        3.155    -0.012    28.000     8.653
    44   6 C        2.997     0.021    27.533     8.607
    45   6 C        3.823    -0.058    21.599     6.613
    46   6 C        3.809    -0.057    21.593     6.615
    47   6 C        3.807    -0.059    21.630     6.621
    48   6 C        3.808    -0.056    21.576     6.612
    49  16 S        2.321    -0.048   143.040    20.129
    50   8 O        0.859    -0.406    21.800     6.260
    51   1 H        0.926     0.066     2.127     2.281
    52   1 H        0.926     0.056     2.243     2.342
    53   1 H        0.926     0.057     2.240     2.341
    54   1 H        0.926     0.069     2.094     2.263
    55   1 H        0.924     0.066     2.127     2.281
    56   1 H        0.924     0.070     2.086     2.258
    57   1 H        0.926     0.069     2.099     2.266
    58   1 H        0.926     0.058     2.226     2.333
    59   1 H        0.926     0.056     2.246     2.343
    60   1 H        0.926     0.051     2.308     2.375
    61   1 H        0.926     0.057     2.232     2.336
    62   1 H        0.924     0.048     2.341     2.393
    63   1 H        0.924     0.044     2.393     2.419
    64   1 H        0.924     0.036     2.499     2.472
    65   1 H        0.924     0.037     2.491     2.468
    66   1 H        0.924     0.038     2.476     2.461
    67   1 H        0.924     0.042     2.422     2.434
    68   1 H        0.924     0.051     2.311     2.377
    69   1 H        0.924     0.050     2.324     2.384
    70   1 H        0.923     0.086     1.920     2.167
    71   1 H        0.804     0.343     0.604     1.221
    72   1 H        0.926     0.048     2.341     2.392
    73   1 H        0.924     0.048     2.346     2.395
    74   1 H        0.924     0.053     2.287     2.365
    75   1 H        0.924     0.036     2.500     2.473
    76   1 H        0.924     0.038     2.474     2.460
    77   1 H        0.924     0.036     2.502     2.473
    78   1 H        0.924     0.041     2.439     2.442
    79   1 H        0.924     0.040     2.450     2.448
    80   1 H        0.924     0.047     2.358     2.401

Wiberg/Mayer (AO) data.
largest (>0.10) Wiberg bond orders for each atom

     #   Z sym  total        # sym  WBO       # sym  WBO       # sym  WBO
 ---------------------------------------------------------------------------
     1   6 C    3.969 --     6 C    1.410    10 C    1.386     2 C    0.953
                             8 C    0.104
     2   6 C    3.819 --     3 F    0.957     1 C    0.953     5 F    0.944
                             4 F    0.927
     3   9 F    1.079 --     2 C    0.957
     4   9 F    1.053 --     2 C    0.927
     5   9 F    1.073 --     2 C    0.944
     6   6 C    3.987 --     7 C    1.445     1 C    1.410    51 H    0.966
                             9 C    0.110
     7   6 C    3.989 --     6 C    1.445     8 C    1.432    52 H    0.969
                            10 C    0.108
     8   6 C    3.990 --     9 C    1.449     7 C    1.432    53 H    0.969
                             1 C    0.104
     9   6 C    3.987 --     8 C    1.449    10 C    1.408    54 H    0.960
                             6 C    0.110
    10   6 C    3.986 --     9 C    1.408     1 C    1.386    11 C    0.994
                             7 C    0.108
    11   6 C    3.964 --    10 C    0.994    39 N    0.955    55 H    0.952
                            12 C    0.951
    12   6 C    3.965 --    13 C    0.995    23 N    0.957    11 C    0.951
                            56 H    0.951
    13   6 C    3.986 --    22 C    1.408    14 C    1.387    12 C    0.995
                            20 C    0.109
    14   6 C    3.971 --    19 C    1.413    13 C    1.387    15 C    0.952
                            21 C    0.105
    15   6 C    3.822 --    18 F    0.954    14 C    0.952    16 F    0.949
                            17 F    0.929
    16   9 F    1.079 --    15 C    0.949
    17   9 F    1.056 --    15 C    0.929
    18   9 F    1.076 --    15 C    0.954
    19   6 C    3.987 --    20 C    1.444    14 C    1.413    57 H    0.965
                            22 C    0.109
    20   6 C    3.989 --    19 C    1.444    21 C    1.432    58 H    0.969
                            13 C    0.109
    21   6 C    3.990 --    22 C    1.450    20 C    1.432    59 H    0.969
                            14 C    0.105
    22   6 C    3.990 --    21 C    1.450    13 C    1.408    60 H    0.966
                            19 C    0.109
    23   7 N    3.430 --    24 C    1.165    35 C    0.982    12 C    0.957
                            34 O    0.173
    24   6 C    3.949 --    34 O    1.671    23 N    1.165    25 C    1.029
    25   6 C    3.939 --    26 C    1.552    33 S    1.129    24 C    1.029
                            32 C    0.105
    26   6 C    3.986 --    25 C    1.552    27 C    1.270    61 H    0.962
                            33 S    0.101
    27   6 C    3.984 --    32 C    1.549    26 C    1.270    28 C    1.008
    28   6 C    3.997 --    27 C    1.008    29 C    1.007    63 H    0.968
                            62 H    0.960
    29   6 C    3.997 --    30 C    1.009    28 C    1.007    64 H    0.978
                            65 H    0.978
    30   6 C    3.996 --    29 C    1.009    31 C    1.000    67 H    0.978
                            66 H    0.977
    31   6 C    3.995 --    32 C    1.027    30 C    1.000    68 H    0.965
                            69 H    0.956
    32   6 C    3.947 --    27 C    1.549    33 S    1.160    31 C    1.027
                            25 C    0.105
    33  16 S    2.608 --    32 C    1.160    25 C    1.129    26 C    0.101
    34   8 O    2.027 --    24 C    1.671    23 N    0.173
    35   6 C    3.966 --    39 N    0.988    23 N    0.982    70 H    0.935
                            36 C    0.906
    36   6 C    3.920 --    38 O    1.773    37 O    1.156    35 C    0.906
    37   8 O    2.225 --    36 C    1.156    71 H    0.855    38 O    0.181
    38   8 O    2.065 --    36 C    1.773    37 O    0.181
    39   7 N    3.459 --    40 C    1.197    35 C    0.988    11 C    0.955
                            50 O    0.191
    40   6 C    3.949 --    50 O    1.694    39 N    1.197    41 C    0.978
    41   6 C    3.943 --    42 C    1.585    49 S    1.135    40 C    0.978
                            44 C    0.108
    42   6 C    3.985 --    41 C    1.585    43 C    1.248    72 H    0.963
    43   6 C    3.983 --    44 C    1.569    42 C    1.248    48 C    1.007
    44   6 C    3.944 --    43 C    1.569    49 S    1.149    45 C    1.026
                            41 C    0.108
    45   6 C    3.996 --    44 C    1.026    46 C    1.000    73 H    0.967
                            74 H    0.956
    46   6 C    3.997 --    47 C    1.009    45 C    1.000    75 H    0.978
                            76 H    0.977
    47   6 C    3.997 --    46 C    1.009    48 C    1.006    78 H    0.978
                            77 H    0.978
    48   6 C    3.997 --    43 C    1.007    47 C    1.006    80 H    0.968
                            79 H    0.961
    49  16 S    2.595 --    44 C    1.149    41 C    1.135
    50   8 O    2.042 --    40 C    1.694    39 N    0.191
    51   1 H    0.995 --     6 C    0.966
    52   1 H    0.996 --     7 C    0.969
    53   1 H    0.996 --     8 C    0.969
    54   1 H    0.995 --     9 C    0.960
    55   1 H    0.994 --    11 C    0.952
    56   1 H    0.994 --    12 C    0.951
    57   1 H    0.995 --    19 C    0.965
    58   1 H    0.996 --    20 C    0.969
    59   1 H    0.996 --    21 C    0.969
    60   1 H    0.997 --    22 C    0.966
    61   1 H    0.997 --    26 C    0.962
    62   1 H    0.997 --    28 C    0.960
    63   1 H    0.998 --    28 C    0.968
    64   1 H    0.999 --    29 C    0.978
    65   1 H    0.998 --    29 C    0.978
    66   1 H    0.998 --    30 C    0.977
    67   1 H    0.998 --    30 C    0.978
    68   1 H    0.996 --    31 C    0.965
    69   1 H    0.996 --    31 C    0.956
    70   1 H    0.992 --    35 C    0.935
    71   1 H    0.881 --    37 O    0.855
    72   1 H    0.998 --    42 C    0.963
    73   1 H    0.997 --    45 C    0.967
    74   1 H    0.996 --    45 C    0.956
    75   1 H    0.999 --    46 C    0.978
    76   1 H    0.998 --    46 C    0.977
    77   1 H    0.998 --    47 C    0.978
    78   1 H    0.998 --    47 C    0.978
    79   1 H    0.998 --    48 C    0.961
    80   1 H    0.998 --    48 C    0.968
 ---------------------------------------------------------------------------

molecular dipole:
                 x           y           z       tot (Debye)
 q only:        0.609      -3.751      -0.546
   full:        0.397      -4.141      -0.196      10.585

           -------------------------------------------------
          | TOTAL ENERGY             -149.515970530509 Eh   |
          | GRADIENT NORM               0.000491089898 Eh/Î± |
          | HOMO-LUMO GAP               3.033505835211 eV   |
           -------------------------------------------------

 * finished run on 2022/03/16 at 21:25:03.632
