   * xtb version 6.3.3 (4ae9cef) compiled by 'conda@95abc7406d43' on 2020-10-14
          program call               : xtb acid_445.xyz --opt --chrg 0 --uhf 0 --gfn 2
          number of atoms            :                    54
          number of electrons        :                   182
          charge                     :                     0
          spin                       :                   0.0

   ID    Z sym.   atoms
    1    6 C      1-14, 16-18, 20, 21, 24, 25, 29-31, 33, 34
    2    7 N      15, 28
    3   16 S      19, 32
    4   35 Br     22, 35
    5    8 O      23, 26, 27, 36
    6    1 H      37-54

          :  Hamiltonian                  GFN2-xTB          :
 * total energy  :  -101.6249830 Eh     change       -0.2609326E-08 Eh
 * total energy  :  -101.6363887 Eh     change       -0.1140570E-01 Eh
 * total energy  :  -101.6399336 Eh     change       -0.3544989E-02 Eh
 * total energy  :  -101.6409491 Eh     change       -0.1015498E-02 Eh
 * total energy  :  -101.6414543 Eh     change       -0.5051691E-03 Eh
 * total energy  :  -101.6418083 Eh     change       -0.3539920E-03 Eh
 * total energy  :  -101.6422230 Eh     change       -0.4146839E-03 Eh
 * total energy  :  -101.6426410 Eh     change       -0.4180354E-03 Eh
 * total energy  :  -101.6430801 Eh     change       -0.4390584E-03 Eh
 * total energy  :  -101.6434217 Eh     change       -0.3416687E-03 Eh
 * total energy  :  -101.6459786 Eh     change       -0.2954258E-04 Eh
 * total energy  :  -101.6460053 Eh     change       -0.2668919E-04 Eh
 * total energy  :  -101.6460250 Eh     change       -0.1964904E-04 Eh
 * total energy  :  -101.6460447 Eh     change       -0.1975528E-04 Eh
 * total energy  :  -101.6460643 Eh     change       -0.1962451E-04 Eh
 * total energy  :  -101.6460827 Eh     change       -0.1838188E-04 Eh
 * total energy  :  -101.6460928 Eh     change       -0.1012564E-04 Eh
 * total energy  :  -101.6461063 Eh     change       -0.1349034E-04 Eh
 * total energy  :  -101.6461078 Eh     change       -0.1438769E-05 Eh
   *** GEOMETRY OPTIMIZATION CONVERGED AFTER 44 ITERATIONS ***

 final structure:
================
54
 xtb: 6.3.3 (4ae9cef)
C        -2.33588319194188   -1.06470596622827   -1.92455473992819
C        -2.89698622626204   -1.74928845502665   -2.98973340734656
C        -2.79187384476719   -3.12548633507074   -3.06769680477272
C        -2.13148368531890   -3.81966329056829   -2.06704929075887
C        -1.57221129628080   -3.13734529770265   -1.00359030276589
C        -1.66009695662487   -1.75083695923112   -0.93031939169804
C        -1.03006410238406   -1.06406147767878    0.26155704777726
C         0.47745360037615   -1.36317658252719    0.38266591794992
C         0.88989730480580   -1.77636464290720    1.77394963017807
C         0.66070066321126   -0.93083784874730    2.85301758451042
C         1.03821106606928   -1.30739614586292    4.12883081548394
C         1.64842278280479   -2.53276902082908    4.33797110179035
C         1.88287639274685   -3.37697214291145    3.26665361206231
C         1.50710499690519   -2.99969125599801    1.98916213364562
N         1.11216447506140   -0.10422463053950    0.01163966711533
C         2.41616882355207   -0.06360898437740   -0.35448995388030
C         2.90364891254120    1.30419295725110   -0.71396163850043
C         3.10373003716412    2.32017337870692    0.16977232985956
S         3.72970256977286    3.73298972505049   -0.57746074542599
C         3.73827881264029    2.96756257709165   -2.10898061992415
C         3.28739422908876    1.68823568502758   -2.02720088378818
Br        3.12806918932181    0.55281864033120   -3.52503323071551
O         3.12433216505716   -1.04338220823782   -0.37329390375083
C         0.18340040243753    0.99151010314950   -0.06868846235769
C         0.20231887874227    1.64247830298353   -1.47364240971973
O         0.06035713059660    0.74655651096579   -2.42682296274570
O         0.32290731889282    2.82670442630901   -1.63922376688806
N        -1.09214580429367    0.39119009759298    0.23094289393605
C        -2.16626045133161    1.05574268630880    0.73354707041110
C        -2.00838940142943    2.54626829195775    0.75411681906508
C        -1.58317622346129    3.25199516992366    1.83688969698363
S        -1.53957544226581    4.94617626769955    1.54994194011829
C        -2.11544584082770    4.72692723399524   -0.04793530655341
C        -2.32124333339852    3.41372849165738   -0.32705575084814
Br       -2.97670412948831    2.81945695820435   -1.98872285698268
O        -3.15757179990874    0.49164786582842    1.13244699258997
H        -2.44276908016796    0.00547135722385   -1.87256341157896
H        -3.42083463025099   -1.19860978644663   -3.75630872905527
H        -3.22867395709406   -3.65819886980008   -3.89898587875349
H        -2.05543662397220   -4.89582043748980   -2.11336753106437
H        -1.07051284553106   -3.68283820082638   -0.21688370060334
H        -1.56632383167557   -1.39424938521768    1.16172399508234
H         0.79381099211751   -2.12713514941201   -0.33535480823832
H         0.18073462822900    0.02543904858732    2.69647248443552
H         0.85527474389895   -0.64435903578280    4.96159108587274
H         1.94213576381009   -2.82634364695463    5.33456989909146
H         2.36290957222690   -4.33089656553840    3.42492992795054
H         1.70205731094508   -3.65262377201024    1.15183262368790
H         2.93684852801759    2.31026770302930    1.22858945439803
H         4.06857336757973    3.49246402774920   -2.98230080301535
H         0.42050459226251    1.79375077748984    0.65225175731078
H         0.05129292788919    1.14099878541391   -3.31582962828093
H        -1.29986197943061    2.86967807040044    2.79760570779111
H        -2.26775650065562    5.56646395399605   -0.69562126915292

          :  Hamiltonian                  GFN2-xTB          :
         :: total energy            -101.646107777428 Eh    ::
         :: gradient norm              0.000817972098 Eh/a0 ::
         :: HOMO-LUMO gap              3.223892511249 eV    ::
         :: SCC energy              -102.985696504343 Eh    ::
         :: -> dispersion             -0.089997272414 Eh    ::
         :: repulsion energy           1.336429336887 Eh    ::

    * Orbital Energies and Occupations

         #    Occupation            Energy/Eh            Energy/eV
      -------------------------------------------------------------
         1        2.0000           -0.8509476             -23.1555
       ...           ...                  ...                  ...
        79        2.0000           -0.4307984             -11.7226
        80        2.0000           -0.4272632             -11.6264
        81        2.0000           -0.4237079             -11.5297
        82        2.0000           -0.4230074             -11.5106
        83        2.0000           -0.4221628             -11.4876
        84        2.0000           -0.4203342             -11.4379
        85        2.0000           -0.4187836             -11.3957
        86        2.0000           -0.4173827             -11.3576
        87        2.0000           -0.4107717             -11.1777
        88        2.0000           -0.4101299             -11.1602
        89        2.0000           -0.4095025             -11.1431
        90        2.0000           -0.4087377             -11.1223
        91        2.0000           -0.4049378             -11.0189 (HOMO)
        92                         -0.2864619              -7.7950 (LUMO)
        93                         -0.2803374              -7.6284
        94                         -0.2738665              -7.4523
        95                         -0.2500816              -6.8051
        96                         -0.2468678              -6.7176
        97                         -0.2425912              -6.6012
        98                         -0.2408846              -6.5548
        99                         -0.2393553              -6.5132
       100                         -0.2380470              -6.4776
       101                         -0.2305379              -6.2733
       102                         -0.2281041              -6.2070
       ...                                ...                  ...
       182                          0.6700387              18.2327
      -------------------------------------------------------------
                  HL-Gap            0.1184759 Eh            3.2239 eV

     #   Z          covCN         q      C6AA      Î±(0)
     1   6 C        2.923    -0.028    28.703     8.786
     2   6 C        2.921    -0.026    28.650     8.777
     3   6 C        2.920    -0.028    28.706     8.786
     4   6 C        2.920    -0.026    28.654     8.778
     5   6 C        2.926    -0.037    28.926     8.820
     6   6 C        2.971     0.006    27.874     8.660
     7   6 C        3.822     0.042    19.848     6.340
     8   6 C        3.822     0.041    19.876     6.344
     9   6 C        2.973     0.003    27.948     8.672
    10   6 C        2.924    -0.033    28.813     8.803
    11   6 C        2.919    -0.028    28.691     8.784
    12   6 C        2.920    -0.027    28.683     8.783
    13   6 C        2.920    -0.024    28.612     8.772
    14   6 C        2.924    -0.028    28.693     8.784
    15   7 N        2.768    -0.113    23.462     7.194
    16   6 C        2.760     0.278    22.295     7.732
    17   6 C        3.199    -0.041    28.449     8.693
    18   6 C        2.950    -0.032    28.795     8.801
    19  16 S        2.317     0.056   138.799    19.829
    20   6 C        2.998    -0.033    28.807     8.804
    21   6 C        3.136     0.069    26.248     8.386
    22  35 Br       1.029    -0.142   188.942    22.163
    23   8 O        0.859    -0.401    21.693     6.245
    24   6 C        3.750     0.095    19.067     6.227
    25   6 C        2.687     0.354    20.983     7.496
    26   8 O        1.660    -0.332    19.580     5.974
    27   8 O        0.856    -0.402    21.718     6.248
    28   7 N        2.765    -0.108    23.368     7.180
    29   6 C        2.759     0.278    22.290     7.731
    30   6 C        3.194    -0.039    28.431     8.694
    31   6 C        2.952    -0.030    28.739     8.793
    32  16 S        2.313     0.041   139.387    19.871
    33   6 C        3.004    -0.029    28.710     8.789
    34   6 C        3.136     0.070    26.221     8.381
    35  35 Br       1.034    -0.143   188.966    22.164
    36   8 O        0.859    -0.398    21.647     6.238
    37   1 H        0.926     0.042     2.420     2.433
    38   1 H        0.926     0.041     2.430     2.438
    39   1 H        0.926     0.038     2.473     2.459
    40   1 H        0.926     0.038     2.473     2.459
    41   1 H        0.926     0.031     2.572     2.508
    42   1 H        0.923     0.077     2.011     2.218
    43   1 H        0.924     0.077     2.010     2.217
    44   1 H        0.925     0.020     2.739     2.588
    45   1 H        0.926     0.036     2.505     2.475
    46   1 H        0.926     0.039     2.457     2.451
    47   1 H        0.926     0.043     2.415     2.430
    48   1 H        0.926     0.045     2.377     2.411
    49   1 H        0.926     0.055     2.257     2.349
    50   1 H        0.926     0.074     2.046     2.237
    51   1 H        0.923     0.050     2.318     2.381
    52   1 H        0.804     0.357     0.573     1.189
    53   1 H        0.926     0.058     2.220     2.330
    54   1 H        0.926     0.072     2.062     2.245

Wiberg/Mayer (AO) data.
largest (>0.10) Wiberg bond orders for each atom

     #   Z sym  total        # sym  WBO       # sym  WBO       # sym  WBO
 ---------------------------------------------------------------------------
     1   6 C    3.991 --     2 C    1.431     6 C    1.427    37 H    0.962
                             4 C    0.110
     2   6 C    3.992 --     3 C    1.449     1 C    1.431    38 H    0.970
                             5 C    0.114
     3   6 C    3.991 --     2 C    1.449     4 C    1.430    39 H    0.971
                             6 C    0.109
     4   6 C    3.991 --     5 C    1.455     3 C    1.430    40 H    0.971
                             1 C    0.110
     5   6 C    3.991 --     4 C    1.455     6 C    1.400    41 H    0.969
                             2 C    0.114
     6   6 C    3.984 --     1 C    1.427     5 C    1.400     7 C    0.982
                             3 C    0.109
     7   6 C    3.956 --     6 C    0.982     8 C    0.960    28 N    0.958
                            42 H    0.943
     8   6 C    3.957 --     9 C    0.985     7 C    0.960    43 H    0.952
                            15 N    0.949
     9   6 C    3.985 --    14 C    1.417    10 C    1.410     8 C    0.985
                            12 C    0.110
    10   6 C    3.992 --    11 C    1.449     9 C    1.410    44 H    0.969
                            13 C    0.112
    11   6 C    3.992 --    10 C    1.449    12 C    1.435    45 H    0.971
                            14 C    0.111
    12   6 C    3.990 --    13 C    1.442    11 C    1.435    46 H    0.971
                             9 C    0.110
    13   6 C    3.991 --    12 C    1.442    14 C    1.440    47 H    0.970
                            10 C    0.112
    14   6 C    3.989 --    13 C    1.440     9 C    1.417    48 H    0.967
                            11 C    0.111
    15   7 N    3.471 --    16 C    1.213    24 C    0.987     8 C    0.949
                            23 O    0.197
    16   6 C    3.953 --    23 O    1.703    15 N    1.213    17 C    0.951
    17   6 C    3.982 --    18 C    1.584    21 C    1.221    16 C    0.951
    18   6 C    3.953 --    17 C    1.584    19 S    1.210    49 H    0.969
                            20 C    0.108
    19  16 S    2.684 --    18 C    1.210    20 C    1.206
    20   6 C    3.950 --    21 C    1.584    19 S    1.206    50 H    0.967
                            18 C    0.108
    21   6 C    3.936 --    20 C    1.584    17 C    1.221    22 Br   0.991
    22  35 Br   1.141 --    21 C    0.991
    23   8 O    2.044 --    16 C    1.703    15 N    0.197
    24   6 C    3.972 --    28 N    0.988    15 N    0.987    51 H    0.944
                            25 C    0.901
    25   6 C    3.924 --    27 O    1.755    26 O    1.196    24 C    0.901
    26   8 O    2.264 --    25 C    1.196    52 H    0.844    27 O    0.190
    27   8 O    2.047 --    25 C    1.755    26 O    0.190
    28   7 N    3.475 --    29 C    1.207    24 C    0.988     7 C    0.958
                            36 O    0.196
    29   6 C    3.951 --    36 O    1.712    28 N    1.207    30 C    0.947
    30   6 C    3.982 --    31 C    1.592    34 C    1.221    29 C    0.947
    31   6 C    3.951 --    30 C    1.592    32 S    1.202    53 H    0.969
                            33 C    0.110
    32  16 S    2.672 --    33 C    1.205    31 C    1.202
    33   6 C    3.950 --    34 C    1.586    32 S    1.205    54 H    0.968
                            31 C    0.110
    34   6 C    3.936 --    33 C    1.586    30 C    1.221    35 Br   0.987
    35  35 Br   1.143 --    34 C    0.987
    36   8 O    2.048 --    29 C    1.712    28 N    0.196
    37   1 H    0.998 --     1 C    0.962
    38   1 H    0.998 --     2 C    0.970
    39   1 H    0.998 --     3 C    0.971
    40   1 H    0.998 --     4 C    0.971
    41   1 H    0.999 --     5 C    0.969
    42   1 H    0.993 --     7 C    0.943
    43   1 H    0.993 --     8 C    0.952
    44   1 H    1.000 --    10 C    0.969
    45   1 H    0.998 --    11 C    0.971
    46   1 H    0.998 --    12 C    0.971
    47   1 H    0.998 --    13 C    0.970
    48   1 H    0.998 --    14 C    0.967
    49   1 H    0.997 --    18 C    0.969
    50   1 H    0.994 --    20 C    0.967
    51   1 H    0.997 --    24 C    0.944
    52   1 H    0.873 --    26 O    0.844
    53   1 H    0.997 --    31 C    0.969
    54   1 H    0.994 --    33 C    0.968
 ---------------------------------------------------------------------------

molecular dipole:
                 x           y           z       tot (Debye)
 q only:        0.322       0.483       0.560
   full:        0.512       0.845       1.179       3.909

           -------------------------------------------------
          | TOTAL ENERGY             -101.646107777428 Eh   |
          | GRADIENT NORM               0.000817972098 Eh/Î± |
          | HOMO-LUMO GAP               3.223892511249 eV   |
           -------------------------------------------------

 * finished run on 2022/03/17 at 01:18:41.284
