   * xtb version 6.3.3 (4ae9cef) compiled by 'conda@95abc7406d43' on 2020-10-14
          program call               : xtb acid_142.xyz --opt --chrg 0 --uhf 0 --gfn 2
          number of atoms            :                    76
          number of electrons        :                   226
          charge                     :                     0
          spin                       :                   0.0

   ID    Z sym.   atoms
    1    6 C      1, 3-16, 18, 20-24, 26-28, 30, 31, 35-39, 41-43
    2    8 O      2, 17, 25, 29, 32, 33, 40, 44
    3    7 N      19, 34
    4    1 H      45-76

          :  Hamiltonian                  GFN2-xTB          :
 * total energy  :  -127.5103246 Eh     change       -0.1254591E-08 Eh
 * total energy  :  -127.5253128 Eh     change       -0.1498827E-01 Eh
 * total energy  :  -127.5300548 Eh     change       -0.4741933E-02 Eh
 * total energy  :  -127.5314663 Eh     change       -0.1411510E-02 Eh
 * total energy  :  -127.5324985 Eh     change       -0.1032186E-02 Eh
 * total energy  :  -127.5332187 Eh     change       -0.7201949E-03 Eh
 * total energy  :  -127.5339213 Eh     change       -0.7026151E-03 Eh
 * total energy  :  -127.5347308 Eh     change       -0.8094846E-03 Eh
 * total energy  :  -127.5356961 Eh     change       -0.9653213E-03 Eh
 * total energy  :  -127.5367682 Eh     change       -0.1072094E-02 Eh
 * total energy  :  -127.5472470 Eh     change       -0.4306217E-04 Eh
 * total energy  :  -127.5472762 Eh     change       -0.2920431E-04 Eh
 * total energy  :  -127.5473006 Eh     change       -0.2441179E-04 Eh
 * total energy  :  -127.5473184 Eh     change       -0.1779459E-04 Eh
 * total energy  :  -127.5473375 Eh     change       -0.1917085E-04 Eh
 * total energy  :  -127.5473515 Eh     change       -0.1392427E-04 Eh
 * total energy  :  -127.5473719 Eh     change       -0.2047596E-04 Eh
 * total energy  :  -127.5473773 Eh     change       -0.5335103E-05 Eh
 * total energy  :  -127.5473819 Eh     change       -0.4574255E-05 Eh
   *** GEOMETRY OPTIMIZATION CONVERGED AFTER 49 ITERATIONS ***

 final structure:
================
76
 xtb: 6.3.3 (4ae9cef)
C         0.98647749032060   -2.74451148146655    3.00699054661651
O         2.16535029349680   -2.71934395444251    2.34253091452868
C         3.36745919447998   -2.79235976095788    3.06659054257908
C         0.86011522478439   -2.87018223547088    4.38494607890838
C        -0.39418159604462   -2.88641365014211    4.97068308007714
C        -1.52793601698278   -2.78064849572493    4.19046316101127
C        -1.40788802393534   -2.65344856342535    2.81447596237404
C        -0.16619642290050   -2.63349180994385    2.20459120503318
C         0.06241212307552   -2.44490043215339    0.72107136933753
C        -1.20097887760928   -2.32030451402901   -0.14725933415741
C        -0.97472550384997   -2.86443630457359   -1.53961135775909
C        -1.29255970776419   -4.19761700592478   -1.75361559829923
C        -1.10581834345025   -4.80267205641162   -2.98219421283066
C        -0.60319894471425   -4.05494404251475   -4.02845777189811
C        -0.28058714929064   -2.72343860249477   -3.83980112964319
C        -0.44560332263852   -2.11546793530190   -2.59919897428861
O        -0.11715410877990   -0.80832192670162   -2.35862931694086
C         0.37130034772138   -0.04024271982800   -3.43099816922889
N        -1.47206323946202   -0.89057336762566   -0.09967758995361
C        -2.68043606606473   -0.40223830829007   -0.47196377013594
C        -2.84449176888715    1.08042822106508   -0.39636157060048
C        -3.89180394318937    1.60708545455087    0.35503523778412
C        -4.08895596608459    2.96794939894696    0.42215223230486
C        -3.25676855975991    3.84028028057683   -0.28346314110060
O        -3.53398265385279    5.16520391319887   -0.14516093893153
C        -2.74950365856395    6.09706147501985   -0.84859012364044
C        -2.23304221761727    3.31588826531437   -1.06520051569463
C        -2.03476055432173    1.94604477410402   -1.11563346562989
O        -3.57707986438053   -1.13866910134307   -0.83459672206143
C        -0.37028580805770   -0.18680160808213    0.52436554181668
C        -0.68837972167606    0.22325555813019    1.97760610013444
O        -1.98535246379651    0.19857245778122    2.25488520334391
O         0.14776405927840    0.57155509610733    2.76685366197361
N         0.69917357347016   -1.14581939188899    0.51408544428208
C         1.87531841757036   -1.06029472509689   -0.18325413395206
C         2.40427739946101    0.30527554460815   -0.43423005959055
C         2.28791972018337    1.35267694284484    0.47160689086957
C         2.83192085744959    2.59480173902337    0.19018354079672
C         3.50606830732019    2.81013252567915   -1.00776317614807
O         4.05863956693032    3.99151875010707   -1.39174280415072
C         3.98573807204599    5.08926258340860   -0.51414586732992
C         3.65576996977259    1.74791015353938   -1.90421210410132
C         3.12521706665962    0.51337115101891   -1.61106747839176
O         2.47506043999103   -2.05261741437041   -0.54299920306335
H         3.45282529537693   -3.73753335753110    3.61320798473987
H         4.15529149208143   -2.73570345881523    2.31724685982101
H         3.46683588900405   -1.95464967308380    3.76405443617802
H         1.73480100427062   -2.95177122304614    5.01010633661003
H        -0.47778517437238   -2.98072809737232    6.04316159966967
H        -2.50730139881825   -2.79352325502479    4.64411206955327
H        -2.30788403630599   -2.55601825188976    2.22752634367241
H         0.74875499706669   -3.21261946531294    0.35128114062850
H        -2.05433291489964   -2.86167007801514    0.26983174959070
H        -1.69731418220018   -4.77028342208750   -0.93186704775971
H        -1.35824805214506   -5.84237821441240   -3.12066274709457
H        -0.45921751685103   -4.50124698801284   -5.00105423435309
H         0.10588381750236   -2.16397633537340   -4.67620484885716
H         0.62882053737813    0.93306362237466   -3.01321245869538
H        -0.38856809295387    0.08515942310390   -4.21005069072786
H         1.27314414580945   -0.47949429142425   -3.86644806600186
H        -4.54463616995420    0.93370220808562    0.88806376491063
H        -4.89035136384903    3.38948428034638    1.00807400196934
H        -3.15169795831311    7.07527738948384   -0.58993649852718
H        -2.82406270272162    5.95094184637606   -1.93088112242575
H        -1.69818171641624    6.04780343013670   -0.54636712861322
H        -1.58877412204358    3.95922258781383   -1.64419953563711
H        -1.25623991457727    1.54947732566460   -1.74924700500794
H        -0.09219724529824    0.72337640258692   -0.01853857801440
H        -2.14661768095272    0.45709497717685    3.17728604326282
H         1.80179074304042    1.19713270082649    1.42190953904275
H         2.72968320672576    3.38270544117324    0.91968764009316
H         4.49555336280535    5.90633438337159   -1.02200314908416
H         4.49217417828787    4.88032471667188    0.43335245898561
H         2.94850821769630    5.37828505454585   -0.31552434591939
H         4.20409808892903    1.92152149175455   -2.81674650661853
H         3.26299764635202   -0.31782604691274   -2.28524918963461

          :  Hamiltonian                  GFN2-xTB          :
         :: total energy            -127.547381856755 Eh    ::
         :: gradient norm              0.000423022662 Eh/a0 ::
         :: HOMO-LUMO gap              3.186509364637 eV    ::
         :: SCC energy              -129.297031933624 Eh    ::
         :: -> dispersion             -0.106087122170 Eh    ::
         :: repulsion energy           1.745417584746 Eh    ::

    * Orbital Energies and Occupations

         #    Occupation            Energy/Eh            Energy/eV
      -------------------------------------------------------------
         1        2.0000           -0.7675663             -20.8865
       ...           ...                  ...                  ...
       101        2.0000           -0.4236683             -11.5286
       102        2.0000           -0.4140123             -11.2658
       103        2.0000           -0.4136198             -11.2552
       104        2.0000           -0.4078338             -11.0977
       105        2.0000           -0.4056866             -11.0393
       106        2.0000           -0.3946574             -10.7392
       107        2.0000           -0.3903338             -10.6215
       108        2.0000           -0.3888492             -10.5811
       109        2.0000           -0.3884152             -10.5693
       110        2.0000           -0.3839022             -10.4465
       111        2.0000           -0.3809423             -10.3660
       112        2.0000           -0.3773593             -10.2685
       113        2.0000           -0.3751476             -10.2083 (HOMO)
       114                         -0.2580456              -7.0218 (LUMO)
       115                         -0.2486162              -6.7652
       116                         -0.2364833              -6.4350
       117                         -0.2310906              -6.2883
       118                         -0.2306130              -6.2753
       119                         -0.2274550              -6.1894
       120                         -0.2212250              -6.0198
       121                         -0.2161693              -5.8823
       122                         -0.2106156              -5.7311
       123                         -0.1887964              -5.1374
       124                         -0.1806860              -4.9167
       ...                                ...                  ...
       208                          0.6745471              18.3554
      -------------------------------------------------------------
                  HL-Gap            0.1171021 Eh            3.1865 eV

     #   Z          covCN         q      C6AA      Î±(0)
     1   6 C        2.871     0.145    24.844     8.171
     2   8 O        1.706    -0.255    18.230     5.765
     3   6 C        3.644     0.037    20.293     6.475
     4   6 C        2.916    -0.066    29.635     8.927
     5   6 C        2.920    -0.032    28.792     8.799
     6   6 C        2.918    -0.047    29.161     8.855
     7   6 C        2.921    -0.041    29.025     8.835
     8   6 C        2.971    -0.026    28.643     8.779
     9   6 C        3.864     0.037    19.918     6.347
    10   6 C        3.835     0.042    19.848     6.338
    11   6 C        2.969    -0.011    28.296     8.725
    12   6 C        2.930    -0.034    28.852     8.809
    13   6 C        2.917    -0.038    28.943     8.822
    14   6 C        2.921    -0.030    28.759     8.794
    15   6 C        2.920    -0.063    29.573     8.918
    16   6 C        2.866     0.147    24.802     8.163
    17   8 O        1.704    -0.284    18.711     5.840
    18   6 C        3.644     0.046    20.142     6.451
    19   7 N        2.768    -0.103    23.258     7.163
    20   6 C        2.762     0.274    22.368     7.745
    21   6 C        2.973    -0.025    28.634     8.777
    22   6 C        2.924    -0.021    28.530     8.759
    23   6 C        2.920    -0.054    29.351     8.884
    24   6 C        2.866     0.145    24.845     8.170
    25   8 O        1.706    -0.266    18.405     5.792
    26   6 C        3.644     0.037    20.288     6.474
    27   6 C        2.917    -0.068    29.693     8.936
    28   6 C        2.923    -0.037    28.921     8.819
    29   8 O        0.859    -0.431    22.302     6.332
    30   6 C        3.790     0.087    19.158     6.234
    31   6 C        2.688     0.352    21.031     7.505
    32   8 O        1.659    -0.357    20.027     6.041
    33   8 O        0.856    -0.398    21.634     6.236
    34   7 N        2.773    -0.108    23.357     7.178
    35   6 C        2.763     0.279    22.274     7.729
    36   6 C        2.972    -0.027    28.669     8.783
    37   6 C        2.921    -0.040    29.004     8.832
    38   6 C        2.916    -0.067    29.666     8.932
    39   6 C        2.866     0.146    24.823     8.167
    40   8 O        1.705    -0.265    18.390     5.790
    41   6 C        3.644     0.036    20.300     6.476
    42   6 C        2.918    -0.056    29.398     8.891
    43   6 C        2.926    -0.020    28.518     8.758
    44   8 O        0.859    -0.418    22.048     6.296
    45   1 H        0.924     0.041     2.431     2.438
    46   1 H        0.925     0.071     2.077     2.254
    47   1 H        0.924     0.043     2.416     2.431
    48   1 H        0.926     0.040     2.443     2.444
    49   1 H        0.926     0.037     2.488     2.467
    50   1 H        0.926     0.035     2.520     2.483
    51   1 H        0.926     0.044     2.391     2.418
    52   1 H        0.924     0.096     1.826     2.113
    53   1 H        0.924     0.073     2.056     2.242
    54   1 H        0.926     0.040     2.454     2.450
    55   1 H        0.926     0.039     2.456     2.451
    56   1 H        0.926     0.038     2.474     2.460
    57   1 H        0.926     0.039     2.465     2.455
    58   1 H        0.925     0.049     2.330     2.387
    59   1 H        0.924     0.041     2.431     2.438
    60   1 H        0.924     0.044     2.401     2.423
    61   1 H        0.926     0.055     2.263     2.352
    62   1 H        0.926     0.054     2.270     2.356
    63   1 H        0.925     0.064     2.153     2.294
    64   1 H        0.924     0.042     2.419     2.432
    65   1 H        0.924     0.039     2.469     2.457
    66   1 H        0.926     0.036     2.504     2.475
    67   1 H        0.926     0.038     2.469     2.457
    68   1 H        0.924     0.081     1.966     2.193
    69   1 H        0.804     0.343     0.604     1.220
    70   1 H        0.926     0.061     2.192     2.315
    71   1 H        0.926     0.039     2.459     2.452
    72   1 H        0.925     0.064     2.152     2.294
    73   1 H        0.924     0.044     2.399     2.422
    74   1 H        0.924     0.039     2.458     2.452
    75   1 H        0.926     0.053     2.289     2.366
    76   1 H        0.926     0.059     2.215     2.327

Wiberg/Mayer (AO) data.
largest (>0.10) Wiberg bond orders for each atom

     #   Z sym  total        # sym  WBO       # sym  WBO       # sym  WBO
 ---------------------------------------------------------------------------
     1   6 C    3.936 --     4 C    1.380     8 C    1.305     2 O    1.083
     2   8 O    2.260 --     1 C    1.083     3 C    0.982
     3   6 C    3.942 --     2 O    0.982    46 H    0.978    47 H    0.976
                            45 H    0.976
     4   6 C    3.987 --     5 C    1.432     1 C    1.380    48 H    0.965
     5   6 C    3.991 --     6 C    1.447     4 C    1.432    49 H    0.971
                             8 C    0.104
     6   6 C    3.990 --     5 C    1.447     7 C    1.415    50 H    0.971
     7   6 C    3.989 --     8 C    1.446     6 C    1.415    51 H    0.961
     8   6 C    3.981 --     7 C    1.446     1 C    1.305     9 C    0.988
                             5 C    0.104
     9   6 C    3.962 --     8 C    0.988    10 C    0.962    34 N    0.954
                            52 H    0.943
    10   6 C    3.965 --    11 C    0.988    19 N    0.963     9 C    0.962
                            53 H    0.944
    11   6 C    3.984 --    12 C    1.428    16 C    1.337    10 C    0.988
                            14 C    0.107
    12   6 C    3.989 --    13 C    1.434    11 C    1.428    54 H    0.968
                            15 C    0.104
    13   6 C    3.991 --    14 C    1.438    12 C    1.434    55 H    0.970
    14   6 C    3.990 --    15 C    1.440    13 C    1.438    56 H    0.971
                            11 C    0.107
    15   6 C    3.988 --    14 C    1.440    16 C    1.379    57 H    0.965
                            12 C    0.104
    16   6 C    3.932 --    15 C    1.379    11 C    1.337    17 O    1.047
    17   8 O    2.216 --    16 C    1.047    18 C    0.986
    18   6 C    3.948 --    17 O    0.986    58 H    0.977    59 H    0.976
                            60 H    0.974
    19   7 N    3.475 --    20 C    1.217    30 C    0.980    10 C    0.963
                            29 O    0.190
    20   6 C    3.947 --    29 O    1.678    19 N    1.217    21 C    0.969
    21   6 C    3.987 --    28 C    1.412    22 C    1.379    20 C    0.969
    22   6 C    3.989 --    23 C    1.480    21 C    1.379    61 H    0.968
                            27 C    0.100
    23   6 C    3.987 --    22 C    1.480    24 C    1.343    62 H    0.967
                            28 C    0.107
    24   6 C    3.936 --    27 C    1.374    23 C    1.343    25 O    1.066
    25   8 O    2.235 --    24 C    1.066    26 C    0.985
    26   6 C    3.946 --    25 O    0.985    63 H    0.979    65 H    0.977
                            64 H    0.976
    27   6 C    3.987 --    28 C    1.438    24 C    1.374    66 H    0.966
                            22 C    0.100
    28   6 C    3.991 --    27 C    1.438    21 C    1.412    67 H    0.964
                            23 C    0.107
    29   8 O    2.002 --    20 C    1.678    19 N    0.190
    30   6 C    3.976 --    34 N    0.997    19 N    0.980    68 H    0.923
                            31 C    0.917
    31   6 C    3.917 --    33 O    1.760    32 O    1.162    30 C    0.917
    32   8 O    2.227 --    31 C    1.162    69 H    0.855    33 O    0.179
    33   8 O    2.051 --    31 C    1.760    32 O    0.179
    34   7 N    3.439 --    35 C    1.171    30 C    0.997     9 C    0.954
                            44 O    0.175
    35   6 C    3.941 --    44 O    1.692    34 N    1.171    36 C    0.996
    36   6 C    3.986 --    37 C    1.398    43 C    1.367    35 C    0.996
    37   6 C    3.988 --    38 C    1.445    36 C    1.398    70 H    0.960
                            42 C    0.103
    38   6 C    3.987 --    37 C    1.445    39 C    1.372    71 H    0.965
    39   6 C    3.934 --    38 C    1.372    42 C    1.338    40 O    1.069
    40   8 O    2.236 --    39 C    1.069    41 C    0.984
    41   6 C    3.946 --    40 O    0.984    72 H    0.980    74 H    0.977
                            73 H    0.976
    42   6 C    3.987 --    43 C    1.487    39 C    1.338    75 H    0.967
                            37 C    0.103
    43   6 C    3.988 --    42 C    1.487    36 C    1.367    76 H    0.965
    44   8 O    2.019 --    35 C    1.692    34 N    0.175
    45   1 H    0.998 --     3 C    0.976
    46   1 H    0.995 --     3 C    0.978
    47   1 H    0.998 --     3 C    0.976
    48   1 H    0.998 --     4 C    0.965
    49   1 H    0.998 --     5 C    0.971
    50   1 H    0.998 --     6 C    0.971
    51   1 H    0.997 --     7 C    0.961
    52   1 H    0.990 --     9 C    0.943
    53   1 H    0.994 --    10 C    0.944
    54   1 H    0.998 --    12 C    0.968
    55   1 H    0.998 --    13 C    0.970
    56   1 H    0.998 --    14 C    0.971
    57   1 H    0.998 --    15 C    0.965
    58   1 H    0.997 --    18 C    0.977
    59   1 H    0.998 --    18 C    0.976
    60   1 H    0.998 --    18 C    0.974
    61   1 H    0.996 --    22 C    0.968
    62   1 H    0.997 --    23 C    0.967
    63   1 H    0.995 --    26 C    0.979
    64   1 H    0.998 --    26 C    0.976
    65   1 H    0.998 --    26 C    0.977
    66   1 H    0.998 --    27 C    0.966
    67   1 H    0.998 --    28 C    0.964
    68   1 H    0.993 --    30 C    0.923
    69   1 H    0.881 --    32 O    0.855
    70   1 H    0.996 --    37 C    0.960
    71   1 H    0.998 --    38 C    0.965
    72   1 H    0.995 --    41 C    0.980
    73   1 H    0.998 --    41 C    0.976
    74   1 H    0.998 --    41 C    0.977
    75   1 H    0.997 --    42 C    0.967
    76   1 H    0.996 --    43 C    0.965
 ---------------------------------------------------------------------------

molecular dipole:
                 x           y           z       tot (Debye)
 q only:        0.642       1.542       0.604
   full:        0.800       2.057       0.752       5.926

           -------------------------------------------------
          | TOTAL ENERGY             -127.547381856755 Eh   |
          | GRADIENT NORM               0.000423022662 Eh/Î± |
          | HOMO-LUMO GAP               3.186509364637 eV   |
           -------------------------------------------------

 * finished run on 2022/03/16 at 21:48:53.659
