   * xtb version 6.3.3 (4ae9cef) compiled by 'conda@95abc7406d43' on 2020-10-14
          program call               : xtb acid_477.xyz --opt --chrg 0 --uhf 0 --gfn 2
          number of atoms            :                    62
          number of electrons        :                   234
          charge                     :                     0
          spin                       :                   0.0

   ID    Z sym.   atoms
    1    6 C      1, 2, 6-15, 19-22, 24-29, 33, 34, 38-43
    2    9 F      3-5, 16-18
    3    7 N      23, 30, 37, 44
    4    8 O      31, 32, 35, 36, 45, 46
    5    1 H      47-62

          :  Hamiltonian                  GFN2-xTB          :
 * total energy  :  -136.8092683 Eh     change       -0.1236089E-08 Eh
 * total energy  :  -136.8280340 Eh     change       -0.1876575E-01 Eh
 * total energy  :  -136.8343808 Eh     change       -0.6346786E-02 Eh
 * total energy  :  -136.8361388 Eh     change       -0.1757988E-02 Eh
 * total energy  :  -136.8369631 Eh     change       -0.8243662E-03 Eh
 * total energy  :  -136.8373144 Eh     change       -0.3512313E-03 Eh
 * total energy  :  -136.8378131 Eh     change       -0.4987062E-03 Eh
 * total energy  :  -136.8382322 Eh     change       -0.4191152E-03 Eh
 * total energy  :  -136.8389587 Eh     change       -0.7264687E-03 Eh
 * total energy  :  -136.8396319 Eh     change       -0.6732099E-03 Eh
 * total energy  :  -136.8565275 Eh     change       -0.6039049E-05 Eh
 * total energy  :  -136.8565290 Eh     change       -0.1494791E-05 Eh
 * total energy  :  -136.8565233 Eh     change        0.5770889E-05 Eh
 * total energy  :  -136.8565325 Eh     change       -0.9207183E-05 Eh
 * total energy  :  -136.8565326 Eh     change       -0.8678234E-07 Eh
 * total energy  :  -136.8565188 Eh     change        0.1375150E-04 Eh
 * total energy  :  -136.8565314 Eh     change       -0.1260795E-04 Eh
 * total energy  :  -136.8565337 Eh     change       -0.2259321E-05 Eh
 * total energy  :  -136.8565371 Eh     change       -0.3432712E-05 Eh
   *** GEOMETRY OPTIMIZATION CONVERGED AFTER 75 ITERATIONS ***

 final structure:
================
62
 xtb: 6.3.3 (4ae9cef)
C         1.46416064089234   -3.18401946970614   -0.08904623752835
C         1.58325220239534   -2.81386985359961    1.36680064750288
F         1.83918784306349   -1.51810654823897    1.61872616599376
F         2.55598893800455   -3.48922398103044    1.99005974733282
F         0.44721543557307   -3.10315823118852    2.04266955625368
C         1.96778003711910   -4.44115739784789   -0.41803654116194
C         1.90042178246064   -4.92257027009152   -1.70952775702596
C         1.32490859658649   -4.13970137731098   -2.69346404318828
C         0.81689871974872   -2.89845219662854   -2.36874060244541
C         0.86036788472814   -2.39068925576182   -1.07063059151499
C         0.25534547118983   -1.02436618665133   -0.87281445095387
C        -0.83552038143918   -0.84146605018804    0.19949780142214
C        -2.18852391848898   -1.46365430989661   -0.01428215839110
C        -3.18399926706509   -1.37613468845188    0.96907031712310
C        -3.00514229094536   -0.61992467717181    2.26175168621134
F        -3.18706057062879    0.70958343351060    2.12402590735752
F        -3.88647031803371   -1.00673303308025    3.19571508527314
F        -1.79733709613603   -0.76232640042652    2.83264524038506
C        -4.42770110675581   -1.95955677986467    0.76141482940210
C        -4.69148546039991   -2.66188615715417   -0.39947707091341
C        -3.70445857758419   -2.78288929054438   -1.35851863014945
C        -2.46996442839792   -2.18976759325474   -1.16368303343814
N        -0.85136230361991    0.61772751284804    0.32424321878493
C        -1.87950301499566    1.39798081289166   -0.14346692581571
C        -1.78266153455996    2.79685555755662    0.31181282547457
C        -2.32754680815831    3.94522068257546   -0.21711984552871
C        -1.96732892747144    4.98592515964884    0.65240180823092
C        -1.23878168249929    4.39462725518290    1.66426068234331
C        -0.64679483579678    4.98744255694701    2.79291539517655
N        -0.17473305002605    5.50180554647009    3.70164166870370
O        -1.13449106556041    3.07117341089397    1.45777223481679
O        -2.81225710945504    0.97688299687094   -0.78986018974221
C         0.53115611833634    1.04430544969419    0.32305838473884
C         0.75524218736443    2.37565191521767   -0.42131594012659
O         0.43046634184427    2.25371118242087   -1.70596418474246
O         1.21166069914162    3.37115789188823    0.06498966413985
N         1.21196709578276   -0.01444471379172   -0.42024781687618
C         2.48918317254380    0.04496446733777   -0.86593470632327
C         3.25680976079444    1.19037865034411   -0.28889474783122
C         3.67326226610473    1.43057853574905    0.99553078817267
C         4.37591094654671    2.64857214199630    0.95744743864299
C         4.33585449523545    3.06563418998568   -0.35331915946069
C         4.85750666698858    4.22758851579537   -0.94249291992957
N         5.28932664569312    5.18208889138071   -1.40868022405981
O         3.66400936380291    2.16913077049554   -1.11010800970790
O         2.96802528488539   -0.76066331929692   -1.63096907172222
H         2.42630208759916   -5.04316554681067    0.35088728678583
H         2.30317330820641   -5.89527786897193   -1.94260766736894
H         1.27656004964756   -4.48961479338178   -3.71291558758507
H         0.39124029010556   -2.28908066966253   -3.15220601403605
H        -0.15087681954814   -0.68950111343021   -1.83883638879050
H        -0.44351175527374   -1.20847717225256    1.15226654705850
H        -5.19147561943274   -1.86559390731469    1.51756184283547
H        -5.66148902669555   -3.10923945254311   -0.54774912505382
H        -3.89233599761596   -3.33421858413957   -2.26706212638587
H        -1.71709701415582   -2.29616067454037   -1.92563715593590
H        -2.90399845057284    4.01175791967020   -1.11674516824964
H        -2.20495440288588    6.02626003810663    0.56363901716240
H         0.92479087914016    1.12787305393376    1.34671243221961
H         0.62629268857311    3.06620226422680   -2.20172401057804
H         3.50252751131909    0.80529555666384    1.84753474447321
H         4.84206842276972    3.15871520393323    1.77502513853969

          :  Hamiltonian                  GFN2-xTB          :
         :: total energy            -136.856537116378 Eh    ::
         :: gradient norm              0.000974422404 Eh/a0 ::
         :: HOMO-LUMO gap              3.132637787486 eV    ::
         :: SCC energy              -138.473214129450 Eh    ::
         :: -> dispersion             -0.094001728400 Eh    ::
         :: repulsion energy           1.613729229199 Eh    ::

    * Orbital Energies and Occupations

         #    Occupation            Energy/Eh            Energy/eV
      -------------------------------------------------------------
         1        2.0000           -0.8947092             -24.3463
       ...           ...                  ...                  ...
       105        2.0000           -0.4622464             -12.5784
       106        2.0000           -0.4579616             -12.4618
       107        2.0000           -0.4548251             -12.3764
       108        2.0000           -0.4525031             -12.3132
       109        2.0000           -0.4486867             -12.2094
       110        2.0000           -0.4478600             -12.1869
       111        2.0000           -0.4438248             -12.0771
       112        2.0000           -0.4390335             -11.9467
       113        2.0000           -0.4356469             -11.8546
       114        2.0000           -0.4315391             -11.7428
       115        2.0000           -0.4282737             -11.6539
       116        2.0000           -0.4273388             -11.6285
       117        2.0000           -0.4233090             -11.5188 (HOMO)
       118                         -0.3081866              -8.3862 (LUMO)
       119                         -0.2960762              -8.0566
       120                         -0.2858928              -7.7795
       121                         -0.2807125              -7.6386
       122                         -0.2755352              -7.4977
       123                         -0.2704653              -7.3597
       124                         -0.2649097              -7.2086
       125                         -0.2597326              -7.0677
       126                         -0.2538572              -6.9078
       127                         -0.2377713              -6.4701
       128                         -0.2332936              -6.3482
       ...                                ...                  ...
       200                          1.1649986              31.7012
      -------------------------------------------------------------
                  HL-Gap            0.1151223 Eh            3.1326 eV

     #   Z          covCN         q      C6AA      Î±(0)
     1   6 C        2.974    -0.028    28.688     8.786
     2   6 C        3.338     0.486    17.260     6.575
     3   9 F        0.791    -0.215    11.395     3.987
     4   9 F        0.793    -0.198    11.210     3.955
     5   9 F        0.791    -0.215    11.388     3.986
     6   6 C        2.928    -0.021    28.519     8.758
     7   6 C        2.919    -0.020    28.501     8.755
     8   6 C        2.918    -0.016    28.400     8.739
     9   6 C        2.932    -0.021    28.532     8.760
    10   6 C        2.963     0.023    27.478     8.598
    11   6 C        3.830     0.043    19.824     6.335
    12   6 C        3.856     0.040    19.866     6.339
    13   6 C        2.966     0.027    27.393     8.585
    14   6 C        2.976    -0.024    28.607     8.773
    15   6 C        3.336     0.486    17.283     6.584
    16   9 F        0.791    -0.212    11.362     3.982
    17   9 F        0.792    -0.201    11.248     3.962
    18   9 F        0.791    -0.208    11.318     3.974
    19   6 C        2.926    -0.018    28.458     8.748
    20   6 C        2.919    -0.021    28.519     8.757
    21   6 C        2.919    -0.016    28.417     8.742
    22   6 C        2.925    -0.028    28.699     8.785
    23   7 N        2.772    -0.120    23.615     7.217
    24   6 C        2.754     0.275    22.345     7.741
    25   6 C        3.130     0.089    25.828     8.320
    26   6 C        3.017    -0.044    29.081     8.846
    27   6 C        3.015    -0.045    29.099     8.849
    28   6 C        3.125     0.141    24.770     8.150
    29   6 C        1.894     0.117    28.228     8.581
    30   7 N        0.911    -0.183    24.957     7.225
    31   8 O        1.728    -0.163    16.761     5.528
    32   8 O        0.858    -0.394    21.564     6.226
    33   6 C        3.775     0.087    19.173     6.239
    34   6 C        2.688     0.357    20.948     7.490
    35   8 O        1.660    -0.362    20.132     6.057
    36   8 O        0.856    -0.386    21.410     6.204
    37   7 N        2.780    -0.114    23.490     7.198
    38   6 C        2.753     0.272    22.410     7.752
    39   6 C        3.127     0.088    25.853     8.325
    40   6 C        3.016    -0.057    29.401     8.894
    41   6 C        3.018    -0.040    28.965     8.828
    42   6 C        3.121     0.129    25.019     8.192
    43   6 C        1.894     0.114    28.294     8.591
    44   7 N        0.911    -0.197    25.272     7.271
    45   8 O        1.728    -0.166    16.806     5.535
    46   8 O        0.859    -0.395    21.590     6.230
    47   1 H        0.926     0.070     2.083     2.257
    48   1 H        0.926     0.062     2.176     2.307
    49   1 H        0.926     0.062     2.179     2.308
    50   1 H        0.926     0.057     2.240     2.340
    51   1 H        0.923     0.067     2.116     2.275
    52   1 H        0.924     0.086     1.920     2.167
    53   1 H        0.926     0.071     2.080     2.255
    54   1 H        0.926     0.061     2.188     2.313
    55   1 H        0.926     0.058     2.219     2.329
    56   1 H        0.926     0.054     2.275     2.358
    57   1 H        0.926     0.070     2.083     2.257
    58   1 H        0.926     0.068     2.110     2.272
    59   1 H        0.923     0.088     1.896     2.153
    60   1 H        0.804     0.351     0.586     1.202
    61   1 H        0.926     0.063     2.164     2.300
    62   1 H        0.926     0.068     2.108     2.271

Wiberg/Mayer (AO) data.
largest (>0.10) Wiberg bond orders for each atom

     #   Z sym  total        # sym  WBO       # sym  WBO       # sym  WBO
 ---------------------------------------------------------------------------
     1   6 C    3.969 --     6 C    1.407    10 C    1.388     2 C    0.950
                             8 C    0.105
     2   6 C    3.819 --     4 F    0.958     1 C    0.950     3 F    0.940
                             5 F    0.932
     3   9 F    1.066 --     2 C    0.940
     4   9 F    1.082 --     2 C    0.958
     5   9 F    1.065 --     2 C    0.932
     6   6 C    3.987 --     7 C    1.447     1 C    1.407    47 H    0.965
                             9 C    0.108
     7   6 C    3.988 --     6 C    1.447     8 C    1.429    48 H    0.968
                            10 C    0.108
     8   6 C    3.989 --     9 C    1.452     7 C    1.429    49 H    0.968
                             1 C    0.105
     9   6 C    3.988 --     8 C    1.452    10 C    1.402    50 H    0.963
                             6 C    0.108
    10   6 C    3.986 --     9 C    1.402     1 C    1.388    11 C    0.998
                             7 C    0.108
    11   6 C    3.961 --    10 C    0.998    12 C    0.958    51 H    0.948
                            37 N    0.948
    12   6 C    3.963 --    13 C    1.000    11 C    0.958    23 N    0.952
                            52 H    0.937
    13   6 C    3.985 --    22 C    1.419    14 C    1.373    12 C    1.000
                            20 C    0.108
    14   6 C    3.970 --    19 C    1.423    13 C    1.373    15 C    0.950
                            21 C    0.107
    15   6 C    3.822 --    17 F    0.953    14 C    0.950    18 F    0.945
                            16 F    0.936
    16   9 F    1.069 --    15 C    0.936
    17   9 F    1.076 --    15 C    0.953
    18   9 F    1.073 --    15 C    0.945
    19   6 C    3.987 --    20 C    1.435    14 C    1.423    53 H    0.965
                            22 C    0.107
    20   6 C    3.989 --    21 C    1.441    19 C    1.435    54 H    0.968
                            13 C    0.108
    21   6 C    3.990 --    20 C    1.441    22 C    1.438    55 H    0.969
                            14 C    0.107
    22   6 C    3.989 --    21 C    1.438    13 C    1.419    56 H    0.962
                            19 C    0.107
    23   7 N    3.412 --    24 C    1.162    33 C    0.985    12 C    0.952
                            32 O    0.176
    24   6 C    3.953 --    32 O    1.698    23 N    1.162    25 C    1.004
    25   6 C    3.912 --    26 C    1.491    31 O    1.125    24 C    1.004
                            28 C    0.121
    26   6 C    3.982 --    25 C    1.491    27 C    1.360    57 H    0.970
    27   6 C    3.984 --    28 C    1.461    26 C    1.360    58 H    0.972
    28   6 C    3.911 --    27 C    1.461    31 O    1.117    29 C    1.102
                            25 C    0.121
    29   6 C    3.956 --    30 N    2.807    28 C    1.102
    30   7 N    3.005 --    29 C    2.807
    31   8 O    2.465 --    25 C    1.125    28 C    1.117
    32   8 O    2.041 --    24 C    1.698    23 N    0.176
    33   6 C    3.963 --    23 N    0.985    37 N    0.962    59 H    0.945
                            34 C    0.918
    34   6 C    3.923 --    36 O    1.774    35 O    1.155    33 C    0.918
    35   8 O    2.219 --    34 C    1.155    60 H    0.852    36 O    0.182
    36   8 O    2.063 --    34 C    1.774    35 O    0.182
    37   7 N    3.467 --    38 C    1.222    33 C    0.962    11 C    0.948
                            46 O    0.203
    38   6 C    3.955 --    46 O    1.700    37 N    1.222    39 C    0.950
    39   6 C    3.915 --    40 C    1.525    45 O    1.143    38 C    0.950
                            42 C    0.129
    40   6 C    3.982 --    39 C    1.525    41 C    1.338    61 H    0.971
    41   6 C    3.985 --    42 C    1.481    40 C    1.338    62 H    0.972
    42   6 C    3.906 --    41 C    1.481    43 C    1.108    45 O    1.092
                            39 C    0.129
    43   6 C    3.955 --    44 N    2.799    42 C    1.108
    44   7 N    3.007 --    43 C    2.799
    45   8 O    2.456 --    39 C    1.143    42 C    1.092
    46   8 O    2.043 --    38 C    1.700    37 N    0.203
    47   1 H    0.995 --     6 C    0.965
    48   1 H    0.995 --     7 C    0.968
    49   1 H    0.995 --     8 C    0.968
    50   1 H    0.996 --     9 C    0.963
    51   1 H    0.995 --    11 C    0.948
    52   1 H    0.991 --    12 C    0.937
    53   1 H    0.994 --    19 C    0.965
    54   1 H    0.995 --    20 C    0.968
    55   1 H    0.996 --    21 C    0.969
    56   1 H    0.997 --    22 C    0.962
    57   1 H    0.994 --    26 C    0.970
    58   1 H    0.995 --    27 C    0.972
    59   1 H    0.992 --    33 C    0.945
    60   1 H    0.877 --    35 O    0.852
    61   1 H    0.995 --    40 C    0.971
    62   1 H    0.995 --    41 C    0.972
 ---------------------------------------------------------------------------

molecular dipole:
                 x           y           z       tot (Debye)
 q only:       -1.402      -2.048      -2.147
   full:       -1.596      -2.287      -2.253       9.113

           -------------------------------------------------
          | TOTAL ENERGY             -136.856537116378 Eh   |
          | GRADIENT NORM               0.000974422404 Eh/Î± |
          | HOMO-LUMO GAP               3.132637787486 eV   |
           -------------------------------------------------

 * finished run on 2022/03/17 at 01:38:58.797
