   * xtb version 6.3.3 (4ae9cef) compiled by 'conda@95abc7406d43' on 2020-10-14
          program call               : xtb alk_1.xyz --opt --chrg 0 --uhf 0 --gfn 2
          number of atoms            :                    19
          number of electrons        :                    52
          charge                     :                     0
          spin                       :                   0.0

   ID    Z sym.   atoms
    1    6 C      1-7, 9, 10
    2    9 F      8
    3    1 H      11-19

          :  Hamiltonian                  GFN2-xTB          :
 * total energy  :   -28.5487499 Eh     change       -0.5789964E-09 Eh
 * total energy  :   -28.5508605 Eh     change       -0.2110565E-02 Eh
 * total energy  :   -28.5510529 Eh     change       -0.1924569E-03 Eh
 * total energy  :   -28.5511062 Eh     change       -0.5328808E-04 Eh
 * total energy  :   -28.5511392 Eh     change       -0.3296197E-04 Eh
 * total energy  :   -28.5511555 Eh     change       -0.1634422E-04 Eh
 * total energy  :   -28.5511637 Eh     change       -0.8203014E-05 Eh
 * total energy  :   -28.5511695 Eh     change       -0.5752443E-05 Eh
 * total energy  :   -28.5511718 Eh     change       -0.2361751E-05 Eh
   *** GEOMETRY OPTIMIZATION CONVERGED AFTER 9 ITERATIONS ***

 final structure:
================
19
 xtb: 6.3.3 (4ae9cef)
C        -2.98240849437795    1.16231642348187   -0.52329208952859
C        -2.15637787754359    0.48866527431887    0.25348003777004
C        -1.39972832718187   -0.73604122454339   -0.17157797052008
C         0.07904638742796   -0.49602770754899   -0.02267380470562
C         0.76695404037759    0.22510072409233   -0.99164677560562
C         2.11800454058552    0.48546630814333   -0.85839334000929
C         2.77626197923983    0.01729484975706    0.26403596647792
F         4.09736925724694    0.26520030298094    0.40246029794644
C         2.11968415901225   -0.69736248842290    1.24776159378394
C         0.76745204268810   -0.94761770648872    1.09577033975107
H        -3.50342598089283    2.03869299093734   -0.17786102823487
H        -3.18119932338099    0.85978910050945   -1.53860174020914
H        -1.96857660214309    0.81236702364314    1.26895428308844
H        -1.64028008371268   -0.97385018716144   -1.20913972920508
H        -1.69846201261441   -1.57764228990337    0.45869320401069
H         0.23730754962831    0.58658812407233   -1.86047059653186
H         2.66122916452052    1.04113410897228   -1.60634115195643
H         2.66326867456465   -1.04781988411709    2.11094333296129
H         0.24388290655573   -1.50625374272304    1.85789717071678

          :  Hamiltonian                  GFN2-xTB          :
         :: total energy             -28.551171829765 Eh    ::
         :: gradient norm              0.000367221572 Eh/a0 ::
         :: HOMO-LUMO gap              4.425828530260 eV    ::
         :: SCC energy               -29.014997255626 Eh    ::
         :: -> dispersion             -0.015059310369 Eh    ::
         :: repulsion energy           0.463787553576 Eh    ::

    * Orbital Energies and Occupations

         #    Occupation            Energy/Eh            Energy/eV
      -------------------------------------------------------------
         1        2.0000           -0.8110291             -22.0692
       ...           ...                  ...                  ...
        14        2.0000           -0.5083018             -13.8316
        15        2.0000           -0.4978939             -13.5484
        16        2.0000           -0.4953340             -13.4787
        17        2.0000           -0.4902994             -13.3417
        18        2.0000           -0.4791156             -13.0374
        19        2.0000           -0.4698527             -12.7853
        20        2.0000           -0.4628284             -12.5942
        21        2.0000           -0.4464717             -12.1491
        22        2.0000           -0.4399660             -11.9721
        23        2.0000           -0.4307868             -11.7223
        24        2.0000           -0.4189347             -11.3998
        25        2.0000           -0.4089824             -11.1290
        26        2.0000           -0.4001761             -10.8893 (HOMO)
        27                         -0.2375299              -6.4635 (LUMO)
        28                         -0.2331237              -6.3436
        29                         -0.2057754              -5.5994
        30                         -0.1046613              -2.8480
        31                          0.0555976               1.5129
        32                          0.0909889               2.4759
        33                          0.1178220               3.2061
        34                          0.1279406               3.4814
        35                          0.1405178               3.8237
        36                          0.1518041               4.1308
        37                          0.1656424               4.5074
       ...                                ...                  ...
        49                          0.6521346              17.7455
      -------------------------------------------------------------
                  HL-Gap            0.1626462 Eh            4.4258 eV

     #   Z          covCN         q      C6AA      Î±(0)
     1   6 C        2.837    -0.094    30.343     9.027
     2   6 C        2.890    -0.023    28.573     8.764
     3   6 C        3.812    -0.065    21.730     6.635
     4   6 C        2.973     0.014    27.690     8.631
     5   6 C        2.930    -0.037    28.914     8.818
     6   6 C        2.916    -0.050    29.233     8.866
     7   6 C        2.788     0.166    24.413     8.093
     8   9 F        0.787    -0.231    11.557     4.016
     9   6 C        2.916    -0.050    29.245     8.868
    10   6 C        2.929    -0.037    28.930     8.821
    11   1 H        0.926     0.038     2.477     2.461
    12   1 H        0.926     0.038     2.472     2.459
    13   1 H        0.925     0.033     2.540     2.492
    14   1 H        0.924     0.049     2.336     2.390
    15   1 H        0.924     0.049     2.335     2.390
    16   1 H        0.926     0.045     2.387     2.416
    17   1 H        0.926     0.056     2.250     2.345
    18   1 H        0.926     0.056     2.252     2.347
    19   1 H        0.926     0.043     2.414     2.429

Wiberg/Mayer (AO) data.
largest (>0.10) Wiberg bond orders for each atom

     #   Z sym  total        # sym  WBO       # sym  WBO       # sym  WBO
 ---------------------------------------------------------------------------
     1   6 C    3.990 --     2 C    1.979    11 H    0.976    12 H    0.975
     2   6 C    3.990 --     1 C    1.979     3 C    1.007    13 H    0.967
     3   6 C    3.997 --     2 C    1.007     4 C    0.998    14 H    0.968
                            15 H    0.959
     4   6 C    3.988 --    10 C    1.414     5 C    1.407     3 C    0.998
     5   6 C    3.991 --     6 C    1.449     4 C    1.407    16 H    0.969
                             9 C    0.111
     6   6 C    3.990 --     5 C    1.449     7 C    1.394    17 H    0.967
                            10 C    0.109
     7   6 C    3.884 --     9 C    1.399     6 C    1.394     8 F    0.954
     8   9 F    1.082 --     7 C    0.954
     9   6 C    3.989 --    10 C    1.442     7 C    1.399    18 H    0.967
                             5 C    0.111
    10   6 C    3.990 --     9 C    1.442     4 C    1.414    19 H    0.968
                             6 C    0.109
    11   1 H    0.998 --     1 C    0.976
    12   1 H    0.999 --     1 C    0.975
    13   1 H    0.999 --     2 C    0.967
    14   1 H    0.997 --     3 C    0.968
    15   1 H    0.997 --     3 C    0.959
    16   1 H    0.998 --     5 C    0.969
    17   1 H    0.997 --     6 C    0.967
    18   1 H    0.997 --     9 C    0.967
    19   1 H    0.998 --    10 C    0.968
 ---------------------------------------------------------------------------

molecular dipole:
                 x           y           z       tot (Debye)
 q only:       -0.942      -0.237      -0.105
   full:       -0.947      -0.238      -0.093       2.493

           -------------------------------------------------
          | TOTAL ENERGY              -28.551171829765 Eh   |
          | GRADIENT NORM               0.000367221572 Eh/Î± |
          | HOMO-LUMO GAP               4.425828530260 eV   |
           -------------------------------------------------

 * finished run on 2022/03/17 at 02:19:13.820
