   * xtb version 6.3.3 (4ae9cef) compiled by 'conda@95abc7406d43' on 2020-10-14
          program call               : xtb acid_450.xyz --opt --chrg 0 --uhf 0 --gfn 2
          number of atoms            :                    76
          number of electrons        :                   226
          charge                     :                     0
          spin                       :                   0.0

   ID    Z sym.   atoms
    1    6 C      1, 3-16, 18, 20-25, 27, 28, 30, 31, 35-38, 40-43
    2    8 O      2, 17, 26, 29, 32, 33, 39, 44
    3    7 N      19, 34
    4    1 H      45-76

          :  Hamiltonian                  GFN2-xTB          :
 * total energy  :  -127.4847379 Eh     change       -0.1801766E-08 Eh
 * total energy  :  -127.4986736 Eh     change       -0.1393573E-01 Eh
 * total energy  :  -127.5027629 Eh     change       -0.4089292E-02 Eh
 * total energy  :  -127.5045031 Eh     change       -0.1740130E-02 Eh
 * total energy  :  -127.5058848 Eh     change       -0.1381762E-02 Eh
 * total energy  :  -127.5069905 Eh     change       -0.1105630E-02 Eh
 * total energy  :  -127.5080583 Eh     change       -0.1067822E-02 Eh
 * total energy  :  -127.5092852 Eh     change       -0.1226961E-02 Eh
 * total energy  :  -127.5105699 Eh     change       -0.1284639E-02 Eh
 * total energy  :  -127.5117969 Eh     change       -0.1227054E-02 Eh
 * total energy  :  -127.5399367 Eh     change       -0.1881951E-04 Eh
 * total energy  :  -127.5399584 Eh     change       -0.2175879E-04 Eh
 * total energy  :  -127.5399807 Eh     change       -0.2222317E-04 Eh
 * total energy  :  -127.5399989 Eh     change       -0.1825316E-04 Eh
 * total energy  :  -127.5400105 Eh     change       -0.1161206E-04 Eh
 * total energy  :  -127.5400182 Eh     change       -0.7664327E-05 Eh
 * total energy  :  -127.5400242 Eh     change       -0.5964675E-05 Eh
 * total energy  :  -127.5400298 Eh     change       -0.5627502E-05 Eh
 * total energy  :  -127.5400344 Eh     change       -0.4640295E-05 Eh
   *** GEOMETRY OPTIMIZATION CONVERGED AFTER 113 ITERATIONS ***

 final structure:
================
76
 xtb: 6.3.3 (4ae9cef)
C        -2.19287144580701   -2.98493682261000    1.86511184640260
O        -1.48887152942892   -2.92550567253309    3.03320827516343
C        -1.82206129070382   -3.81787119324686    4.06617015273351
C        -3.19336913731577   -3.91034864693041    1.59740075136967
C        -3.83218952029945   -3.91022487913609    0.36849840587385
C        -3.47774792820076   -2.99954740526597   -0.60760134270905
C        -2.48083505150269   -2.07508390488853   -0.34736891197509
C        -1.84617183522892   -2.04954204631696    0.88157013478069
C        -0.74262614027381   -1.06745433989955    1.15942345895355
C         0.56143747905624   -1.47168987342117    0.44711012606877
C         1.47131923804625   -2.22080175900235    1.38001643486406
C         2.35748561100039   -1.57270517844839    2.21922330190554
C         3.15016516329638   -2.28588531468840    3.10280530764333
C         3.04218170100974   -3.66152770444137    3.15299082694934
C         2.14793834270558   -4.32795244308806    2.33141734141441
C         1.35348126341950   -3.61704473101518    1.44136789320346
O         0.43553964296804   -4.17670275861455    0.60526769827977
C         0.24057154897662   -5.56747673714379    0.64589654460816
N         1.11394399584314   -0.20524892369638   -0.01230730185024
C         2.28497107726450   -0.17325664722286   -0.71315088503310
C         2.65298002673651    1.18540622616954   -1.22350435295049
C         2.88259841498505    2.24263481710257   -0.35228836211837
C         3.21946214053529    3.48581495304523   -0.86549252403274
C         3.31732134680594    3.67538595842041   -2.22821081074338
C         3.10532424669624    2.61105004677923   -3.10906567792377
O         3.23366810101708    2.89696414473334   -4.42604260162700
C         3.00223426241273    1.86968419864304   -5.36362775044897
C         2.78261496103366    1.35908293832001   -2.59519450588069
O         2.97032995151038   -1.15594211982901   -0.88252026067582
C         0.10293915789210    0.82580598590968   -0.07193508463940
C        -0.28184818046650    1.11629192203679   -1.54912486496992
O        -0.07528050433021    2.36091098339992   -1.98807163842353
O        -0.71795095139716    0.26420755518230   -2.26471042182733
N        -1.01780237613103    0.26662421914411    0.64221688178621
C        -2.19789008585176    0.90004525871050    0.87037199862701
C        -2.32481581996214    2.21389948167527    0.15745689124933
C        -1.62347391181700    3.33253980031486    0.57515090439209
C        -1.73647171909680    4.53758343687697   -0.12049586561474
O        -0.96581713734704    5.55867267449352    0.34807874392531
C        -1.05915777581821    6.81575709673281   -0.28052025762484
C        -2.57804386429518    4.61057780759683   -1.22529316294211
C        -3.29620861333968    3.49298662181301   -1.61751462652719
C        -3.17725030814166    2.29606896772080   -0.93827716571765
O        -3.07360908314500    0.42688268823699    1.55866691254845
H        -2.85517474046089   -3.68049949692432    4.40068078586842
H        -1.14313052154376   -3.58401302043780    4.88517751745877
H        -1.67349366195368   -4.86022865875402    3.76402959256208
H        -3.48635750361173   -4.63653471049895    2.33942812195044
H        -4.61065947163637   -4.63498501507901    0.17943557360897
H        -3.97184613717676   -3.00713357169669   -1.56695280634333
H        -2.19040395860020   -1.36353373355366   -1.10678491862995
H        -0.58367748433240   -1.00799907244147    2.24332232477875
H         0.33691208279719   -2.10889480611914   -0.41742482568478
H         2.43479533236730   -0.49650807237166    2.17466309815176
H         3.84504231437804   -1.76872944501827    3.74648321732672
H         3.65501833865611   -4.22989308343797    3.83700131058270
H         2.08115645951219   -5.40285132821091    2.39189045152887
H        -0.07417238725246   -5.90059745262011    1.64042005229805
H         1.14280809793645   -6.11187828318353    0.34890625508390
H        -0.55667655380140   -5.76978439013793   -0.06793561418814
H         2.82594577704514    2.08947059004971    0.71538049463241
H         3.40595950615670    4.31154664735086   -0.19517451888491
H         3.57150979139570    4.63813357142221   -2.64190957330412
H         3.71477898542297    1.04848138501862   -5.24129706854926
H         1.98147337345288    1.48349664146457   -5.28683446925158
H         3.14436735494615    2.32807394834339   -6.34092706866022
H         2.61721680573234    0.50829908789600   -3.23593804313019
H         0.46220904417278    1.75016206605487    0.41159094626691
H         0.26579023755848    2.96679756044719   -1.31423040756306
H        -0.99275206423093    3.30480497918116    1.45140885292079
H        -0.74333572801408    6.76483573641491   -1.32730996242747
H        -2.07493362662571    7.21772402900985   -0.22398815814907
H        -0.38276521983785    7.46871238550546    0.26827562833169
H        -2.68609163173356    5.52823704594635   -1.78059257811602
H        -3.95369151239886    3.56250487883338   -2.47045529757776
H        -3.73196576165033    1.42465690589366   -1.24744036941425

          :  Hamiltonian                  GFN2-xTB          :
         :: total energy            -127.540034424582 Eh    ::
         :: gradient norm              0.000252318791 Eh/a0 ::
         :: HOMO-LUMO gap              2.811316852879 eV    ::
         :: SCC energy              -129.292394838780 Eh    ::
         :: -> dispersion             -0.106181577699 Eh    ::
         :: repulsion energy           1.748928443100 Eh    ::

    * Orbital Energies and Occupations

         #    Occupation            Energy/Eh            Energy/eV
      -------------------------------------------------------------
         1        2.0000           -0.7689974             -20.9255
       ...           ...                  ...                  ...
       101        2.0000           -0.4214366             -11.4679
       102        2.0000           -0.4210838             -11.4583
       103        2.0000           -0.4177085             -11.3664
       104        2.0000           -0.4043533             -11.0030
       105        2.0000           -0.4027520             -10.9594
       106        2.0000           -0.4006917             -10.9034
       107        2.0000           -0.3967370             -10.7958
       108        2.0000           -0.3945816             -10.7371
       109        2.0000           -0.3928494             -10.6900
       110        2.0000           -0.3906102             -10.6290
       111        2.0000           -0.3882281             -10.5642
       112        2.0000           -0.3780968             -10.2885
       113        2.0000           -0.3694163             -10.0523 (HOMO)
       114                         -0.2661023              -7.2410 (LUMO)
       115                         -0.2506377              -6.8202
       116                         -0.2440673              -6.6414
       117                         -0.2319784              -6.3125
       118                         -0.2312620              -6.2930
       119                         -0.2246831              -6.1139
       120                         -0.2174226              -5.9164
       121                         -0.2114844              -5.7548
       122                         -0.2093336              -5.6963
       123                         -0.2066002              -5.6219
       124                         -0.2054452              -5.5904
       ...                                ...                  ...
       208                          0.6748786              18.3644
      -------------------------------------------------------------
                  HL-Gap            0.1033140 Eh            2.8113 eV

     #   Z          covCN         q      C6AA      Î±(0)
     1   6 C        2.868     0.146    24.815     8.166
     2   8 O        1.705    -0.275    18.560     5.817
     3   6 C        3.644     0.041    20.217     6.463
     4   6 C        2.918    -0.065    29.609     8.923
     5   6 C        2.921    -0.032    28.796     8.800
     6   6 C        2.918    -0.038    28.951     8.823
     7   6 C        2.923    -0.030    28.754     8.794
     8   6 C        2.975    -0.004    28.119     8.698
     9   6 C        3.824     0.048    19.755     6.325
    10   6 C        3.828     0.048    19.742     6.322
    11   6 C        2.974    -0.005    28.154     8.703
    12   6 C        2.924    -0.028    28.690     8.784
    13   6 C        2.918    -0.040    28.988     8.829
    14   6 C        2.921    -0.031    28.785     8.798
    15   6 C        2.918    -0.064    29.596     8.921
    16   6 C        2.870     0.146    24.833     8.169
    17   8 O        1.705    -0.271    18.489     5.806
    18   6 C        3.644     0.041    20.230     6.465
    19   7 N        2.763    -0.118    23.559     7.209
    20   6 C        2.764     0.271    22.423     7.755
    21   6 C        2.977    -0.025    28.624     8.776
    22   6 C        2.920    -0.053    29.313     8.878
    23   6 C        2.918    -0.034    28.853     8.808
    24   6 C        2.920    -0.057    29.405     8.892
    25   6 C        2.866     0.151    24.719     8.150
    26   8 O        1.706    -0.259    18.284     5.773
    27   6 C        3.645     0.032    20.366     6.486
    28   6 C        2.922    -0.059    29.458     8.901
    29   8 O        0.858    -0.405    21.783     6.258
    30   6 C        3.752     0.078    19.331     6.270
    31   6 C        2.686     0.345    21.137     7.524
    32   8 O        1.659    -0.361    20.107     6.053
    33   8 O        0.856    -0.344    20.597     6.085
    34   7 N        2.765    -0.112    23.435     7.190
    35   6 C        2.762     0.271    22.418     7.754
    36   6 C        2.977    -0.021    28.531     8.762
    37   6 C        2.922    -0.067    29.663     8.931
    38   6 C        2.865     0.140    24.936     8.185
    39   8 O        1.705    -0.273    18.527     5.812
    40   6 C        3.644     0.034    20.333     6.482
    41   6 C        2.917    -0.064    29.597     8.921
    42   6 C        2.921    -0.023    28.590     8.768
    43   6 C        2.922    -0.032    28.805     8.801
    44   8 O        0.859    -0.408    21.832     6.265
    45   1 H        0.924     0.045     2.388     2.416
    46   1 H        0.925     0.060     2.198     2.318
    47   1 H        0.924     0.035     2.511     2.478
    48   1 H        0.926     0.036     2.497     2.471
    49   1 H        0.926     0.036     2.507     2.476
    50   1 H        0.926     0.038     2.470     2.458
    51   1 H        0.926     0.052     2.291     2.367
    52   1 H        0.924     0.071     2.071     2.251
    53   1 H        0.924     0.078     2.004     2.214
    54   1 H        0.926     0.033     2.537     2.491
    55   1 H        0.926     0.037     2.485     2.465
    56   1 H        0.926     0.037     2.483     2.464
    57   1 H        0.926     0.039     2.468     2.457
    58   1 H        0.924     0.037     2.488     2.467
    59   1 H        0.924     0.044     2.390     2.418
    60   1 H        0.925     0.063     2.167     2.302
    61   1 H        0.926     0.032     2.565     2.504
    62   1 H        0.926     0.043     2.404     2.425
    63   1 H        0.926     0.054     2.266     2.354
    64   1 H        0.924     0.047     2.355     2.400
    65   1 H        0.924     0.050     2.324     2.384
    66   1 H        0.925     0.066     2.130     2.282
    67   1 H        0.926     0.053     2.283     2.363
    68   1 H        0.923     0.042     2.418     2.432
    69   1 H        0.805     0.329     0.640     1.256
    70   1 H        0.926     0.044     2.402     2.424
    71   1 H        0.924     0.043     2.415     2.430
    72   1 H        0.924     0.046     2.374     2.410
    73   1 H        0.925     0.066     2.135     2.285
    74   1 H        0.926     0.045     2.387     2.416
    75   1 H        0.926     0.049     2.328     2.386
    76   1 H        0.926     0.052     2.297     2.370

Wiberg/Mayer (AO) data.
largest (>0.10) Wiberg bond orders for each atom

     #   Z sym  total        # sym  WBO       # sym  WBO       # sym  WBO
 ---------------------------------------------------------------------------
     1   6 C    3.933 --     4 C    1.383     8 C    1.326     2 O    1.055
     2   8 O    2.227 --     1 C    1.055     3 C    0.985
     3   6 C    3.947 --     2 O    0.985    46 H    0.980    45 H    0.976
                            47 H    0.976
     4   6 C    3.987 --     5 C    1.433     1 C    1.383    48 H    0.966
                             7 C    0.103
     5   6 C    3.990 --     6 C    1.445     4 C    1.433    49 H    0.971
                             8 C    0.107
     6   6 C    3.991 --     5 C    1.445     7 C    1.425    50 H    0.971
     7   6 C    3.989 --     8 C    1.438     6 C    1.425    51 H    0.964
                             4 C    0.103
     8   6 C    3.983 --     7 C    1.438     1 C    1.326     9 C    0.993
                             5 C    0.107
     9   6 C    3.959 --     8 C    0.993    34 N    0.951    10 C    0.950
                            52 H    0.949
    10   6 C    3.959 --    11 C    0.993    19 N    0.955     9 C    0.950
                            53 H    0.947
    11   6 C    3.983 --    12 C    1.443    16 C    1.319    10 C    0.993
                            14 C    0.106
    12   6 C    3.990 --    11 C    1.443    13 C    1.421    54 H    0.968
                            15 C    0.101
    13   6 C    3.991 --    14 C    1.447    12 C    1.421    55 H    0.971
    14   6 C    3.991 --    13 C    1.447    15 C    1.432    56 H    0.971
                            11 C    0.106
    15   6 C    3.987 --    14 C    1.432    16 C    1.384    57 H    0.966
                            12 C    0.101
    16   6 C    3.934 --    15 C    1.384    11 C    1.319    17 O    1.062
    17   8 O    2.235 --    16 C    1.062    18 C    0.984
    18   6 C    3.945 --    17 O    0.984    60 H    0.979    59 H    0.976
                            58 H    0.976
    19   7 N    3.446 --    20 C    1.189    30 C    0.986    10 C    0.955
                            29 O    0.187
    20   6 C    3.947 --    29 O    1.712    19 N    1.189    21 C    0.962
    21   6 C    3.987 --    28 C    1.408    22 C    1.403    20 C    0.962
                            24 C    0.105
    22   6 C    3.989 --    23 C    1.421    21 C    1.403    61 H    0.969
    23   6 C    3.991 --    24 C    1.468    22 C    1.421    62 H    0.969
    24   6 C    3.987 --    23 C    1.468    25 C    1.342    63 H    0.968
                            21 C    0.105
    25   6 C    3.939 --    28 C    1.369    24 C    1.342    26 O    1.083
    26   8 O    2.252 --    25 C    1.083    27 C    0.979
    27   6 C    3.940 --    66 H    0.980    26 O    0.979    64 H    0.976
                            65 H    0.976
    28   6 C    3.987 --    21 C    1.408    25 C    1.369    67 H    0.964
    29   8 O    2.037 --    20 C    1.712    19 N    0.187
    30   6 C    3.973 --    34 N    0.989    19 N    0.986    68 H    0.940
                            31 C    0.899
    31   6 C    3.920 --    33 O    1.804    32 O    1.140    30 C    0.899
    32   8 O    2.221 --    31 C    1.140    69 H    0.859    33 O    0.169
    33   8 O    2.093 --    31 C    1.804    32 O    0.169
    34   7 N    3.465 --    35 C    1.207    30 C    0.989     9 C    0.951
                            44 O    0.195
    35   6 C    3.948 --    44 O    1.704    34 N    1.207    36 C    0.953
    36   6 C    3.987 --    37 C    1.429    43 C    1.388    35 C    0.953
                            41 C    0.102
    37   6 C    3.985 --    36 C    1.429    38 C    1.351    70 H    0.966
                            42 C    0.108
    38   6 C    3.937 --    41 C    1.372    37 C    1.351    39 O    1.063
    39   8 O    2.229 --    38 C    1.063    40 C    0.982
    40   6 C    3.943 --    39 O    0.982    73 H    0.979    72 H    0.977
                            71 H    0.977
    41   6 C    3.988 --    42 C    1.438    38 C    1.372    74 H    0.966
                            36 C    0.102
    42   6 C    3.991 --    43 C    1.446    41 C    1.438    75 H    0.969
                            37 C    0.108
    43   6 C    3.990 --    42 C    1.446    36 C    1.388    76 H    0.969
    44   8 O    2.036 --    35 C    1.704    34 N    0.195
    45   1 H    0.998 --     3 C    0.976
    46   1 H    0.996 --     3 C    0.980
    47   1 H    0.999 --     3 C    0.976
    48   1 H    0.998 --     4 C    0.966
    49   1 H    0.998 --     5 C    0.971
    50   1 H    0.998 --     6 C    0.971
    51   1 H    0.997 --     7 C    0.964
    52   1 H    0.994 --     9 C    0.949
    53   1 H    0.994 --    10 C    0.947
    54   1 H    0.998 --    12 C    0.968
    55   1 H    0.998 --    13 C    0.971
    56   1 H    0.998 --    14 C    0.971
    57   1 H    0.998 --    15 C    0.966
    58   1 H    0.999 --    18 C    0.976
    59   1 H    0.998 --    18 C    0.976
    60   1 H    0.996 --    18 C    0.979
    61   1 H    0.999 --    22 C    0.969
    62   1 H    0.997 --    23 C    0.969
    63   1 H    0.997 --    24 C    0.968
    64   1 H    0.998 --    27 C    0.976
    65   1 H    0.998 --    27 C    0.976
    66   1 H    0.995 --    27 C    0.980
    67   1 H    0.997 --    28 C    0.964
    68   1 H    0.998 --    30 C    0.940
    69   1 H    0.892 --    32 O    0.859
    70   1 H    0.998 --    37 C    0.966
    71   1 H    0.998 --    40 C    0.977
    72   1 H    0.998 --    40 C    0.977
    73   1 H    0.995 --    40 C    0.979
    74   1 H    0.998 --    41 C    0.966
    75   1 H    0.997 --    42 C    0.969
    76   1 H    0.997 --    43 C    0.969
 ---------------------------------------------------------------------------

molecular dipole:
                 x           y           z       tot (Debye)
 q only:        0.118       0.645       0.139
   full:        0.157       0.896       0.257       2.402

           -------------------------------------------------
          | TOTAL ENERGY             -127.540034424582 Eh   |
          | GRADIENT NORM               0.000252318791 Eh/Î± |
          | HOMO-LUMO GAP               2.811316852879 eV   |
           -------------------------------------------------

 * finished run on 2022/03/17 at 01:22:48.232
