   * xtb version 6.3.3 (4ae9cef) compiled by 'conda@95abc7406d43' on 2020-10-14
          program call               : xtb acid_47.xyz --opt --chrg 0 --uhf 0 --gfn 2
          number of atoms            :                    66
          number of electrons        :                   218
          charge                     :                     0
          spin                       :                   0.0

   ID    Z sym.   atoms
    1    6 C      1-22, 24-28, 32, 33, 37-41
    2    7 N      23, 36
    3   17 Cl     29, 42
    4    8 O      30, 31, 34, 35, 43, 44
    5    1 H      45-66

          :  Hamiltonian                  GFN2-xTB          :
 * total energy  :  -123.3872398 Eh     change       -0.6318004E-08 Eh
 * total energy  :  -123.4052708 Eh     change       -0.1803100E-01 Eh
 * total energy  :  -123.4111368 Eh     change       -0.5865993E-02 Eh
 * total energy  :  -123.4124571 Eh     change       -0.1320308E-02 Eh
 * total energy  :  -123.4130751 Eh     change       -0.6180365E-03 Eh
 * total energy  :  -123.4133697 Eh     change       -0.2945635E-03 Eh
 * total energy  :  -123.4137335 Eh     change       -0.3638080E-03 Eh
 * total energy  :  -123.4141504 Eh     change       -0.4168852E-03 Eh
 * total energy  :  -123.4146884 Eh     change       -0.5379871E-03 Eh
 * total energy  :  -123.4153943 Eh     change       -0.7059860E-03 Eh
 * total energy  :  -123.4280467 Eh     change       -0.1465108E-04 Eh
 * total energy  :  -123.4280604 Eh     change       -0.1368451E-04 Eh
 * total energy  :  -123.4280662 Eh     change       -0.5795272E-05 Eh
 * total energy  :  -123.4280804 Eh     change       -0.1415079E-04 Eh
 * total energy  :  -123.4280869 Eh     change       -0.6562566E-05 Eh
 * total energy  :  -123.4280937 Eh     change       -0.6777615E-05 Eh
 * total energy  :  -123.4281024 Eh     change       -0.8701504E-05 Eh
 * total energy  :  -123.4281098 Eh     change       -0.7394940E-05 Eh
 * total energy  :  -123.4281142 Eh     change       -0.4430765E-05 Eh
   *** GEOMETRY OPTIMIZATION CONVERGED AFTER 100 ITERATIONS ***

 final structure:
================
66
 xtb: 6.3.3 (4ae9cef)
C        -2.61332792471432   -2.21163858254909    0.86449228223974
C        -3.91303836406163   -2.51662892435181    0.58567627844484
C        -4.39902702612111   -2.46024608155484   -0.73840918111163
C        -5.73651112167128   -2.76411520006693   -1.06479584082704
C        -6.17117891857331   -2.69189307352503   -2.35884591652716
C        -5.28991051458782   -2.31117829412376   -3.38323842664073
C        -3.98666831016727   -2.01298065431794   -3.09893650665668
C        -3.50725478210187   -2.08114612271333   -1.77461964404495
C        -2.16798272003784   -1.77217223019956   -1.45625074747671
C        -1.72223950446458   -1.83210859937920   -0.16304183170318
C        -0.32475744844462   -1.46656150597691    0.26739153360527
C         0.65384006467052   -1.03398743341072   -0.83801954237230
C         2.05550489172639   -1.11330926734262   -0.27749068848533
C         2.68619159163056   -0.02105389659478    0.25546112142466
C         3.92954941360992   -0.14107527762617    0.90771930530310
C         4.57102096507846    0.96748249772212    1.49675501761271
C         5.76064607583967    0.81637480933629    2.15197377417928
C         6.36546511825736   -0.44714516519830    2.23999497620456
C         5.77009704471567   -1.53963584310430    1.67356420548803
C         4.53874452747601   -1.41823777134727    0.99835212767840
C         3.88441073725947   -2.52284066534627    0.41304583025928
C         2.67498952717566   -2.37650708324630   -0.20119980180357
N         0.24436674038137    0.34512979142414   -1.07073769510786
C         0.31659544424674    0.89673636430391   -2.31029290641198
C        -0.03961825436188    2.31755155942895   -2.44398368228679
C        -0.21708059407700    3.02548815714262   -3.60349805741554
C        -0.53470337392870    4.34940415201628   -3.22975138280134
C        -0.52057263372119    4.34910123949335   -1.86627375048211
Cl       -0.80629897485593    5.58953947065113   -0.74218543404750
O        -0.22107009828174    3.13742121555806   -1.37298011873166
O         0.70111623756305    0.25715829480886   -3.27123870918707
C        -0.46668213404300    0.84129199176348    0.09129921157053
C        -1.94617615084110    1.12449407136392   -0.24250689314149
O        -2.65683040945405    1.27954194667650    0.87031041162867
O        -2.39841684074882    1.22668214376704   -1.34586877836749
N        -0.37270377889586   -0.22798943639832    1.05168508375316
C         0.30430981272404   -0.18925594373668    2.24242709268967
C         0.57207362902465    1.15421909949203    2.80219387181659
C        -0.14330936881635    2.32425337895627    2.85383789921709
C         0.64072434212143    3.24282828337908    3.58660927892496
C         1.77420005598294    2.55808168998046    3.92490418241249
Cl        3.15724257260626    3.04836979392305    4.77405055461091
O         1.74018505877672    1.30258147209733    3.47056284931511
O         0.62562639216772   -1.20139802536330    2.82516635241301
H        -2.24184967093086   -2.25094245642621    1.87790480640509
H        -4.58913410808486   -2.80789158965938    1.37673473493405
H        -6.41075503743276   -3.05596110107744   -0.27196328182012
H        -7.19713957281551   -2.92613887022519   -2.60265487229137
H        -5.65258112995111   -2.25651714478108   -4.39906907069916
H        -3.30350920827047   -1.71583973397408   -3.88095679536626
H        -1.52067913407608   -1.47186670009824   -2.26600476547661
H         0.09449064242054   -2.25042979177237    0.90490628410069
H         0.57304869525187   -1.61070036944409   -1.76086657060067
H         2.24590290574044    0.96390980328190    0.18488221667230
H         4.10266838817790    1.93954166952825    1.42467649319154
H         6.24414998557147    1.66816981689084    2.60774235705796
H         7.30640634933006   -0.54761637044630    2.76098631664264
H         6.23186074042660   -2.51444791381057    1.74000855546815
H         4.35331450354694   -3.49450686398254    0.47116792313529
H         2.17207063132938   -3.22980509530576   -0.63291120902891
H        -0.13086975625078    2.63138257841675   -4.59436537989476
H        -0.74434394500418    5.17997827572923   -3.87003846369868
H        -0.03265211776548    1.76628157561834    0.49087430340404
H        -3.59400440960185    1.43073333206669    0.66236059045655
H        -1.12223768597900    2.49475741861083    2.45466997514430
H         0.40430093831613    4.25728418506643    3.82860814708979

          :  Hamiltonian                  GFN2-xTB          :
         :: total energy            -123.428114229073 Eh    ::
         :: gradient norm              0.000511106233 Eh/a0 ::
         :: HOMO-LUMO gap              2.848261303390 eV    ::
         :: SCC energy              -125.132821657456 Eh    ::
         :: -> dispersion             -0.101992676838 Eh    ::
         :: repulsion energy           1.701640809819 Eh    ::

    * Orbital Energies and Occupations

         #    Occupation            Energy/Eh            Energy/eV
      -------------------------------------------------------------
         1        2.0000           -1.0835140             -29.4839
       ...           ...                  ...                  ...
        97        2.0000           -0.4262907             -11.6000
        98        2.0000           -0.4243532             -11.5472
        99        2.0000           -0.4212952             -11.4640
       100        2.0000           -0.4180419             -11.3755
       101        2.0000           -0.4154667             -11.3054
       102        2.0000           -0.4129189             -11.2361
       103        2.0000           -0.4121664             -11.2156
       104        2.0000           -0.4082707             -11.1096
       105        2.0000           -0.4056068             -11.0371
       106        2.0000           -0.4034634             -10.9788
       107        2.0000           -0.3990179             -10.8578
       108        2.0000           -0.3867855             -10.5250
       109        2.0000           -0.3810924             -10.3701 (HOMO)
       110                         -0.2764208              -7.5218 (LUMO)
       111                         -0.2741355              -7.4596
       112                         -0.2726193              -7.4183
       113                         -0.2655454              -7.2259
       114                         -0.2616627              -7.1202
       115                         -0.2374167              -6.4604
       116                         -0.2315288              -6.3002
       117                         -0.2178187              -5.9271
       118                         -0.2115874              -5.7576
       119                         -0.1967213              -5.3531
       120                         -0.1908837              -5.1942
       ...                                ...                  ...
       208                          0.6948767              18.9086
      -------------------------------------------------------------
                  HL-Gap            0.1046717 Eh            2.8483 eV

     #   Z          covCN         q      C6AA      Î±(0)
     1   6 C        2.921    -0.038    28.940     8.822
     2   6 C        2.916    -0.037    28.914     8.818
     3   6 C        2.987     0.011    27.753     8.642
     4   6 C        2.918    -0.036    28.887     8.814
     5   6 C        2.916    -0.028    28.711     8.787
     6   6 C        2.916    -0.028    28.702     8.785
     7   6 C        2.919    -0.031    28.774     8.796
     8   6 C        2.988     0.016    27.646     8.625
     9   6 C        2.920    -0.040    28.999     8.831
    10   6 C        2.969    -0.006    28.168     8.706
    11   6 C        3.868     0.035    19.950     6.351
    12   6 C        3.846     0.036    19.930     6.350
    13   6 C        2.973     0.002    27.982     8.677
    14   6 C        2.923    -0.038    28.955     8.824
    15   6 C        2.988     0.017    27.618     8.621
    16   6 C        2.919    -0.030    28.756     8.794
    17   6 C        2.916    -0.026    28.659     8.779
    18   6 C        2.916    -0.028    28.697     8.784
    19   6 C        2.918    -0.032    28.796     8.800
    20   6 C        2.988     0.016    27.637     8.624
    21   6 C        2.917    -0.030    28.741     8.791
    22   6 C        2.920    -0.035    28.872     8.811
    23   7 N        2.769    -0.108    23.354     7.177
    24   6 C        2.756     0.270    22.434     7.756
    25   6 C        3.109     0.089    25.892     8.337
    26   6 C        3.035    -0.041    28.973     8.829
    27   6 C        3.015    -0.070    29.720     8.943
    28   6 C        3.047     0.202    23.682     7.981
    29  17 Cl       0.920    -0.123   102.972    15.524
    30   8 O        1.741    -0.200    17.327     5.621
    31   8 O        0.860    -0.421    22.105     6.304
    32   6 C        3.787     0.084    19.195     6.240
    33   6 C        2.688     0.358    20.922     7.486
    34   8 O        1.660    -0.361    20.107     6.053
    35   8 O        0.856    -0.381    21.299     6.188
    36   7 N        2.778    -0.119    23.587     7.213
    37   6 C        2.758     0.273    22.383     7.747
    38   6 C        3.115     0.078    26.108     8.370
    39   6 C        3.029    -0.063    29.531     8.914
    40   6 C        3.018    -0.075    29.842     8.961
    41   6 C        3.049     0.203    23.667     7.979
    42  17 Cl       0.921    -0.111   102.585    15.495
    43   8 O        1.743    -0.152    16.587     5.499
    44   8 O        0.859    -0.396    21.594     6.230
    45   1 H        0.926     0.042     2.416     2.431
    46   1 H        0.926     0.037     2.483     2.464
    47   1 H        0.926     0.033     2.544     2.494
    48   1 H        0.926     0.033     2.540     2.492
    49   1 H        0.926     0.035     2.515     2.480
    50   1 H        0.926     0.042     2.425     2.435
    51   1 H        0.926     0.048     2.347     2.396
    52   1 H        0.924     0.090     1.881     2.145
    53   1 H        0.924     0.085     1.930     2.172
    54   1 H        0.926     0.019     2.749     2.593
    55   1 H        0.925     0.026     2.638     2.540
    56   1 H        0.926     0.033     2.544     2.494
    57   1 H        0.926     0.033     2.541     2.493
    58   1 H        0.926     0.035     2.516     2.481
    59   1 H        0.926     0.041     2.442     2.444
    60   1 H        0.926     0.035     2.520     2.482
    61   1 H        0.927     0.084     1.938     2.177
    62   1 H        0.927     0.073     2.056     2.242
    63   1 H        0.924     0.084     1.943     2.180
    64   1 H        0.804     0.346     0.597     1.214
    65   1 H        0.926     0.066     2.126     2.280
    66   1 H        0.927     0.071     2.077     2.253

Wiberg/Mayer (AO) data.
largest (>0.10) Wiberg bond orders for each atom

     #   Z sym  total        # sym  WBO       # sym  WBO       # sym  WBO
 ---------------------------------------------------------------------------
     1   6 C    3.990 --     2 C    1.571    10 C    1.284    45 H    0.968
     2   6 C    3.991 --     1 C    1.571     3 C    1.272    46 H    0.967
                             9 C    0.112
     3   6 C    3.990 --     4 C    1.283     2 C    1.272     8 C    1.254
     4   6 C    3.992 --     5 C    1.555     3 C    1.283    47 H    0.968
                             7 C    0.118
     5   6 C    3.990 --     4 C    1.555     6 C    1.322    48 H    0.971
     6   6 C    3.992 --     7 C    1.556     5 C    1.322    49 H    0.971
     7   6 C    3.989 --     6 C    1.556     8 C    1.280    50 H    0.968
                             4 C    0.118
     8   6 C    3.990 --     7 C    1.280     9 C    1.276     3 C    1.254
     9   6 C    3.989 --    10 C    1.534     8 C    1.276    51 H    0.961
                             2 C    0.112
    10   6 C    3.983 --     9 C    1.534     1 C    1.284    11 C    0.987
    11   6 C    3.950 --    10 C    0.987    12 C    0.957    52 H    0.945
                            36 N    0.944
    12   6 C    3.958 --    13 C    0.985    23 N    0.961    11 C    0.957
                            53 H    0.945
    13   6 C    3.983 --    14 C    1.530    22 C    1.288    12 C    0.985
    14   6 C    3.991 --    13 C    1.530    15 C    1.277    54 H    0.964
                            21 C    0.112
    15   6 C    3.990 --    16 C    1.281    14 C    1.277    20 C    1.253
    16   6 C    3.990 --    17 C    1.556    15 C    1.281    55 H    0.969
                            19 C    0.118
    17   6 C    3.992 --    16 C    1.556    18 C    1.322    56 H    0.971
    18   6 C    3.990 --    19 C    1.555    17 C    1.322    57 H    0.971
    19   6 C    3.992 --    18 C    1.555    20 C    1.283    58 H    0.968
                            16 C    0.118
    20   6 C    3.990 --    19 C    1.283    21 C    1.273    15 C    1.253
    21   6 C    3.991 --    22 C    1.569    20 C    1.273    59 H    0.967
                            14 C    0.112
    22   6 C    3.991 --    21 C    1.569    13 C    1.288    60 H    0.969
    23   7 N    3.465 --    24 C    1.202    32 C    0.981    12 C    0.961
                            31 O    0.188
    24   6 C    3.962 --    31 O    1.650    23 N    1.202    25 C    1.019
    25   6 C    3.892 --    26 C    1.542    30 O    1.071    24 C    1.019
                            28 C    0.127
    26   6 C    3.980 --    25 C    1.542    27 C    1.304    61 H    0.968
    27   6 C    3.975 --    28 C    1.536    26 C    1.304    62 H    0.970
    28   6 C    3.861 --    27 C    1.536    30 O    1.125    29 Cl   1.004
                            25 C    0.127
    29  17 Cl   1.157 --    28 C    1.004
    30   8 O    2.418 --    28 C    1.125    25 C    1.071
    31   8 O    1.998 --    24 C    1.650    23 N    0.188
    32   6 C    3.973 --    36 N    0.993    23 N    0.981    63 H    0.922
                            33 C    0.913
    33   6 C    3.920 --    35 O    1.785    34 O    1.154    32 C    0.913
    34   8 O    2.218 --    33 C    1.154    64 H    0.854    35 O    0.180
    35   8 O    2.072 --    33 C    1.785    34 O    0.180
    36   7 N    3.435 --    37 C    1.175    32 C    0.993    11 C    0.944
                            44 O    0.184
    37   6 C    3.958 --    44 O    1.695    36 N    1.175    38 C    0.997
    38   6 C    3.894 --    39 C    1.530    43 O    1.097    37 C    0.997
                            41 C    0.125
    39   6 C    3.981 --    38 C    1.530    40 C    1.310    65 H    0.968
    40   6 C    3.973 --    41 C    1.522    39 C    1.310    66 H    0.971
    41   6 C    3.867 --    40 C    1.522    43 O    1.147    42 Cl   1.013
                            38 C    0.125
    42  17 Cl   1.169 --    41 C    1.013
    43   8 O    2.466 --    41 C    1.147    38 C    1.097
    44   8 O    2.037 --    37 C    1.695    36 N    0.184
    45   1 H    0.998 --     1 C    0.968
    46   1 H    0.997 --     2 C    0.967
    47   1 H    0.998 --     4 C    0.968
    48   1 H    0.998 --     5 C    0.971
    49   1 H    0.998 --     6 C    0.971
    50   1 H    0.998 --     7 C    0.968
    51   1 H    0.997 --     9 C    0.961
    52   1 H    0.990 --    11 C    0.945
    53   1 H    0.991 --    12 C    0.945
    54   1 H    0.999 --    14 C    0.964
    55   1 H    0.999 --    16 C    0.969
    56   1 H    0.998 --    17 C    0.971
    57   1 H    0.998 --    18 C    0.971
    58   1 H    0.998 --    19 C    0.968
    59   1 H    0.997 --    21 C    0.967
    60   1 H    0.998 --    22 C    0.969
    61   1 H    0.993 --    26 C    0.968
    62   1 H    0.994 --    27 C    0.970
    63   1 H    0.993 --    32 C    0.922
    64   1 H    0.879 --    34 O    0.854
    65   1 H    0.996 --    39 C    0.968
    66   1 H    0.994 --    40 C    0.971
 ---------------------------------------------------------------------------

molecular dipole:
                 x           y           z       tot (Debye)
 q only:       -1.258       0.351      -0.170
   full:       -1.322       0.928       0.223       4.144

           -------------------------------------------------
          | TOTAL ENERGY             -123.428114229073 Eh   |
          | GRADIENT NORM               0.000511106233 Eh/Î± |
          | HOMO-LUMO GAP               2.848261303390 eV   |
           -------------------------------------------------

 * finished run on 2022/03/17 at 01:34:37.694
