   * xtb version 6.3.3 (4ae9cef) compiled by 'conda@95abc7406d43' on 2020-10-14
          program call               : xtb acid_429.xyz --opt --chrg 0 --uhf 0 --gfn 2
          number of atoms            :                    78
          number of electrons        :                   250
          charge                     :                     0
          spin                       :                   0.0

   ID    Z sym.   atoms
    1    6 C      1, 2, 6-15, 19-22, 24-32, 34, 35, 39-47
    2    9 F      3-5, 16-18
    3    7 N      23, 38
    4    8 O      33, 36, 37, 48
    5    1 H      49-78

          :  Hamiltonian                  GFN2-xTB          :
 * total energy  :  -142.9200577 Eh     change       -0.1415430E-08 Eh
 * total energy  :  -142.9391877 Eh     change       -0.1913002E-01 Eh
 * total energy  :  -142.9447566 Eh     change       -0.5568875E-02 Eh
 * total energy  :  -142.9464687 Eh     change       -0.1712119E-02 Eh
 * total energy  :  -142.9477894 Eh     change       -0.1320649E-02 Eh
 * total energy  :  -142.9487745 Eh     change       -0.9851817E-03 Eh
 * total energy  :  -142.9494540 Eh     change       -0.6794192E-03 Eh
 * total energy  :  -142.9502504 Eh     change       -0.7964683E-03 Eh
 * total energy  :  -142.9510607 Eh     change       -0.8102252E-03 Eh
 * total energy  :  -142.9519096 Eh     change       -0.8488978E-03 Eh
 * total energy  :  -142.9736044 Eh     change       -0.1367604E-04 Eh
 * total energy  :  -142.9736177 Eh     change       -0.1337489E-04 Eh
 * total energy  :  -142.9736319 Eh     change       -0.1420800E-04 Eh
 * total energy  :  -142.9736455 Eh     change       -0.1357891E-04 Eh
 * total energy  :  -142.9736556 Eh     change       -0.1011820E-04 Eh
 * total energy  :  -142.9736624 Eh     change       -0.6722604E-05 Eh
 * total energy  :  -142.9736683 Eh     change       -0.5898164E-05 Eh
 * total energy  :  -142.9736741 Eh     change       -0.5812802E-05 Eh
 * total energy  :  -142.9736761 Eh     change       -0.2081547E-05 Eh
   *** GEOMETRY OPTIMIZATION CONVERGED AFTER 94 ITERATIONS ***

 final structure:
================
78
 xtb: 6.3.3 (4ae9cef)
C        -0.72970209717275   -2.32521220585403   -1.87947556792601
C         0.01476505514281   -1.82659298745200   -3.09482957164938
F         1.12658392212272   -1.13442601858376   -2.79494139875868
F         0.42897760809062   -2.83207094782660   -3.88040297919845
F        -0.72691485753143   -1.03464747563214   -3.88528123799607
C        -1.09979374924285   -3.66773301310403   -1.89835868908136
C        -1.78119410905356   -4.23543961603653   -0.84017936637283
C        -2.08651880435280   -3.46027752012290    0.26318263144960
C        -1.73369017345422   -2.12585437795547    0.27936435569796
C        -1.07301041310906   -1.51921967809650   -0.78709358367117
C        -0.79839818917456   -0.03555042151424   -0.63059174831314
C         0.68795427787224    0.27368444238541   -0.32330437990079
C         1.00632278359948    0.58374723400568    1.12790487234572
C         0.41443501948160    1.55466568037854    1.94058647205987
C        -0.80487306576907    2.37305527320454    1.60391070077013
F        -0.79213352717249    3.57459284300034    2.18527912287636
F        -1.91517006022534    1.74272588747216    2.09268062996331
F        -1.07178284066134    2.57582662390298    0.31745046417491
C         0.87455561871511    1.75705389193667    3.24166908231198
C         1.91234371710807    1.00993985493994    3.75849291999732
C         2.48081661263534    0.01852608142834    2.97968976746522
C         2.02591785534552   -0.18268590082369    1.69299655218289
N         1.03810697421353    1.31747290212711   -1.26718220273535
C         2.30750993033677    1.73936033302453   -1.57599047695780
C         3.27311796636041    1.68937771248961   -0.44069758703338
C         3.15816256809296    2.66849688666093    0.53967812535432
C         4.06962201767332    2.70043206362897    1.57861211237824
C         5.08960514363582    1.76714716256586    1.63703006231890
C         5.22614037080791    0.79743687861486    0.65122808354150
C         6.33292763937121   -0.21574507199900    0.73222501129333
C         5.98793572900044   -1.32620539895299    1.72623711779166
C         4.30832980401170    0.76849365581935   -0.39044250181396
O         2.57616033755416    2.18495169423930   -2.66662227903061
C        -0.00546196551148    1.60427218420391   -2.21701038039478
C        -0.23897522052880    3.15874917905071   -2.21296616048149
O        -1.14419048586705    3.59548492812214   -3.05278040417732
O         0.42718131864035    3.86592261756035   -1.51517148187272
N        -1.11958261251713    0.77493697024997   -1.79354538829578
C        -2.30473474807731    0.74808009641967   -2.44064276257574
C        -3.33867619497867   -0.15961174453238   -1.86518548741426
C        -3.96239975912970    0.17896018002948   -0.67166127407645
C        -4.95252350162831   -0.63364178393698   -0.13581624825784
C        -5.60978025423214   -0.26904821711962    1.16415259278111
C        -4.73392900176344   -0.66743105830254    2.35372970532121
C        -5.29670883453379   -1.79871715171960   -0.80955487744164
C        -4.69878570258165   -2.12386037911185   -2.01431931731091
C        -3.73018822344723   -1.29923717915050   -2.55593255777097
O        -2.51995924980177    1.43171236085083   -3.43231224895076
H        -0.84861911370896   -4.27407658572904   -2.75433527099008
H        -2.06473207098122   -5.27495134422661   -0.88033992905072
H        -2.60642533555541   -3.88826584054597    1.10588022690176
H        -1.99014225419583   -1.52589496045150    1.13904435303952
H        -1.42287010760431    0.28406832977928    0.20915171186309
H         1.28389615572186   -0.61997068108956   -0.56030222884970
H         0.40646012296386    2.51507842730006    3.85064964959042
H         2.26145939074663    1.19326391801493    4.76204506466595
H         3.27717112877055   -0.59583692604083    3.36862172153662
H         2.48530320006560   -0.95367008428799    1.09340514677369
H         2.37145983501053    3.40351158297346    0.46220650537599
H         3.98965885742527    3.46139100706124    2.34062035561881
H         5.80356949577352    1.80279753755238    2.44768198953615
H         6.50585623159967   -0.65313002587011   -0.25222244354006
H         7.25418467091537    0.27469745208249    1.05311793153814
H         5.83225896386271   -0.91063434652473    2.71935763570545
H         6.79546718172684   -2.05258073627238    1.77889433472358
H         5.07972916034244   -1.84156744252174    1.42079222497981
H         4.40197579021655    0.03119944974850   -1.17524721459979
H         0.30719139849621    1.34680098701377   -3.24572328731510
H        -1.68146044885339    2.85518713916809   -3.45515350270253
H        -3.69357469212686    1.09541210655278   -0.16580101963959
H        -5.78475319798865    0.80762831206441    1.19727580132789
H        -6.57377200282513   -0.77477188184210    1.24116220468536
H        -3.79906134714256   -0.11254788453171    2.34150436461618
H        -4.51196109672978   -1.73230537574595    2.32141717869079
H        -5.24659639613573   -0.44885266775666    3.28707459786877
H        -6.05761712693285   -2.44555289487109   -0.39722336534898
H        -4.99675980318293   -3.01816713118713   -2.54068629115296
H        -3.27568721797031   -1.53015991027494   -3.50667466840655

          :  Hamiltonian                  GFN2-xTB          :
         :: total energy            -142.973676146938 Eh    ::
         :: gradient norm              0.000247733542 Eh/a0 ::
         :: HOMO-LUMO gap              2.685457402518 eV    ::
         :: SCC energy              -144.773435166383 Eh    ::
         :: -> dispersion             -0.119849528825 Eh    ::
         :: repulsion energy           1.793777798293 Eh    ::

    * Orbital Energies and Occupations

         #    Occupation            Energy/Eh            Energy/eV
      -------------------------------------------------------------
         1        2.0000           -0.8941837             -24.3320
       ...           ...                  ...                  ...
       113        2.0000           -0.4468716             -12.1600
       114        2.0000           -0.4410398             -12.0013
       115        2.0000           -0.4398196             -11.9681
       116        2.0000           -0.4384172             -11.9299
       117        2.0000           -0.4283225             -11.6552
       118        2.0000           -0.4253757             -11.5751
       119        2.0000           -0.4173596             -11.3569
       120        2.0000           -0.4165935             -11.3361
       121        2.0000           -0.4140562             -11.2670
       122        2.0000           -0.4117777             -11.2050
       123        2.0000           -0.4038765             -10.9900
       124        2.0000           -0.3930847             -10.6964
       125        2.0000           -0.3887445             -10.5783 (HOMO)
       126                         -0.2900557              -7.8928 (LUMO)
       127                         -0.2830081              -7.7010
       128                         -0.2784635              -7.5774
       129                         -0.2725341              -7.4160
       130                         -0.2560127              -6.9665
       131                         -0.2428326              -6.6078
       132                         -0.2387881              -6.4978
       133                         -0.2300515              -6.2600
       134                         -0.2294865              -6.2446
       135                         -0.2244747              -6.1083
       136                         -0.2128853              -5.7929
       ...                                ...                  ...
       222                          0.6702841              18.2394
      -------------------------------------------------------------
                  HL-Gap            0.0986887 Eh            2.6855 eV

     #   Z          covCN         q      C6AA      Î±(0)
     1   6 C        2.973    -0.031    28.769     8.798
     2   6 C        3.336     0.489    17.251     6.578
     3   9 F        0.791    -0.210    11.335     3.977
     4   9 F        0.793    -0.203    11.266     3.965
     5   9 F        0.791    -0.205    11.284     3.968
     6   6 C        2.926    -0.024    28.600     8.770
     7   6 C        2.919    -0.023    28.570     8.765
     8   6 C        2.918    -0.018    28.451     8.747
     9   6 C        2.931    -0.032    28.792     8.800
    10   6 C        2.964     0.004    27.941     8.670
    11   6 C        3.816     0.041    19.869     6.344
    12   6 C        3.812     0.045    19.817     6.336
    13   6 C        2.962     0.007    27.861     8.658
    14   6 C        2.975    -0.026    28.641     8.778
    15   6 C        3.340     0.490    17.173     6.553
    16   9 F        0.792    -0.193    11.168     3.948
    17   9 F        0.792    -0.230    11.552     4.015
    18   9 F        0.792    -0.198    11.210     3.955
    19   6 C        2.932    -0.022    28.565     8.765
    20   6 C        2.919    -0.021    28.541     8.761
    21   6 C        2.918    -0.018    28.453     8.747
    22   6 C        2.934    -0.029    28.721     8.789
    23   7 N        2.761    -0.120    23.609     7.216
    24   6 C        2.771     0.280    22.258     7.727
    25   6 C        2.977    -0.015    28.373     8.737
    26   6 C        2.925    -0.032    28.804     8.801
    27   6 C        2.918    -0.031    28.764     8.795
    28   6 C        2.925    -0.039    28.970     8.827
    29   6 C        2.970     0.015    27.665     8.628
    30   6 C        3.807    -0.061    21.659     6.625
    31   6 C        3.753    -0.097    22.420     6.752
    32   6 C        2.926    -0.036    28.908     8.817
    33   8 O        0.859    -0.397    21.619     6.234
    34   6 C        3.757     0.082    19.259     6.257
    35   6 C        2.684     0.361    20.868     7.476
    36   8 O        1.655    -0.362    20.123     6.056
    37   8 O        0.856    -0.363    20.960     6.138
    38   7 N        2.755    -0.109    23.374     7.180
    39   6 C        2.764     0.273    22.388     7.749
    40   6 C        2.976    -0.016    28.412     8.743
    41   6 C        2.929    -0.039    28.965     8.826
    42   6 C        2.970     0.019    27.577     8.614
    43   6 C        3.807    -0.061    21.667     6.626
    44   6 C        3.753    -0.101    22.484     6.762
    45   6 C        2.925    -0.038    28.937     8.822
    46   6 C        2.919    -0.030    28.755     8.794
    47   6 C        2.923    -0.031    28.762     8.795
    48   8 O        0.859    -0.434    22.372     6.342
    49   1 H        0.926     0.073     2.052     2.240
    50   1 H        0.926     0.062     2.175     2.306
    51   1 H        0.926     0.059     2.209     2.324
    52   1 H        0.926     0.055     2.259     2.351
    53   1 H        0.924     0.063     2.165     2.301
    54   1 H        0.923     0.054     2.269     2.356
    55   1 H        0.926     0.070     2.080     2.255
    56   1 H        0.926     0.061     2.182     2.310
    57   1 H        0.926     0.060     2.194     2.316
    58   1 H        0.926     0.051     2.311     2.377
    59   1 H        0.926     0.052     2.300     2.372
    60   1 H        0.926     0.037     2.488     2.467
    61   1 H        0.926     0.036     2.506     2.476
    62   1 H        0.924     0.042     2.421     2.433
    63   1 H        0.924     0.044     2.401     2.423
    64   1 H        0.925     0.034     2.527     2.486
    65   1 H        0.925     0.040     2.443     2.444
    66   1 H        0.925     0.030     2.584     2.514
    67   1 H        0.926     0.039     2.456     2.451
    68   1 H        0.922     0.081     1.968     2.194
    69   1 H        0.800     0.368     0.548     1.163
    70   1 H        0.926     0.043     2.406     2.426
    71   1 H        0.924     0.049     2.336     2.390
    72   1 H        0.924     0.042     2.420     2.433
    73   1 H        0.925     0.041     2.441     2.443
    74   1 H        0.925     0.032     2.563     2.504
    75   1 H        0.925     0.044     2.401     2.423
    76   1 H        0.926     0.040     2.451     2.448
    77   1 H        0.926     0.040     2.453     2.449
    78   1 H        0.926     0.044     2.398     2.422

Wiberg/Mayer (AO) data.
largest (>0.10) Wiberg bond orders for each atom

     #   Z sym  total        # sym  WBO       # sym  WBO       # sym  WBO
 ---------------------------------------------------------------------------
     1   6 C    3.971 --     6 C    1.412    10 C    1.386     2 C    0.948
                             8 C    0.105
     2   6 C    3.824 --     4 F    0.951     1 C    0.948     5 F    0.945
                             3 F    0.942
     3   9 F    1.072 --     2 C    0.942
     4   9 F    1.075 --     2 C    0.951
     5   9 F    1.077 --     2 C    0.945
     6   6 C    3.987 --     7 C    1.444     1 C    1.412    49 H    0.964
                             9 C    0.108
     7   6 C    3.988 --     6 C    1.444     8 C    1.431    50 H    0.968
                            10 C    0.109
     8   6 C    3.989 --     9 C    1.450     7 C    1.431    51 H    0.968
                             1 C    0.105
     9   6 C    3.988 --     8 C    1.450    10 C    1.407    52 H    0.963
                             6 C    0.108
    10   6 C    3.985 --     9 C    1.407     1 C    1.386    11 C    0.989
                             7 C    0.109
    11   6 C    3.972 --    10 C    0.989    38 N    0.971    12 C    0.954
                            53 H    0.948
    12   6 C    3.976 --    13 C    0.987    23 N    0.972    11 C    0.954
                            54 H    0.951
    13   6 C    3.986 --    22 C    1.402    14 C    1.394    12 C    0.987
                            20 C    0.108
    14   6 C    3.972 --    19 C    1.403    13 C    1.394    15 C    0.951
                            21 C    0.105
    15   6 C    3.824 --    16 F    0.962    18 F    0.961    14 C    0.951
                            17 F    0.910
    16   9 F    1.088 --    15 C    0.962
    17   9 F    1.044 --    15 C    0.910
    18   9 F    1.090 --    15 C    0.961
    19   6 C    3.987 --    20 C    1.451    14 C    1.403    55 H    0.965
                            22 C    0.109
    20   6 C    3.988 --    19 C    1.451    21 C    1.426    56 H    0.968
                            13 C    0.108
    21   6 C    3.989 --    22 C    1.453    20 C    1.426    57 H    0.967
                            14 C    0.105
    22   6 C    3.989 --    21 C    1.453    13 C    1.402    58 H    0.963
                            19 C    0.109
    23   7 N    3.422 --    24 C    1.158    34 C    0.991    12 C    0.972
                            33 O    0.177
    24   6 C    3.939 --    33 O    1.730    23 N    1.158    25 C    0.963
    25   6 C    3.987 --    32 C    1.414    26 C    1.395    24 C    0.963
                            28 C    0.108
    26   6 C    3.989 --    27 C    1.442    25 C    1.395    59 H    0.968
                            29 C    0.109
    27   6 C    3.992 --    26 C    1.442    28 C    1.442    60 H    0.969
                            32 C    0.107
    28   6 C    3.991 --    27 C    1.442    29 C    1.410    61 H    0.969
                            25 C    0.108
    29   6 C    3.988 --    32 C    1.412    28 C    1.410    30 C    1.012
                            26 C    0.109
    30   6 C    3.996 --    29 C    1.012    31 C    1.002    62 H    0.976
                            63 H    0.971
    31   6 C    3.997 --    30 C    1.002    66 H    0.988    64 H    0.987
                            65 H    0.986
    32   6 C    3.990 --    25 C    1.414    29 C    1.412    67 H    0.968
                            27 C    0.107
    33   8 O    2.047 --    24 C    1.730    23 N    0.177
    34   6 C    3.945 --    23 N    0.991    38 N    0.969    68 H    0.931
                            35 C    0.880
    35   6 C    3.932 --    37 O    1.782    36 O    1.217    34 C    0.880
    36   8 O    2.245 --    35 C    1.217    69 H    0.760    37 O    0.183
    37   8 O    2.086 --    35 C    1.782    36 O    0.183
    38   7 N    3.489 --    39 C    1.249    11 C    0.971    34 C    0.969
                            48 O    0.186
    39   6 C    3.940 --    48 O    1.622    38 N    1.249    40 C    0.968
    40   6 C    3.986 --    41 C    1.407    47 C    1.400    39 C    0.968
                            45 C    0.107
    41   6 C    3.989 --    42 C    1.412    40 C    1.407    70 H    0.966
                            46 C    0.109
    42   6 C    3.987 --    41 C    1.412    45 C    1.409    43 C    1.013
                            47 C    0.107
    43   6 C    3.995 --    42 C    1.013    44 C    1.000    72 H    0.975
                            71 H    0.970
    44   6 C    3.996 --    43 C    1.000    74 H    0.988    73 H    0.986
                            75 H    0.986
    45   6 C    3.991 --    46 C    1.442    42 C    1.409    76 H    0.969
                            40 C    0.107
    46   6 C    3.991 --    45 C    1.442    47 C    1.441    77 H    0.970
                            41 C    0.109
    47   6 C    3.989 --    46 C    1.441    40 C    1.400    78 H    0.969
                            42 C    0.107
    48   8 O    2.044 --    39 C    1.622    38 N    0.186
    49   1 H    0.994 --     6 C    0.964
    50   1 H    0.995 --     7 C    0.968
    51   1 H    0.996 --     8 C    0.968
    52   1 H    0.997 --     9 C    0.963
    53   1 H    0.996 --    11 C    0.948
    54   1 H    0.997 --    12 C    0.951
    55   1 H    0.995 --    19 C    0.965
    56   1 H    0.995 --    20 C    0.968
    57   1 H    0.995 --    21 C    0.967
    58   1 H    0.997 --    22 C    0.963
    59   1 H    0.997 --    26 C    0.968
    60   1 H    0.997 --    27 C    0.969
    61   1 H    0.998 --    28 C    0.969
    62   1 H    0.998 --    30 C    0.976
    63   1 H    0.998 --    30 C    0.971
    64   1 H    0.999 --    31 C    0.987
    65   1 H    0.998 --    31 C    0.986
    66   1 H    0.999 --    31 C    0.988
    67   1 H    0.998 --    32 C    0.968
    68   1 H    0.993 --    34 C    0.931
    69   1 H    0.864 --    36 O    0.760
    70   1 H    0.998 --    41 C    0.966
    71   1 H    0.997 --    43 C    0.970
    72   1 H    0.998 --    43 C    0.975
    73   1 H    0.998 --    44 C    0.986
    74   1 H    0.999 --    44 C    0.988
    75   1 H    0.997 --    44 C    0.986
    76   1 H    0.998 --    45 C    0.969
    77   1 H    0.998 --    46 C    0.970
    78   1 H    0.998 --    47 C    0.969
 ---------------------------------------------------------------------------

molecular dipole:
                 x           y           z       tot (Debye)
 q only:       -0.288      -4.050       3.758
   full:       -0.396      -4.442       3.708      14.742

           -------------------------------------------------
          | TOTAL ENERGY             -142.973676146938 Eh   |
          | GRADIENT NORM               0.000247733542 Eh/Î± |
          | HOMO-LUMO GAP               2.685457402518 eV   |
           -------------------------------------------------

 * finished run on 2022/03/17 at 01:06:46.715
