   * xtb version 6.3.3 (4ae9cef) compiled by 'conda@95abc7406d43' on 2020-10-14
          program call               : xtb acid_35.xyz --opt --chrg 0 --uhf 0 --gfn 2
          number of atoms            :                    68
          number of electrons        :                   242
          charge                     :                     0
          spin                       :                   0.0

   ID    Z sym.   atoms
    1    6 C      1, 2, 6-15, 19-22, 24-26, 28, 29, 31, 33, 34, 38-40, 42,
                  43, 45
    2    9 F      3-5, 16-18
    3    7 N      23, 37
    4   16 S      27, 41
    5    8 O      30, 32, 35, 36, 44, 46
    6    1 H      47-68

          :  Hamiltonian                  GFN2-xTB          :
 * total energy  :  -140.6154184 Eh     change       -0.4624610E-08 Eh
 * total energy  :  -140.6314667 Eh     change       -0.1604826E-01 Eh
 * total energy  :  -140.6369738 Eh     change       -0.5507123E-02 Eh
 * total energy  :  -140.6394147 Eh     change       -0.2440889E-02 Eh
 * total energy  :  -140.6417176 Eh     change       -0.2302965E-02 Eh
 * total energy  :  -140.6433838 Eh     change       -0.1666170E-02 Eh
 * total energy  :  -140.6447825 Eh     change       -0.1398730E-02 Eh
 * total energy  :  -140.6461920 Eh     change       -0.1409424E-02 Eh
 * total energy  :  -140.6475392 Eh     change       -0.1347262E-02 Eh
 * total energy  :  -140.6486021 Eh     change       -0.1062892E-02 Eh
 * total energy  :  -140.6599104 Eh     change       -0.2411056E-04 Eh
 * total energy  :  -140.6599359 Eh     change       -0.2549065E-04 Eh
 * total energy  :  -140.6599502 Eh     change       -0.1434168E-04 Eh
 * total energy  :  -140.6599568 Eh     change       -0.6570599E-05 Eh
 * total energy  :  -140.6599619 Eh     change       -0.5118401E-05 Eh
 * total energy  :  -140.6599684 Eh     change       -0.6493484E-05 Eh
 * total energy  :  -140.6599756 Eh     change       -0.7167806E-05 Eh
 * total energy  :  -140.6599815 Eh     change       -0.5954956E-05 Eh
 * total energy  :  -140.6599857 Eh     change       -0.4170931E-05 Eh
   *** GEOMETRY OPTIMIZATION CONVERGED AFTER 60 ITERATIONS ***

 final structure:
================
68
 xtb: 6.3.3 (4ae9cef)
C         0.87380297532761   -2.16692740979154    1.89678443170391
C         0.39083752032174   -1.20463106292950    2.95133210304796
F         0.12651961520127   -1.82103155987577    4.11512279012788
F        -0.73316267869119   -0.55131355213873    2.63271284456780
F         1.30551739716895   -0.25892204115017    3.25415715501716
C         1.35258861752164   -3.39230312991195    2.35279330647710
C         1.81884104497087   -4.34496800163837    1.46914960062239
C         1.79966057454933   -4.08069330752133    0.11169447481763
C         1.34321979100401   -2.85919990267287   -0.34073990637565
C         0.88731594049281   -1.87295989513477    0.53028556878373
C         0.45613394418825   -0.57086251804179   -0.10085593485737
C        -1.07391892057335   -0.40501748721363   -0.24268199194856
C        -1.51023271521240   -0.66630309372744   -1.66490636534576
C        -2.26926069332790   -1.77538052451866   -2.03799013296164
C        -2.69772557641978   -2.79976718746591   -1.02406684613595
F        -3.49967483125446   -2.32330699238556   -0.06361750432266
F        -1.63715882632299   -3.34915108198334   -0.37721059826842
F        -3.34797321378349   -3.83595501642994   -1.57188477855591
C        -2.63942537208424   -1.95926552146307   -3.36577490183639
C        -2.25112117793023   -1.04811804596529   -4.32889343277990
C        -1.48159275141440    0.04592064455143   -3.96990418929493
C        -1.11041483105915    0.23001261519558   -2.65220509677325
N        -1.30946527648508    0.98406970382958    0.12666394687182
C        -2.49802123200103    1.57676738268041   -0.15339734779891
C        -2.61489503900394    2.99513810701261    0.27763017216981
C        -2.87817460879477    4.00731316974360   -0.59204723930683
S        -3.01588770395344    5.52299028863198    0.19197788303354
C        -2.75722429150395    4.79721178215586    1.73317038784682
C        -2.55634750130768    3.45357820454637    1.63383951587091
O        -2.33049024371054    2.56893094239049    2.63210906591957
C        -2.27931730854006    3.08330403700252    3.94303970598072
O        -3.38338063078134    0.99586461198084   -0.74468983413050
C        -0.16615449220509    1.60578351890463    0.74079649305053
C         0.25322705171130    2.88743609506839   -0.00964978521824
O         0.25788607904539    3.95403784137376    0.77097082054599
O         0.50464139880587    2.89961728943763   -1.18406011229481
N         0.88525533349502    0.61673134469876    0.61076280967226
C         2.17223633400766    1.00949747868384    0.78560621401242
C         3.19709358984882   -0.05173168618099    0.57593241505886
C         3.93198643302763   -0.58742938826977    1.58550451057886
S         5.06151184022263   -1.74770999151122    1.02870933403817
C         4.57964390864815   -1.49445906523644   -0.60419804578376
C         3.58360645229699   -0.57025094320213   -0.70098705903736
O         2.96494406923028   -0.12981065107697   -1.82622686229165
C         3.49935865109925   -0.55588052197321   -3.05786841813246
O         2.44256079273746    2.13851928835093    1.13800024850314
H         1.35202452356867   -3.60032884406546    3.41131938725812
H         2.18788861220219   -5.28732504917811    1.84112124280552
H         2.14598912830550   -4.82075769627688   -0.59280115441591
H         1.33445814712304   -2.65402605535935   -1.40080245240803
H         0.89173442587653   -0.53984799615739   -1.10881515145429
H        -1.61210519235947   -1.04790862678017    0.45949984574917
H        -3.23676960582452   -2.81507283362236   -3.63912701366990
H        -2.55187277738486   -1.19256983653051   -5.35487386234947
H        -1.17354041931141    0.76165921246548   -4.71680416025837
H        -0.51918682455006    1.09155093654693   -2.37587409288591
H        -2.97944537543270    3.93691921891351   -1.65623298374923
H        -2.76875781003418    5.41596211362468    2.60622318988234
H        -3.22691753733154    3.55431215533588    4.22094616136601
H        -1.46720995783442    3.80950417317053    4.04847345189396
H        -2.09376394147748    2.22760584734520    4.58919533506184
H        -0.33457195607394    1.85155682692280    1.79928880729202
H         0.60380649605453    4.72995401528649    0.30017551468749
H         3.85719106721095   -0.36507516089227    2.63029595936454
H         5.06994181096924   -2.04142523929224   -1.38260155296491
H         4.55287545792556   -0.27698901761582   -3.14855368261958
H         3.40206968927080   -1.63987248891583   -3.17986545215066
H         2.91878960055218   -0.04720242174559   -3.82507675133035

          :  Hamiltonian                  GFN2-xTB          :
         :: total energy            -140.659985713899 Eh    ::
         :: gradient norm              0.000336048139 Eh/a0 ::
         :: HOMO-LUMO gap              2.920138167594 eV    ::
         :: SCC energy              -142.169277453840 Eh    ::
         :: -> dispersion             -0.109125813628 Eh    ::
         :: repulsion energy           1.504407650280 Eh    ::

    * Orbital Energies and Occupations

         #    Occupation            Energy/Eh            Energy/eV
      -------------------------------------------------------------
         1        2.0000           -0.8836963             -24.0466
       ...           ...                  ...                  ...
       109        2.0000           -0.4494291             -12.2296
       110        2.0000           -0.4472147             -12.1693
       111        2.0000           -0.4425993             -12.0437
       112        2.0000           -0.4369988             -11.8913
       113        2.0000           -0.4319161             -11.7530
       114        2.0000           -0.4173052             -11.3555
       115        2.0000           -0.4156427             -11.3102
       116        2.0000           -0.4098112             -11.1515
       117        2.0000           -0.4077903             -11.0965
       118        2.0000           -0.3991613             -10.8617
       119        2.0000           -0.3981354             -10.8338
       120        2.0000           -0.3946157             -10.7380
       121        2.0000           -0.3842053             -10.4548 (HOMO)
       122                         -0.2768922              -7.5346 (LUMO)
       123                         -0.2672162              -7.2713
       124                         -0.2628077              -7.1514
       125                         -0.2605451              -7.0898
       126                         -0.2591058              -7.0506
       127                         -0.2533857              -6.8950
       128                         -0.2505383              -6.8175
       129                         -0.2346804              -6.3860
       130                         -0.2239554              -6.0941
       131                         -0.2134804              -5.8091
       132                         -0.2065705              -5.6211
       ...                                ...                  ...
       216                          0.6972637              18.9735
      -------------------------------------------------------------
                  HL-Gap            0.1073131 Eh            2.9201 eV

     #   Z          covCN         q      C6AA      Î±(0)
     1   6 C        2.974    -0.029    28.710     8.789
     2   6 C        3.336     0.487    17.268     6.580
     3   9 F        0.793    -0.204    11.275     3.967
     4   9 F        0.791    -0.203    11.270     3.966
     5   9 F        0.791    -0.215    11.394     3.987
     6   6 C        2.926    -0.022    28.550     8.763
     7   6 C        2.920    -0.021    28.527     8.759
     8   6 C        2.918    -0.016    28.418     8.742
     9   6 C        2.931    -0.026    28.664     8.780
    10   6 C        2.966     0.011    27.768     8.643
    11   6 C        3.819     0.036    19.959     6.358
    12   6 C        3.820     0.049    19.735     6.322
    13   6 C        2.973     0.024    27.471     8.597
    14   6 C        2.975    -0.027    28.666     8.782
    15   6 C        3.335     0.485    17.308     6.590
    16   9 F        0.791    -0.197    11.209     3.955
    17   9 F        0.791    -0.229    11.540     4.013
    18   9 F        0.792    -0.202    11.260     3.964
    19   6 C        2.923    -0.022    28.559     8.764
    20   6 C        2.920    -0.024    28.606     8.771
    21   6 C        2.919    -0.018    28.462     8.749
    22   6 C        2.925    -0.029    28.713     8.787
    23   7 N        2.765    -0.102    23.235     7.159
    24   6 C        2.761     0.280    22.265     7.727
    25   6 C        3.168    -0.053    28.942     8.790
    26   6 C        2.939    -0.019    28.481     8.753
    27  16 S        2.304    -0.002   141.129    19.994
    28   6 C        2.933    -0.069    29.723     8.941
    29   6 C        3.065     0.135    24.993     8.198
    30   8 O        1.704    -0.265    18.391     5.790
    31   6 C        3.652     0.033    20.316     6.473
    32   8 O        0.859    -0.417    22.023     6.292
    33   6 C        3.758     0.092    19.110     6.232
    34   6 C        2.689     0.366    20.788     7.462
    35   8 O        1.659    -0.349    19.893     6.021
    36   8 O        0.856    -0.398    21.646     6.238
    37   7 N        2.764    -0.111    23.416     7.187
    38   6 C        2.765     0.283    22.204     7.717
    39   6 C        3.167    -0.048    28.822     8.772
    40   6 C        2.940    -0.022    28.543     8.762
    41  16 S        2.306     0.001   141.034    19.988
    42   6 C        2.933    -0.072    29.796     8.952
    43   6 C        3.068     0.131    25.071     8.210
    44   8 O        1.704    -0.270    18.481     5.804
    45   6 C        3.651     0.035    20.291     6.470
    46   8 O        0.860    -0.416    22.002     6.289
    47   1 H        0.926     0.071     2.077     2.254
    48   1 H        0.926     0.062     2.174     2.306
    49   1 H        0.926     0.059     2.211     2.325
    50   1 H        0.926     0.048     2.339     2.392
    51   1 H        0.923     0.078     2.002     2.213
    52   1 H        0.924     0.073     2.055     2.242
    53   1 H        0.926     0.065     2.136     2.285
    54   1 H        0.926     0.055     2.261     2.351
    55   1 H        0.926     0.055     2.254     2.348
    56   1 H        0.926     0.073     2.052     2.240
    57   1 H        0.926     0.064     2.156     2.296
    58   1 H        0.927     0.055     2.253     2.347
    59   1 H        0.924     0.046     2.376     2.411
    60   1 H        0.924     0.047     2.362     2.403
    61   1 H        0.925     0.072     2.059     2.244
    62   1 H        0.923     0.096     1.824     2.112
    63   1 H        0.804     0.348     0.592     1.209
    64   1 H        0.927     0.070     2.082     2.256
    65   1 H        0.927     0.055     2.263     2.352
    66   1 H        0.924     0.049     2.335     2.390
    67   1 H        0.924     0.038     2.470     2.458
    68   1 H        0.925     0.071     2.078     2.254

Wiberg/Mayer (AO) data.
largest (>0.10) Wiberg bond orders for each atom

     #   Z sym  total        # sym  WBO       # sym  WBO       # sym  WBO
 ---------------------------------------------------------------------------
     1   6 C    3.971 --     6 C    1.410    10 C    1.388     2 C    0.950
                             8 C    0.105
     2   6 C    3.823 --     4 F    0.951     1 C    0.950     3 F    0.950
                             5 F    0.934
     3   9 F    1.073 --     2 C    0.950
     4   9 F    1.079 --     2 C    0.951
     5   9 F    1.064 --     2 C    0.934
     6   6 C    3.987 --     7 C    1.446     1 C    1.410    47 H    0.965
                             9 C    0.109
     7   6 C    3.988 --     6 C    1.446     8 C    1.430    48 H    0.968
                            10 C    0.108
     8   6 C    3.989 --     9 C    1.451     7 C    1.430    49 H    0.968
                             1 C    0.105
     9   6 C    3.989 --     8 C    1.451    10 C    1.405    50 H    0.966
                             6 C    0.109
    10   6 C    3.987 --     9 C    1.405     1 C    1.388    11 C    0.994
                             7 C    0.108
    11   6 C    3.966 --    10 C    0.994    37 N    0.966    12 C    0.949
                            51 H    0.940
    12   6 C    3.967 --    13 C    0.991    23 N    0.960    52 H    0.953
                            11 C    0.949
    13   6 C    3.986 --    22 C    1.404    14 C    1.389    12 C    0.991
                            20 C    0.108
    14   6 C    3.969 --    19 C    1.409    13 C    1.389    15 C    0.951
                            21 C    0.104
    15   6 C    3.820 --    16 F    0.954    18 F    0.954    14 C    0.951
                            17 F    0.922
    16   9 F    1.085 --    15 C    0.954
    17   9 F    1.048 --    15 C    0.922
    18   9 F    1.076 --    15 C    0.954
    19   6 C    3.987 --    20 C    1.447    14 C    1.409    53 H    0.966
                            22 C    0.110
    20   6 C    3.989 --    19 C    1.447    21 C    1.429    54 H    0.969
                            13 C    0.108
    21   6 C    3.990 --    22 C    1.452    20 C    1.429    55 H    0.969
                            14 C    0.104
    22   6 C    3.986 --    21 C    1.452    13 C    1.404    56 H    0.960
                            19 C    0.110
    23   7 N    3.470 --    24 C    1.207    33 C    0.987    12 C    0.960
                            32 O    0.191
    24   6 C    3.949 --    32 O    1.685    23 N    1.207    25 C    0.968
    25   6 C    3.978 --    26 C    1.593    29 C    1.173    24 C    0.968
                            27 S    0.102
    26   6 C    3.955 --    25 C    1.593    27 S    1.210    57 H    0.969
                            28 C    0.110
    27  16 S    2.633 --    26 C    1.210    28 C    1.163    25 C    0.102
    28   6 C    3.926 --    29 C    1.554    27 S    1.163    58 H    0.968
                            26 C    0.110
    29   6 C    3.938 --    28 C    1.554    25 C    1.173    30 O    1.065
    30   8 O    2.240 --    29 C    1.065    31 C    0.977
    31   6 C    3.938 --    61 H    0.979    59 H    0.977    60 H    0.977
                            30 O    0.977
    32   8 O    2.029 --    24 C    1.685    23 N    0.191
    33   6 C    3.957 --    23 N    0.987    37 N    0.972    62 H    0.936
                            34 C    0.909
    34   6 C    3.921 --    36 O    1.760    35 O    1.172    33 C    0.909
    35   8 O    2.234 --    34 C    1.172    63 H    0.852    36 O    0.180
    36   8 O    2.050 --    34 C    1.760    35 O    0.180
    37   7 N    3.461 --    38 C    1.212    33 C    0.972    11 C    0.966
                            46 O    0.189
    38   6 C    3.947 --    46 O    1.684    37 N    1.212    39 C    0.961
    39   6 C    3.979 --    40 C    1.601    43 C    1.178    38 C    0.961
                            41 S    0.101
    40   6 C    3.954 --    39 C    1.601    41 S    1.206    64 H    0.968
                            42 C    0.110
    41  16 S    2.634 --    40 C    1.206    42 C    1.168    39 C    0.101
    42   6 C    3.927 --    43 C    1.553    41 S    1.168    65 H    0.968
                            40 C    0.110
    43   6 C    3.936 --    42 C    1.553    39 C    1.178    44 O    1.055
    44   8 O    2.229 --    43 C    1.055    45 C    0.978
    45   6 C    3.940 --    68 H    0.979    44 O    0.978    66 H    0.977
                            67 H    0.977
    46   8 O    2.037 --    38 C    1.684    37 N    0.189
    47   1 H    0.995 --     6 C    0.965
    48   1 H    0.995 --     7 C    0.968
    49   1 H    0.996 --     8 C    0.968
    50   1 H    0.997 --     9 C    0.966
    51   1 H    0.994 --    11 C    0.940
    52   1 H    0.994 --    12 C    0.953
    53   1 H    0.995 --    19 C    0.966
    54   1 H    0.996 --    20 C    0.969
    55   1 H    0.996 --    21 C    0.969
    56   1 H    0.994 --    22 C    0.960
    57   1 H    0.995 --    26 C    0.969
    58   1 H    0.996 --    28 C    0.968
    59   1 H    0.998 --    31 C    0.977
    60   1 H    0.998 --    31 C    0.977
    61   1 H    0.994 --    31 C    0.979
    62   1 H    0.990 --    33 C    0.936
    63   1 H    0.878 --    35 O    0.852
    64   1 H    0.994 --    40 C    0.968
    65   1 H    0.996 --    42 C    0.968
    66   1 H    0.998 --    45 C    0.977
    67   1 H    0.998 --    45 C    0.977
    68   1 H    0.995 --    45 C    0.979
 ---------------------------------------------------------------------------

molecular dipole:
                 x           y           z       tot (Debye)
 q only:        1.738      -0.544      -1.278
   full:        1.706      -0.495      -1.170       5.406

           -------------------------------------------------
          | TOTAL ENERGY             -140.659985713899 Eh   |
          | GRADIENT NORM               0.000336048139 Eh/Î± |
          | HOMO-LUMO GAP               2.920138167594 eV   |
           -------------------------------------------------

 * finished run on 2022/03/17 at 00:09:06.045
