   * xtb version 6.3.3 (4ae9cef) compiled by 'conda@95abc7406d43' on 2020-10-14
          program call               : xtb acid_371.xyz --opt --chrg 0 --uhf 0 --gfn 2
          number of atoms            :                    90
          number of electrons        :                   250
          charge                     :                     0
          spin                       :                   0.0

   ID    Z sym.   atoms
    1    6 C      1-22, 24-33, 35, 36, 40-49
    2    7 N      23, 39
    3    8 O      34, 37, 38, 50
    4    1 H      51-90

          :  Hamiltonian                  GFN2-xTB          :
 * total energy  :  -136.7580293 Eh     change       -0.8582731E-08 Eh
 * total energy  :  -136.7777298 Eh     change       -0.1970047E-01 Eh
 * total energy  :  -136.7848658 Eh     change       -0.7136017E-02 Eh
 * total energy  :  -136.7875957 Eh     change       -0.2729864E-02 Eh
 * total energy  :  -136.7893610 Eh     change       -0.1765292E-02 Eh
 * total energy  :  -136.7904847 Eh     change       -0.1123719E-02 Eh
 * total energy  :  -136.7914501 Eh     change       -0.9653608E-03 Eh
 * total energy  :  -136.7923290 Eh     change       -0.8789891E-03 Eh
 * total energy  :  -136.7930908 Eh     change       -0.7617582E-03 Eh
 * total energy  :  -136.7939060 Eh     change       -0.8152033E-03 Eh
 * total energy  :  -136.8012641 Eh     change       -0.9563989E-05 Eh
 * total energy  :  -136.8012665 Eh     change       -0.2383162E-05 Eh
 * total energy  :  -136.8012775 Eh     change       -0.1098577E-04 Eh
 * total energy  :  -136.8012862 Eh     change       -0.8778805E-05 Eh
 * total energy  :  -136.8012942 Eh     change       -0.8008020E-05 Eh
 * total energy  :  -136.8012913 Eh     change        0.2936502E-05 Eh
 * total energy  :  -136.8012985 Eh     change       -0.7171102E-05 Eh
 * total energy  :  -136.8012972 Eh     change        0.1270357E-05 Eh
 * total energy  :  -136.8012988 Eh     change       -0.1590170E-05 Eh
   *** GEOMETRY OPTIMIZATION CONVERGED AFTER 68 ITERATIONS ***

 final structure:
================
90
 xtb: 6.3.3 (4ae9cef)
C         4.57673560942307   -1.45359879272640    1.98911362544336
C         4.16909782706489   -0.50425926269090    2.88109068592461
C         2.98604608827035    0.20733374784127    2.64027412246306
C         2.22194789842868   -0.06162660698280    1.53860844122417
C         2.59436643840211   -1.05529358072005    0.60559643232578
C         3.82027817907308   -1.74124392495443    0.83309491125095
C         4.28183375475065   -2.68607676497649   -0.10517739024109
C         3.57164852409178   -2.93145719612342   -1.24362241143586
C         2.35034592251685   -2.28358886699818   -1.45553452517548
C         1.83575908917959   -1.38550859087016   -0.55211746304319
C         0.46144637328284   -0.83062811489227   -0.81915465377651
C        -0.60396433441986   -1.21951698972526    0.23059049761310
C        -1.13436283194565   -2.62763819290430    0.26044454218197
C        -0.77403110561795   -3.56680279002042   -0.66882564242606
C        -1.24684621170342   -4.88435986534770   -0.59522008024301
C        -2.08646262922715   -5.26099368310355    0.41061399764979
C        -2.48354169120544   -4.33031103460727    1.39269805143308
C        -1.99706813145495   -2.99753366683229    1.33291911448865
C        -2.41609046121197   -2.09658388124725    2.33532005812399
C        -3.27130794711453   -2.48636335162624    3.32866655672737
C        -3.75300422640654   -3.80115447541700    3.37990421302528
C        -3.36149315146148   -4.70261076060793    2.43177399137297
N        -1.62744023194949   -0.18603765221641    0.02457389287310
C        -2.85826937051595   -0.45512832736206   -0.53108692974060
C        -3.80293427644380    0.69300963333205   -0.48809831516624
C        -4.64040569317094    0.93039654201351   -1.57158552065613
C        -5.54325617035887    1.97528563945260   -1.51723975779707
C        -5.63379455929770    2.76199403439972   -0.38174759318649
C        -4.83438261275270    2.50949969060171    0.72760816690859
C        -4.91660223563969    3.36220164037935    1.96925268131785
C        -4.32458314824787    4.74537011349819    1.68422544091474
C        -6.35068738615833    3.47509509905887    2.48874877565914
C        -3.91775912244422    1.47068029617076    0.65852786983587
O        -3.18279482083133   -1.55186134698793   -0.92639314216878
C        -0.90794805026050    1.04977898841536   -0.16860111980668
C        -1.54791102385293    2.04042333423402   -1.15445474502719
O        -1.89624360634774    3.17612770562992   -0.56636019458535
O        -1.70255466956687    1.79906876869881   -2.31907283723543
N         0.36293909179408    0.62116129472538   -0.75711255979312
C         1.13889859054002    1.54803503830047   -1.36056622170426
C         2.32305280804312    1.02528720101066   -2.09872037662828
C         3.60400435334399    1.24083881669793   -1.61537388757813
C         4.71247864780874    0.79496220163015   -2.32370873647330
C         6.11160126457555    1.05177664478350   -1.82158819954328
C         6.34234821824746    0.38203068651294   -0.46679375972893
C         6.38233351122757    2.55566767396128   -1.73912208371242
C         4.50668717716779    0.12948846224386   -3.52510490674822
C         3.23032682760363   -0.06799484831900   -4.02275985286518
C         2.13198642414785    0.38321461378857   -3.31585319068748
O         0.85756284351604    2.73147351521486   -1.27968861370863
H         5.49831539132752   -1.99524732244445    2.14673952818249
H         4.75593104132736   -0.28589679738538    3.76078094867884
H         2.68155772692283    0.98014442076115    3.33094056929219
H         1.33626795965281    0.52731980065825    1.37104490340580
H         5.21207174786398   -3.20025731482995    0.08973550491518
H         3.93377109208211   -3.63140741864262   -1.98121620920990
H         1.80641702864927   -2.50224320615065   -2.36297766589186
H         0.12231106177734   -1.16377276216446   -1.80960748286004
H        -0.16622381886559   -1.02265799997114    1.22133214134889
H        -0.12330846807933   -3.30738158594903   -1.48609492414711
H        -0.94205335600808   -5.59266709623238   -1.35141189778612
H        -2.46516269791656   -6.27132292897650    0.46837009384799
H        -2.06878234420443   -1.07527548812474    2.31891861426641
H        -3.58359006131733   -1.77757774486783    4.08220550130331
H        -4.43071942310048   -4.09143399032085    4.16934214272240
H        -3.72420075533289   -5.72043498438635    2.45836962372799
H        -4.55762459078187    0.30614666287188   -2.44717124332029
H        -6.18232300807462    2.17820711228872   -2.36373548558752
H        -6.34207747319603    3.57655091712394   -0.35978744435392
H        -4.30962086665969    2.88616772760286    2.74687369222354
H        -3.29785851317321    4.65052997305720    1.33741042738077
H        -4.33528776340720    5.35419944190956    2.58551100555370
H        -4.90253121968233    5.25611023062435    0.91780586627400
H        -6.97674574094752    4.02760956690584    1.79289575871502
H        -6.78284488907228    2.48665199367695    2.63154172140255
H        -6.36075356616307    3.99911058699202    3.44210105999477
H        -3.29064488890431    1.25573288219211    1.51200095168142
H        -0.73307362574286    1.57700581230421    0.78461727993914
H        -2.21034440506197    3.81494108291044   -1.22609737644724
H         3.72603792388202    1.76097360081636   -0.67722232982214
H         6.81595400600046    0.61730293748857   -2.54010205523424
H         6.17017876398241   -0.68886138118978   -0.54287267911201
H         5.66685997449216    0.78178170547729    0.28526485090966
H         7.36481125176989    0.54926240602186   -0.13523609227112
H         7.41291090653227    2.73588581891528   -1.44115762623262
H         5.72624976356177    3.02636143888697   -1.01170976203424
H         6.21372158106039    3.02453637061420   -2.70602229002029
H         5.35827738271558   -0.22628916589819   -4.08778323190362
H         3.09304381577758   -0.56929140063353   -4.96961407195268
H         1.13309629343894    0.25746128380208   -3.70694067543971

          :  Hamiltonian                  GFN2-xTB          :
         :: total energy            -136.801298794961 Eh    ::
         :: gradient norm              0.000816432994 Eh/a0 ::
         :: HOMO-LUMO gap              2.680388860949 eV    ::
         :: SCC energy              -139.026132354592 Eh    ::
         :: -> dispersion             -0.133173098173 Eh    ::
         :: repulsion energy           2.219790781369 Eh    ::

    * Orbital Energies and Occupations

         #    Occupation            Energy/Eh            Energy/eV
      -------------------------------------------------------------
         1        2.0000           -0.7541972             -20.5228
       ...           ...                  ...                  ...
       113        2.0000           -0.4136736             -11.2566
       114        2.0000           -0.4122008             -11.2166
       115        2.0000           -0.4102092             -11.1624
       116        2.0000           -0.4093655             -11.1394
       117        2.0000           -0.4050424             -11.0218
       118        2.0000           -0.4013992             -10.9226
       119        2.0000           -0.4000573             -10.8861
       120        2.0000           -0.3998185             -10.8796
       121        2.0000           -0.3972050             -10.8085
       122        2.0000           -0.3935062             -10.7078
       123        2.0000           -0.3925863             -10.6828
       124        2.0000           -0.3856902             -10.4952
       125        2.0000           -0.3714891             -10.1087 (HOMO)
       126                         -0.2729866              -7.4283 (LUMO)
       127                         -0.2595611              -7.0630
       128                         -0.2551562              -6.9432
       129                         -0.2456726              -6.6851
       130                         -0.2398970              -6.5279
       131                         -0.2359688              -6.4210
       132                         -0.2267785              -6.1710
       133                         -0.2260413              -6.1509
       134                         -0.2250502              -6.1239
       135                         -0.2077284              -5.6526
       136                         -0.2028690              -5.5203
       ...                                ...                  ...
       240                          0.6965884              18.9551
      -------------------------------------------------------------
                  HL-Gap            0.0985025 Eh            2.6804 eV

     #   Z          covCN         q      C6AA      Î±(0)
     1   6 C        2.922    -0.032    28.807     8.802
     2   6 C        2.915    -0.029    28.727     8.789
     3   6 C        2.917    -0.029    28.730     8.790
     4   6 C        2.917    -0.037    28.928     8.820
     5   6 C        2.983     0.010    27.795     8.648
     6   6 C        2.989     0.016    27.649     8.626
     7   6 C        2.922    -0.035    28.876     8.812
     8   6 C        2.913    -0.030    28.739     8.791
     9   6 C        2.926    -0.033    28.825     8.805
    10   6 C        2.964    -0.006    28.176     8.707
    11   6 C        3.818     0.042    19.851     6.341
    12   6 C        3.856     0.050    19.700     6.313
    13   6 C        2.964     0.012    27.736     8.638
    14   6 C        2.920    -0.032    28.786     8.798
    15   6 C        2.915    -0.027    28.671     8.780
    16   6 C        2.920    -0.034    28.846     8.807
    17   6 C        2.989     0.019    27.581     8.615
    18   6 C        2.987     0.015    27.676     8.630
    19   6 C        2.918    -0.035    28.867     8.811
    20   6 C        2.917    -0.030    28.739     8.791
    21   6 C        2.915    -0.030    28.746     8.792
    22   6 C        2.921    -0.033    28.816     8.803
    23   7 N        2.761    -0.141    24.040     7.282
    24   6 C        2.760     0.280    22.256     7.726
    25   6 C        2.976    -0.023    28.564     8.767
    26   6 C        2.923    -0.020    28.498     8.754
    27   6 C        2.918    -0.030    28.739     8.791
    28   6 C        2.925    -0.033    28.822     8.804
    29   6 C        2.972     0.015    27.678     8.630
    30   6 C        3.855    -0.014    20.786     6.484
    31   6 C        3.757    -0.107    22.594     6.777
    32   6 C        3.755    -0.104    22.543     6.770
    33   6 C        2.929    -0.038    28.933     8.821
    34   8 O        0.858    -0.402    21.725     6.249
    35   6 C        3.785     0.103    18.905     6.193
    36   6 C        2.690     0.371    20.713     7.448
    37   8 O        1.660    -0.356    20.014     6.039
    38   8 O        0.856    -0.398    21.647     6.238
    39   7 N        2.777    -0.123    23.678     7.227
    40   6 C        2.767     0.276    22.327     7.738
    41   6 C        2.977    -0.013    28.328     8.730
    42   6 C        2.928    -0.027    28.674     8.782
    43   6 C        2.973     0.014    27.688     8.631
    44   6 C        3.855    -0.014    20.790     6.485
    45   6 C        3.756    -0.102    22.502     6.764
    46   6 C        3.756    -0.104    22.532     6.768
    47   6 C        2.926    -0.037    28.932     8.821
    48   6 C        2.919    -0.028    28.710     8.787
    49   6 C        2.924    -0.030    28.761     8.795
    50   8 O        0.860    -0.440    22.505     6.360
    51   1 H        0.926     0.036     2.503     2.474
    52   1 H        0.926     0.035     2.520     2.483
    53   1 H        0.926     0.034     2.534     2.490
    54   1 H        0.926     0.032     2.555     2.500
    55   1 H        0.926     0.037     2.490     2.468
    56   1 H        0.926     0.038     2.470     2.458
    57   1 H        0.926     0.033     2.540     2.492
    58   1 H        0.923     0.051     2.302     2.373
    59   1 H        0.923     0.052     2.292     2.367
    60   1 H        0.926     0.034     2.525     2.485
    61   1 H        0.926     0.035     2.512     2.478
    62   1 H        0.926     0.036     2.501     2.473
    63   1 H        0.926     0.024     2.675     2.558
    64   1 H        0.926     0.029     2.599     2.521
    65   1 H        0.926     0.031     2.566     2.505
    66   1 H        0.926     0.034     2.527     2.486
    67   1 H        0.926     0.054     2.267     2.354
    68   1 H        0.926     0.040     2.448     2.447
    69   1 H        0.926     0.040     2.453     2.449
    70   1 H        0.924     0.034     2.537     2.491
    71   1 H        0.925     0.041     2.437     2.441
    72   1 H        0.925     0.040     2.444     2.445
    73   1 H        0.925     0.037     2.486     2.466
    74   1 H        0.925     0.039     2.462     2.454
    75   1 H        0.925     0.035     2.510     2.478
    76   1 H        0.925     0.038     2.474     2.460
    77   1 H        0.926     0.030     2.584     2.514
    78   1 H        0.923     0.057     2.230     2.336
    79   1 H        0.804     0.346     0.597     1.214
    80   1 H        0.926     0.038     2.469     2.457
    81   1 H        0.924     0.034     2.536     2.490
    82   1 H        0.925     0.032     2.552     2.498
    83   1 H        0.925     0.036     2.509     2.477
    84   1 H        0.925     0.039     2.464     2.455
    85   1 H        0.925     0.038     2.470     2.458
    86   1 H        0.925     0.041     2.434     2.440
    87   1 H        0.925     0.036     2.498     2.471
    88   1 H        0.926     0.034     2.524     2.484
    89   1 H        0.926     0.038     2.472     2.459
    90   1 H        0.926     0.039     2.466     2.456

Wiberg/Mayer (AO) data.
largest (>0.10) Wiberg bond orders for each atom

     #   Z sym  total        # sym  WBO       # sym  WBO       # sym  WBO
 ---------------------------------------------------------------------------
     1   6 C    3.990 --     2 C    1.557     6 C    1.279    51 H    0.968
                             4 C    0.118
     2   6 C    3.992 --     1 C    1.557     3 C    1.323    52 H    0.971
     3   6 C    3.991 --     4 C    1.553     2 C    1.323    53 H    0.971
     4   6 C    3.991 --     3 C    1.553     5 C    1.284    54 H    0.961
                             1 C    0.118
     5   6 C    3.989 --     4 C    1.284     6 C    1.253    10 C    1.251
     6   6 C    3.990 --     1 C    1.279     7 C    1.278     5 C    1.253
     7   6 C    3.989 --     8 C    1.550     6 C    1.278    55 H    0.967
                            10 C    0.115
     8   6 C    3.991 --     7 C    1.550     9 C    1.329    56 H    0.970
     9   6 C    3.990 --    10 C    1.518     8 C    1.329    57 H    0.964
    10   6 C    3.984 --     9 C    1.518     5 C    1.251    11 C    0.996
                             7 C    0.115
    11   6 C    3.963 --    10 C    0.996    39 N    0.955    12 C    0.954
                            58 H    0.950
    12   6 C    3.962 --    13 C    0.996    11 C    0.954    23 N    0.950
                            59 H    0.940
    13   6 C    3.983 --    14 C    1.531    18 C    1.240    12 C    0.996
                            16 C    0.114
    14   6 C    3.991 --    13 C    1.531    15 C    1.319    60 H    0.962
    15   6 C    3.992 --    16 C    1.560    14 C    1.319    61 H    0.970
    16   6 C    3.991 --    15 C    1.560    17 C    1.273    62 H    0.968
                            13 C    0.114
    17   6 C    3.990 --    22 C    1.282    16 C    1.273    18 C    1.258
    18   6 C    3.989 --    19 C    1.289    17 C    1.258    13 C    1.240
    19   6 C    3.993 --    20 C    1.551    18 C    1.289    63 H    0.965
                            22 C    0.118
    20   6 C    3.992 --    19 C    1.551    21 C    1.325    64 H    0.971
    21   6 C    3.992 --    22 C    1.555    20 C    1.325    65 H    0.971
    22   6 C    3.991 --    21 C    1.555    17 C    1.282    66 H    0.968
                            19 C    0.118
    23   7 N    3.399 --    24 C    1.154    35 C    0.989    12 C    0.950
                            34 O    0.170
    24   6 C    3.940 --    34 O    1.719    23 N    1.154    25 C    0.983
    25   6 C    3.986 --    26 C    1.393    33 C    1.392    24 C    0.983
                            28 C    0.104
    26   6 C    3.988 --    27 C    1.445    25 C    1.393    67 H    0.968
                            29 C    0.106
    27   6 C    3.991 --    26 C    1.445    28 C    1.442    68 H    0.970
                            33 C    0.106
    28   6 C    3.991 --    27 C    1.442    29 C    1.405    69 H    0.967
                            25 C    0.104
    29   6 C    3.987 --    33 C    1.421    28 C    1.405    30 C    0.998
                            26 C    0.106
    30   6 C    3.995 --    32 C    1.000    29 C    0.998    31 C    0.994
                            70 H    0.967
    31   6 C    3.995 --    30 C    0.994    71 H    0.986    73 H    0.986
                            72 H    0.985
    32   6 C    3.996 --    30 C    1.000    75 H    0.987    76 H    0.986
                            74 H    0.984
    33   6 C    3.990 --    29 C    1.421    25 C    1.392    77 H    0.966
                            27 C    0.106
    34   8 O    2.048 --    24 C    1.719    23 N    0.170
    35   6 C    3.966 --    23 N    0.989    39 N    0.955    78 H    0.947
                            36 C    0.920
    36   6 C    3.923 --    38 O    1.762    37 O    1.158    35 C    0.920
    37   8 O    2.221 --    36 C    1.158    79 H    0.854    38 O    0.176
    38   8 O    2.050 --    36 C    1.762    37 O    0.176
    39   7 N    3.465 --    40 C    1.231    11 C    0.955    35 C    0.955
                            50 O    0.189
    40   6 C    3.940 --    50 O    1.655    39 N    1.231    41 C    0.964
    41   6 C    3.987 --    42 C    1.416    49 C    1.395    40 C    0.964
                            47 C    0.107
    42   6 C    3.991 --    41 C    1.416    43 C    1.409    80 H    0.965
                            48 C    0.109
    43   6 C    3.987 --    47 C    1.415    42 C    1.409    44 C    0.998
                            49 C    0.109
    44   6 C    3.995 --    43 C    0.998    45 C    0.998    46 C    0.996
                            81 H    0.968
    45   6 C    3.996 --    44 C    0.998    84 H    0.985    82 H    0.985
                            83 H    0.985
    46   6 C    3.996 --    44 C    0.996    87 H    0.987    85 H    0.985
                            86 H    0.985
    47   6 C    3.991 --    48 C    1.438    43 C    1.415    88 H    0.968
                            41 C    0.107
    48   6 C    3.991 --    49 C    1.445    47 C    1.438    89 H    0.970
                            42 C    0.109
    49   6 C    3.990 --    48 C    1.445    41 C    1.395    90 H    0.969
                            43 C    0.109
    50   8 O    2.018 --    40 C    1.655    39 N    0.189
    51   1 H    0.998 --     1 C    0.968
    52   1 H    0.998 --     2 C    0.971
    53   1 H    0.998 --     3 C    0.971
    54   1 H    0.998 --     4 C    0.961
    55   1 H    0.998 --     7 C    0.967
    56   1 H    0.997 --     8 C    0.970
    57   1 H    0.998 --     9 C    0.964
    58   1 H    0.997 --    11 C    0.950
    59   1 H    0.996 --    12 C    0.940
    60   1 H    0.998 --    14 C    0.962
    61   1 H    0.998 --    15 C    0.970
    62   1 H    0.998 --    16 C    0.968
    63   1 H    0.999 --    19 C    0.965
    64   1 H    0.999 --    20 C    0.971
    65   1 H    0.998 --    21 C    0.971
    66   1 H    0.998 --    22 C    0.968
    67   1 H    0.996 --    26 C    0.968
    68   1 H    0.998 --    27 C    0.970
    69   1 H    0.998 --    28 C    0.967
    70   1 H    0.999 --    30 C    0.967
    71   1 H    0.998 --    31 C    0.986
    72   1 H    0.997 --    31 C    0.985
    73   1 H    0.999 --    31 C    0.986
    74   1 H    0.998 --    32 C    0.984
    75   1 H    0.999 --    32 C    0.987
    76   1 H    0.998 --    32 C    0.986
    77   1 H    0.999 --    33 C    0.966
    78   1 H    0.996 --    35 C    0.947
    79   1 H    0.879 --    37 O    0.854
    80   1 H    0.998 --    42 C    0.965
    81   1 H    0.998 --    44 C    0.968
    82   1 H    0.999 --    45 C    0.985
    83   1 H    0.999 --    45 C    0.985
    84   1 H    0.998 --    45 C    0.985
    85   1 H    0.998 --    46 C    0.985
    86   1 H    0.998 --    46 C    0.985
    87   1 H    0.999 --    46 C    0.987
    88   1 H    0.998 --    47 C    0.968
    89   1 H    0.997 --    48 C    0.970
    90   1 H    0.998 --    49 C    0.969
 ---------------------------------------------------------------------------

molecular dipole:
                 x           y           z       tot (Debye)
 q only:        0.923      -0.241       1.242
   full:        0.931      -0.000       1.116       3.694

           -------------------------------------------------
          | TOTAL ENERGY             -136.801298794961 Eh   |
          | GRADIENT NORM               0.000816432994 Eh/Î± |
          | HOMO-LUMO GAP               2.680388860949 eV   |
           -------------------------------------------------

 * finished run on 2022/03/17 at 00:22:46.818
