   * xtb version 6.3.3 (4ae9cef) compiled by 'conda@95abc7406d43' on 2020-10-14
          program call               : xtb acid_413.xyz --opt --chrg 0 --uhf 0 --gfn 2
          number of atoms            :                    80
          number of electrons        :                   238
          charge                     :                     0
          spin                       :                   0.0

   ID    Z sym.   atoms
    1    6 C      1-14, 16-19, 21-28, 30, 31, 35-38, 40-47
    2    7 N      15, 34
    3    8 O      20, 29, 32, 33, 39, 48
    4    1 H      49-80

          :  Hamiltonian                  GFN2-xTB          :
 * total energy  :  -132.2356519 Eh     change       -0.3353165E-08 Eh
 * total energy  :  -132.2485310 Eh     change       -0.1287917E-01 Eh
 * total energy  :  -132.2520703 Eh     change       -0.3539279E-02 Eh
 * total energy  :  -132.2535344 Eh     change       -0.1464083E-02 Eh
 * total energy  :  -132.2543892 Eh     change       -0.8548454E-03 Eh
 * total energy  :  -132.2548148 Eh     change       -0.4255978E-03 Eh
 * total energy  :  -132.2551078 Eh     change       -0.2929067E-03 Eh
 * total energy  :  -132.2554001 Eh     change       -0.2923242E-03 Eh
 * total energy  :  -132.2556574 Eh     change       -0.2572971E-03 Eh
 * total energy  :  -132.2558562 Eh     change       -0.1988536E-03 Eh
 * total energy  :  -132.2737031 Eh     change       -0.5069632E-05 Eh
 * total energy  :  -132.2737117 Eh     change       -0.8599558E-05 Eh
 * total energy  :  -132.2737191 Eh     change       -0.7455951E-05 Eh
 * total energy  :  -132.2737258 Eh     change       -0.6639983E-05 Eh
 * total energy  :  -132.2737343 Eh     change       -0.8552804E-05 Eh
 * total energy  :  -132.2737430 Eh     change       -0.8737828E-05 Eh
 * total energy  :  -132.2737435 Eh     change       -0.4765774E-06 Eh
 * total energy  :  -132.2737491 Eh     change       -0.5552706E-05 Eh
 * total energy  :  -132.2737539 Eh     change       -0.4803541E-05 Eh
   *** GEOMETRY OPTIMIZATION CONVERGED AFTER 251 ITERATIONS ***

 final structure:
================
80
 xtb: 6.3.3 (4ae9cef)
C        -0.81475806892353   -2.46919264971444    2.47838244434441
C        -1.15515049352042   -3.79424016798711    2.67717495590838
C        -1.59508212684050   -4.22172506059770    3.91764828680254
C        -1.69583021451134   -3.31627877269285    4.95929152880244
C        -1.35672919410656   -1.99030377231542    4.76100861537473
C        -0.91432501071336   -1.55547466837426    3.51998974035196
C        -0.49874801151647   -0.11603891583521    3.33355876115397
C         1.05148917530832   -0.00048013769474    3.30886124537651
C         1.59596894313172    1.23867704250272    3.98284863514872
C         2.59550156585547    1.99073048416973    3.37890597881255
C         3.09249044731896    3.12310630620783    3.99974183022776
C         2.60834672662814    3.50933459736240    5.23679602470296
C         1.63814431146192    2.74423699548426    5.86107799234124
C         1.13786768221591    1.61395683323678    5.24038987346411
N         1.34779585478704   -0.03542639552925    1.88552435951116
C         2.03715741355131   -1.10104741873995    1.35314952034214
C         1.94509128698623   -1.23971342577802   -0.10935937056603
C         1.75170097455417   -2.43228636834924   -0.76824156839962
C         1.66730507339343   -3.82088026521982   -0.25419671050683
O         1.59371552146029   -2.20851169259033   -2.08266834774999
C         1.71128144435253   -0.87118469240654   -2.30412492854120
C         1.55349592062786   -0.35761304280902   -3.65006865942313
C         1.20625799391688   -1.21540352372900   -4.69415563063385
C         1.05500259409452   -0.72791382247603   -5.97718404470517
C         1.25311805546214    0.61720982230093   -6.23915527723486
C         1.59520676483466    1.47594759331944   -5.20724309892975
C         1.73901876980189    0.99903141132063   -3.92003381108691
C         1.93380211519905   -0.23034828938532   -1.11456288167622
O         2.64989436803791   -1.86829323234050    2.06675752340793
C         0.28554470265794    0.66648699666161    1.21697420384107
C         0.58629043301896    2.18910852225604    1.13243392729456
O        -0.19855932660447    2.95910345693005    1.87482678007834
O         1.43924951572350    2.62487102217359    0.41539261150472
N        -0.89337958848644    0.40962630826253    2.02119549325752
C        -2.13007311769440    0.09702847593145    1.50124425499727
C        -2.24830501345123    0.21792491184785    0.03513263240116
C        -2.78675174614028   -0.76229759484451   -0.76590112517205
C        -3.38436788499696   -2.07461864579449   -0.41962461773630
O        -2.67629477524060   -0.41122278357974   -2.05642374537558
C        -2.09240213342018    0.81275575808119   -2.11784176085429
C        -1.86806968816824    1.42600442501400   -3.41199521272909
C        -2.18724669781135    0.73270922319298   -4.57994676687177
C        -1.99986113366771    1.32109760229930   -5.81462242109117
C        -1.49438845954819    2.60712214627603   -5.90422815255128
C        -1.16391642126865    3.29806752762458   -4.74981875336117
C        -1.34382997863160    2.71518063919258   -3.51131910316493
C        -1.80705985050674    1.24280534511528   -0.84859249436944
O        -3.03484949506708   -0.27170230159005    2.21976487474510
H        -0.48064343602700   -2.15035899842447    1.50062692585924
H        -1.07690217247419   -4.49526580495068    1.85942758523722
H        -1.86260993203878   -5.25651190577031    4.07003070304552
H        -2.04376252693632   -3.64151925147016    5.92827742984704
H        -1.44318205715535   -1.28546925589941    5.57522396043948
H        -0.94465467757369    0.49659211886440    4.12251425920266
H         1.51183131223395   -0.88644861116669    3.76406758226298
H         2.99351675491195    1.68751656541366    2.42295650555101
H         3.86190788701025    3.70175500629071    3.51203397929751
H         2.99334174997078    4.39496873573616    5.71926397059404
H         1.27035223539766    3.02514557007200    6.83679325294645
H         0.39805659867218    1.01310488470217    5.74929767085687
H         2.42487530546901   -4.44027190221136   -0.73159700622710
H         1.83733358775503   -3.81713193598973    0.81838672455688
H         0.69229294375478   -4.25520496055210   -0.47462249804740
H         1.05923835878926   -2.26472447243826   -4.48765004451899
H         0.78547670515814   -1.40084371329106   -6.77793681624790
H         1.14216817778751    0.99578515800736   -7.24408843626938
H         1.75040999760136    2.52510751609487   -5.40834643724668
H         2.00173983046705    1.67359653766502   -3.12095826929358
H         2.10018032395119    0.81619091397173   -0.96091078844106
H         0.16722719169885    0.30734303066578    0.18891477503151
H        -0.84510421393984    2.42187375942994    2.36964304250433
H        -4.36075490926248   -2.17413439998977   -0.89034531235834
H        -2.75481641721629   -2.88949318945291   -0.77772098977144
H        -3.49623377919900   -2.14737581833774    0.65823942619991
H        -2.58612133505759   -0.26744247961177   -4.50686189002838
H        -2.25287355373320    0.77573670628211   -6.71174366651293
H        -1.35592506503691    3.06909397182132   -6.87027576059436
H        -0.76472596694161    4.29945207204139   -4.81572191763450
H        -1.08339608773775    3.25975525397426   -2.61765388034882
H        -1.36899805408405    2.18072509223502   -0.57603169122464

          :  Hamiltonian                  GFN2-xTB          :
         :: total energy            -132.273753881147 Eh    ::
         :: gradient norm              0.000515626121 Eh/a0 ::
         :: HOMO-LUMO gap              3.170105304700 eV    ::
         :: SCC energy              -134.309571551235 Eh    ::
         :: -> dispersion             -0.120545535534 Eh    ::
         :: repulsion energy           2.030473560900 Eh    ::

    * Orbital Energies and Occupations

         #    Occupation            Energy/Eh            Energy/eV
      -------------------------------------------------------------
         1        2.0000           -0.7681730             -20.9031
       ...           ...                  ...                  ...
       107        2.0000           -0.4255939             -11.5810
       108        2.0000           -0.4250299             -11.5657
       109        2.0000           -0.4167692             -11.3409
       110        2.0000           -0.4142544             -11.2724
       111        2.0000           -0.4138485             -11.2614
       112        2.0000           -0.4132154             -11.2442
       113        2.0000           -0.4123657             -11.2210
       114        2.0000           -0.4076973             -11.0940
       115        2.0000           -0.4068807             -11.0718
       116        2.0000           -0.4044732             -11.0063
       117        2.0000           -0.3998267             -10.8798
       118        2.0000           -0.3839482             -10.4478
       119        2.0000           -0.3785644             -10.3013 (HOMO)
       120                         -0.2620652              -7.1312 (LUMO)
       121                         -0.2607534              -7.0955
       122                         -0.2560787              -6.9683
       123                         -0.2530639              -6.8862
       124                         -0.2461963              -6.6993
       125                         -0.2365545              -6.4370
       126                         -0.2324124              -6.3243
       127                         -0.2312077              -6.2915
       128                         -0.2307067              -6.2778
       129                         -0.2306363              -6.2759
       130                         -0.2255542              -6.1376
       ...                                ...                  ...
       224                          0.7045421              19.1716
      -------------------------------------------------------------
                  HL-Gap            0.1164992 Eh            3.1701 eV

     #   Z          covCN         q      C6AA      Î±(0)
     1   6 C        2.924    -0.026    28.640     8.776
     2   6 C        2.920    -0.027    28.664     8.780
     3   6 C        2.921    -0.027    28.688     8.783
     4   6 C        2.920    -0.024    28.614     8.772
     5   6 C        2.925    -0.030    28.747     8.793
     6   6 C        2.973     0.011    27.773     8.644
     7   6 C        3.825     0.043    19.842     6.339
     8   6 C        3.847     0.036    19.939     6.352
     9   6 C        2.970    -0.004    28.119     8.698
    10   6 C        2.924    -0.031    28.769     8.796
    11   6 C        2.920    -0.023    28.575     8.766
    12   6 C        2.920    -0.028    28.700     8.785
    13   6 C        2.920    -0.028    28.690     8.784
    14   6 C        2.924    -0.040    28.990     8.830
    15   7 N        2.763    -0.122    23.659     7.224
    16   6 C        2.759     0.276    22.340     7.740
    17   6 C        3.059    -0.067    29.608     8.923
    18   6 C        3.071     0.130    25.097     8.214
    19   6 C        3.753    -0.118    22.820     6.812
    20   8 O        1.729    -0.193    17.224     5.604
    21   6 C        3.080     0.106    25.581     8.292
    22   6 C        2.971     0.004    27.942     8.671
    23   6 C        2.925    -0.031    28.765     8.795
    24   6 C        2.919    -0.028    28.711     8.787
    25   6 C        2.920    -0.029    28.723     8.789
    26   6 C        2.919    -0.026    28.651     8.778
    27   6 C        2.924    -0.037    28.911     8.818
    28   6 C        3.002    -0.082    30.035     8.990
    29   8 O        0.859    -0.426    22.198     6.317
    30   6 C        3.781     0.071    19.412     6.276
    31   6 C        2.686     0.351    21.048     7.508
    32   8 O        1.658    -0.352    19.939     6.028
    33   8 O        0.856    -0.361    20.920     6.132
    34   7 N        2.758    -0.160    24.446     7.343
    35   6 C        2.758     0.273    22.378     7.747
    36   6 C        3.057    -0.072    29.729     8.942
    37   6 C        3.077     0.130    25.077     8.210
    38   6 C        3.753    -0.118    22.824     6.813
    39   8 O        1.730    -0.189    17.149     5.592
    40   6 C        3.081     0.108    25.531     8.283
    41   6 C        2.971     0.004    27.933     8.669
    42   6 C        2.926    -0.029    28.733     8.791
    43   6 C        2.919    -0.027    28.675     8.781
    44   6 C        2.920    -0.028    28.695     8.784
    45   6 C        2.919    -0.026    28.647     8.777
    46   6 C        2.924    -0.034    28.859     8.810
    47   6 C        3.006    -0.079    29.965     8.980
    48   8 O        0.859    -0.422    22.133     6.308
    49   1 H        0.925     0.016     2.788     2.611
    50   1 H        0.926     0.034     2.537     2.491
    51   1 H        0.926     0.038     2.477     2.461
    52   1 H        0.926     0.040     2.454     2.450
    53   1 H        0.926     0.033     2.537     2.491
    54   1 H        0.924     0.054     2.269     2.356
    55   1 H        0.924     0.086     1.923     2.169
    56   1 H        0.926     0.044     2.397     2.421
    57   1 H        0.926     0.043     2.406     2.426
    58   1 H        0.926     0.038     2.472     2.458
    59   1 H        0.926     0.037     2.491     2.468
    60   1 H        0.926     0.029     2.600     2.522
    61   1 H        0.925     0.071     2.077     2.253
    62   1 H        0.925     0.078     1.995     2.209
    63   1 H        0.925     0.059     2.213     2.326
    64   1 H        0.926     0.044     2.401     2.423
    65   1 H        0.926     0.034     2.529     2.487
    66   1 H        0.926     0.033     2.538     2.491
    67   1 H        0.926     0.036     2.507     2.476
    68   1 H        0.926     0.042     2.418     2.432
    69   1 H        0.926     0.061     2.192     2.315
    70   1 H        0.924     0.076     2.018     2.221
    71   1 H        0.804     0.338     0.618     1.234
    72   1 H        0.925     0.072     2.067     2.248
    73   1 H        0.924     0.062     2.181     2.309
    74   1 H        0.925     0.076     2.018     2.221
    75   1 H        0.926     0.044     2.392     2.419
    76   1 H        0.926     0.035     2.510     2.478
    77   1 H        0.926     0.036     2.504     2.475
    78   1 H        0.926     0.038     2.470     2.458
    79   1 H        0.926     0.039     2.456     2.451
    80   1 H        0.926     0.036     2.509     2.477

Wiberg/Mayer (AO) data.
largest (>0.10) Wiberg bond orders for each atom

     #   Z sym  total        # sym  WBO       # sym  WBO       # sym  WBO
 ---------------------------------------------------------------------------
     1   6 C    3.992 --     2 C    1.446     6 C    1.411    49 H    0.967
                             4 C    0.111
     2   6 C    3.992 --     1 C    1.446     3 C    1.438    50 H    0.971
                             5 C    0.111
     3   6 C    3.991 --     4 C    1.439     2 C    1.438    51 H    0.971
                             6 C    0.109
     4   6 C    3.992 --     5 C    1.444     3 C    1.439    52 H    0.970
                             1 C    0.111
     5   6 C    3.991 --     4 C    1.444     6 C    1.412    53 H    0.968
                             2 C    0.111
     6   6 C    3.986 --     5 C    1.412     1 C    1.411     7 C    0.991
                             3 C    0.109
     7   6 C    3.963 --     6 C    0.991    54 H    0.954    34 N    0.953
                             8 C    0.949
     8   6 C    3.962 --     9 C    0.987    15 N    0.970     7 C    0.949
                            55 H    0.939
     9   6 C    3.984 --    10 C    1.414    14 C    1.409     8 C    0.987
                            12 C    0.109
    10   6 C    3.990 --    11 C    1.440     9 C    1.414    56 H    0.966
                            13 C    0.111
    11   6 C    3.991 --    12 C    1.443    10 C    1.440    57 H    0.970
                            14 C    0.112
    12   6 C    3.992 --    11 C    1.443    13 C    1.436    58 H    0.971
                             9 C    0.109
    13   6 C    3.991 --    14 C    1.447    12 C    1.436    59 H    0.971
                            10 C    0.111
    14   6 C    3.991 --    13 C    1.447     9 C    1.409    60 H    0.966
                            11 C    0.112
    15   7 N    3.436 --    16 C    1.159    30 C    0.991     8 C    0.970
                            29 O    0.173
    16   6 C    3.945 --    29 O    1.687    15 N    1.159    17 C    1.014
    17   6 C    3.972 --    18 C    1.490    28 C    1.249    16 C    1.014
    18   6 C    3.908 --    17 C    1.490    20 O    1.141    19 C    1.035
                            21 C    0.112
    19   6 C    3.990 --    18 C    1.035    62 H    0.977    63 H    0.967
                            61 H    0.963
    20   8 O    2.431 --    18 C    1.141    21 C    1.082
    21   6 C    3.906 --    28 C    1.536    22 C    1.088    20 O    1.082
                            18 C    0.112
    22   6 C    3.988 --    23 C    1.372    27 C    1.367    21 C    1.088
    23   6 C    3.990 --    24 C    1.456    22 C    1.372    64 H    0.969
                            26 C    0.105
    24   6 C    3.992 --    23 C    1.456    25 C    1.432    65 H    0.971
                            27 C    0.106
    25   6 C    3.980 --    24 C    1.432    26 C    1.427    66 H    0.971
    26   6 C    3.992 --    27 C    1.463    25 C    1.427    67 H    0.970
                            23 C    0.105
    27   6 C    3.989 --    26 C    1.463    22 C    1.367    68 H    0.968
                            24 C    0.106
    28   6 C    3.981 --    21 C    1.536    17 C    1.249    69 H    0.965
    29   8 O    2.020 --    16 C    1.687    15 N    0.173
    30   6 C    3.964 --    15 N    0.991    34 N    0.977    70 H    0.922
                            31 C    0.902
    31   6 C    3.923 --    33 O    1.785    32 O    1.167    30 C    0.902
    32   8 O    2.237 --    31 C    1.167    71 H    0.840    33 O    0.173
    33   8 O    2.079 --    31 C    1.785    32 O    0.173
    34   7 N    3.425 --    35 C    1.157    30 C    0.977     7 C    0.953
                            48 O    0.172
    35   6 C    3.946 --    48 O    1.697    34 N    1.157    36 C    1.005
    36   6 C    3.971 --    37 C    1.492    47 C    1.255    35 C    1.005
    37   6 C    3.908 --    36 C    1.492    39 O    1.141    38 C    1.035
                            40 C    0.112
    38   6 C    3.990 --    37 C    1.035    74 H    0.978    72 H    0.966
                            73 H    0.964
    39   8 O    2.436 --    37 C    1.141    40 C    1.089
    40   6 C    3.908 --    47 C    1.532    39 O    1.089    41 C    1.087
                            37 C    0.112
    41   6 C    3.987 --    42 C    1.372    46 C    1.368    40 C    1.087
    42   6 C    3.990 --    43 C    1.457    41 C    1.372    75 H    0.969
                            45 C    0.105
    43   6 C    3.992 --    42 C    1.457    44 C    1.431    76 H    0.971
                            46 C    0.106
    44   6 C    3.980 --    43 C    1.431    45 C    1.428    77 H    0.971
    45   6 C    3.992 --    46 C    1.461    44 C    1.428    78 H    0.970
                            42 C    0.105
    46   6 C    3.989 --    45 C    1.461    41 C    1.368    79 H    0.968
                            43 C    0.106
    47   6 C    3.980 --    40 C    1.532    36 C    1.255    80 H    0.970
    48   8 O    2.021 --    35 C    1.697    34 N    0.172
    49   1 H    1.000 --     1 C    0.967
    50   1 H    0.999 --     2 C    0.971
    51   1 H    0.998 --     3 C    0.971
    52   1 H    0.998 --     4 C    0.970
    53   1 H    0.999 --     5 C    0.968
    54   1 H    0.996 --     7 C    0.954
    55   1 H    0.992 --     8 C    0.939
    56   1 H    0.998 --    10 C    0.966
    57   1 H    0.998 --    11 C    0.970
    58   1 H    0.998 --    12 C    0.971
    59   1 H    0.998 --    13 C    0.971
    60   1 H    0.999 --    14 C    0.966
    61   1 H    0.994 --    19 C    0.963
    62   1 H    0.993 --    19 C    0.977
    63   1 H    0.995 --    19 C    0.967
    64   1 H    0.998 --    23 C    0.969
    65   1 H    0.998 --    24 C    0.971
    66   1 H    0.998 --    25 C    0.971
    67   1 H    0.998 --    26 C    0.970
    68   1 H    0.998 --    27 C    0.968
    69   1 H    0.996 --    28 C    0.965
    70   1 H    0.994 --    30 C    0.922
    71   1 H    0.886 --    32 O    0.840
    72   1 H    0.994 --    38 C    0.966
    73   1 H    0.995 --    38 C    0.964
    74   1 H    0.994 --    38 C    0.978
    75   1 H    0.998 --    42 C    0.969
    76   1 H    0.998 --    43 C    0.971
    77   1 H    0.998 --    44 C    0.971
    78   1 H    0.998 --    45 C    0.970
    79   1 H    0.998 --    46 C    0.968
    80   1 H    0.999 --    47 C    0.970
 ---------------------------------------------------------------------------

molecular dipole:
                 x           y           z       tot (Debye)
 q only:       -0.617      -0.287      -0.462
   full:       -0.816      -0.470      -0.518       2.732

           -------------------------------------------------
          | TOTAL ENERGY             -132.273753881147 Eh   |
          | GRADIENT NORM               0.000515626121 Eh/Î± |
          | HOMO-LUMO GAP               3.170105304700 eV   |
           -------------------------------------------------

 * finished run on 2022/03/17 at 00:55:00.494
