   * xtb version 6.3.3 (4ae9cef) compiled by 'conda@95abc7406d43' on 2020-10-14
          program call               : xtb acid_455.xyz --opt --chrg 0 --uhf 0 --gfn 2
          number of atoms            :                    78
          number of electrons        :                   226
          charge                     :                     0
          spin                       :                   0.0

   ID    Z sym.   atoms
    1    8 O      1, 13, 14, 24
    2    6 C      2-9, 11, 12, 16-23, 25-46
    3    7 N      10, 15
    4    1 H      47-78

          :  Hamiltonian                  GFN2-xTB          :
 * total energy  :  -124.1120907 Eh     change       -0.6158999E-08 Eh
 * total energy  :  -124.1289176 Eh     change       -0.1682690E-01 Eh
 * total energy  :  -124.1338017 Eh     change       -0.4884095E-02 Eh
 * total energy  :  -124.1349871 Eh     change       -0.1185376E-02 Eh
 * total energy  :  -124.1357139 Eh     change       -0.7268564E-03 Eh
 * total energy  :  -124.1360611 Eh     change       -0.3472115E-03 Eh
 * total energy  :  -124.1364490 Eh     change       -0.3879092E-03 Eh
 * total energy  :  -124.1369057 Eh     change       -0.4566180E-03 Eh
 * total energy  :  -124.1373897 Eh     change       -0.4840007E-03 Eh
 * total energy  :  -124.1377987 Eh     change       -0.4089987E-03 Eh
 * total energy  :  -124.1449033 Eh     change       -0.5920763E-05 Eh
 * total energy  :  -124.1449122 Eh     change       -0.8873196E-05 Eh
 * total energy  :  -124.1449254 Eh     change       -0.1327778E-04 Eh
 * total energy  :  -124.1449402 Eh     change       -0.1473089E-04 Eh
 * total energy  :  -124.1449553 Eh     change       -0.1516758E-04 Eh
 * total energy  :  -124.1449709 Eh     change       -0.1555137E-04 Eh
 * total energy  :  -124.1449837 Eh     change       -0.1285075E-04 Eh
 * total energy  :  -124.1449927 Eh     change       -0.8966583E-05 Eh
 * total energy  :  -124.1449935 Eh     change       -0.7875754E-06 Eh
   *** GEOMETRY OPTIMIZATION CONVERGED AFTER 110 ITERATIONS ***

 final structure:
================
78
 xtb: 6.3.3 (4ae9cef)
O        -1.90624272213933   -1.60323606574993    1.86257197840039
C        -1.65583630039158   -0.53162803746003    1.35386197176905
C        -2.08021648855676    0.78086181988993    1.93207073878522
C        -3.43197242314898    1.09479262477844    1.97445504216061
C        -3.83512606134272    2.30687542263288    2.50518162385178
C        -2.89882929314959    3.20044398155949    2.99553235715294
C        -1.54421075274096    2.89255191087320    2.97686027061975
C        -0.52173225864516    3.85971361712709    3.48810046886315
C        -1.14633824853761    1.67330148085120    2.44340610378445
N        -0.96094593012332   -0.43296556050511    0.19215111138959
C        -0.60124602059853    0.74775230871676   -0.53902342487149
C        -1.63986525794777    1.05652571074002   -1.64074002677004
O        -2.87153878691607    0.77926620936744   -1.22404159015382
O        -1.38462798936843    1.52974219989336   -2.71107526539513
N         0.69136951698845    0.42294162647091   -1.08679379669277
C         1.74855831968608    1.27084350619841   -1.23753246468327
C         1.51841880912425    2.67539899569300   -0.77647185681464
C         2.22689705590900    3.09348512250424    0.34370984924549
C         2.09024436246647    4.38586376570155    0.83267435259380
C         2.88161501219974    4.83183233407806    2.02472236131728
C         1.23047289480208    5.25803896501595    0.17505845682745
C         0.53589472957810    4.85146775991505   -0.95090994422088
C         0.67597092157059    3.56207449273179   -1.43461131518177
O         2.81634882373535    0.88409206291352   -1.65961361737767
C         0.89623851339240   -1.02787716047481   -1.10644514256385
C         2.07430475450139   -1.42101513479849   -0.24877149502301
C         3.01688594457806   -2.29951956656576   -0.70976945781800
C         4.10820099046255   -2.68575062063319    0.09396694748857
C         4.22473823781471   -2.14981455572709    1.40256492246751
C         5.31990004906000   -2.53233335761274    2.20370726109250
C         6.25824589109434   -3.40645364243836    1.73089581638818
C         6.14424277380416   -3.93614689678758    0.43587532536293
C         5.09346694883232   -3.58498104823023   -0.36428824247464
C         3.23758373464397   -1.25007718291783    1.85590823351766
C         2.19115495189123   -0.89842371297952    1.05440478750741
C        -0.41820230962534   -1.58540590751556   -0.52468634323175
C        -1.43189522455160   -2.08952095833505   -1.52735262729955
C        -2.40993586151873   -2.94346393851316   -1.08096630624113
C        -3.42891414763281   -3.40377406272600   -1.93680826374625
C        -3.44294420869563   -2.96800508527520   -3.28755493249900
C        -4.46327289503759   -3.42983004431150   -4.14526321065903
C        -5.42352540281875   -4.28704208029088   -3.68596701514748
C        -5.40986055804107   -4.71877973057525   -2.34938818023911
C        -4.43649969877938   -4.28683596808697   -1.49319707245127
C        -2.43104773846667   -2.08799433808594   -3.72163820309717
C        -1.45169338901660   -1.66007397758342   -2.86886873425355
H        -4.15186496272798    0.39014545110955    1.58840594648651
H        -4.88515601653126    2.55665742609878    2.53759404704729
H        -3.22262690640801    4.14639447337452    3.40510006959565
H        -0.07063226199217    4.39325909469237    2.65064578635781
H         0.27186121934660    3.33839671826307    4.01887603495608
H        -0.97400396910149    4.58846515898398    4.15589254212748
H        -0.09518149470430    1.41573580495557    2.44531851704967
H        -0.56184955595612    1.64066234391912    0.10073758652215
H        -3.52509840261986    0.97611361847437   -1.91516018111491
H         2.89689857985181    2.39892751059729    0.83116659871235
H         2.42230651047791    5.69506173460402    2.50097796859061
H         3.88772409824912    5.11275185642432    1.71201580891678
H         2.97296488401580    4.02953031098926    2.75384742945061
H         1.11394582954521    6.26817819190914    0.54222224560971
H        -0.11749905731406    5.54531635242847   -1.45888207278888
H         0.14538715214671    3.24671567322410   -2.31890307076399
H         1.07305703564447   -1.37335209531378   -2.12882341851520
H         2.94088683979633   -2.70360541795398   -1.70912592901933
H         5.40448480454280   -2.12021656965462    3.19950461265053
H         7.09572474094996   -3.69498276833445    2.34924141248702
H         6.89552342650943   -4.62535163978191    0.07861400439035
H         5.00172479942044   -3.98988618738509   -1.36196019583380
H         3.32371497447463   -0.84404914946708    2.85410064458380
H         1.43939943479781   -0.21082630958660    1.41573666146613
H        -0.22496315491482   -2.37134791779078    0.21291661982480
H        -2.41161774244767   -3.26278494360936   -0.04895781378782
H        -4.46828156611544   -3.09598488008979   -5.17330769814478
H        -6.19966284876914   -4.64128049662389   -4.34841907860124
H        -6.17702680192555   -5.39722335191454   -2.00587878964809
H        -4.42043663280563   -4.61299467422846   -0.46347273314545
H        -2.43892478985745   -1.75108049037612   -4.74848096626875
H        -0.69501343390258   -0.98426811143415   -3.23744604087835

          :  Hamiltonian                  GFN2-xTB          :
         :: total energy            -124.144993487659 Eh    ::
         :: gradient norm              0.000904970338 Eh/a0 ::
         :: HOMO-LUMO gap              2.937077786693 eV    ::
         :: SCC energy              -126.182234782056 Eh    ::
         :: -> dispersion             -0.111108945612 Eh    ::
         :: repulsion energy           2.033824902615 Eh    ::

    * Orbital Energies and Occupations

         #    Occupation            Energy/Eh            Energy/eV
      -------------------------------------------------------------
         1        2.0000           -0.7751344             -21.0925
       ...           ...                  ...                  ...
       101        2.0000           -0.4171406             -11.3510
       102        2.0000           -0.4147012             -11.2846
       103        2.0000           -0.4135569             -11.2535
       104        2.0000           -0.4088222             -11.1246
       105        2.0000           -0.4072278             -11.0812
       106        2.0000           -0.4048954             -11.0178
       107        2.0000           -0.4043104             -11.0018
       108        2.0000           -0.4024424             -10.9510
       109        2.0000           -0.3952526             -10.7554
       110        2.0000           -0.3944895             -10.7346
       111        2.0000           -0.3892848             -10.5930
       112        2.0000           -0.3833523             -10.4315
       113        2.0000           -0.3770217             -10.2593 (HOMO)
       114                         -0.2690861              -7.3222 (LUMO)
       115                         -0.2609365              -7.1004
       116                         -0.2589271              -7.0458
       117                         -0.2454025              -6.6777
       118                         -0.2410211              -6.5585
       119                         -0.2361984              -6.4273
       120                         -0.2342041              -6.3730
       121                         -0.2302409              -6.2652
       122                         -0.2291259              -6.2348
       123                         -0.2099293              -5.7125
       124                         -0.2057028              -5.5975
       ...                                ...                  ...
       216                          0.6978827              18.9904
      -------------------------------------------------------------
                  HL-Gap            0.1079356 Eh            2.9371 eV

     #   Z          covCN         q      C6AA      Î±(0)
     1   8 O        0.859    -0.421    22.107     6.304
     2   6 C        2.759     0.274    22.366     7.745
     3   6 C        2.976    -0.018    28.446     8.749
     4   6 C        2.924    -0.027    28.667     8.780
     5   6 C        2.918    -0.028    28.708     8.786
     6   6 C        2.925    -0.038    28.953     8.824
     7   6 C        2.965     0.020    27.565     8.612
     8   6 C        3.758    -0.112    22.692     6.791
     9   6 C        2.928    -0.042    29.053     8.840
    10   7 N        2.774    -0.110    23.410     7.186
    11   6 C        3.774     0.091    19.110     6.229
    12   6 C        2.687     0.352    21.029     7.505
    13   8 O        1.659    -0.364    20.156     6.061
    14   8 O        0.856    -0.382    21.323     6.191
    15   7 N        2.767    -0.119    23.591     7.214
    16   6 C        2.763     0.275    22.346     7.741
    17   6 C        2.974    -0.020    28.510     8.758
    18   6 C        2.932    -0.034    28.857     8.810
    19   6 C        2.965     0.020    27.563     8.611
    20   6 C        3.758    -0.110    22.659     6.787
    21   6 C        2.924    -0.040    29.001     8.831
    22   6 C        2.919    -0.030    28.750     8.793
    23   6 C        2.920    -0.040    29.000     8.831
    24   8 O        0.859    -0.414    21.966     6.284
    25   6 C        3.828     0.042    19.855     6.340
    26   6 C        2.970     0.008    27.827     8.653
    27   6 C        2.923    -0.034    28.858     8.810
    28   6 C        2.987     0.018    27.601     8.618
    29   6 C        2.988     0.014    27.686     8.631
    30   6 C        2.918    -0.034    28.840     8.806
    31   6 C        2.916    -0.029    28.730     8.789
    32   6 C        2.916    -0.029    28.717     8.787
    33   6 C        2.919    -0.033    28.814     8.803
    34   6 C        2.917    -0.033    28.827     8.804
    35   6 C        2.920    -0.030    28.747     8.792
    36   6 C        3.841     0.037    19.928     6.350
    37   6 C        2.967    -0.004    28.130     8.700
    38   6 C        2.925    -0.039    28.982     8.828
    39   6 C        2.986     0.014    27.682     8.631
    40   6 C        2.987     0.011    27.763     8.643
    41   6 C        2.917    -0.036    28.886     8.813
    42   6 C        2.916    -0.029    28.729     8.789
    43   6 C        2.916    -0.029    28.725     8.789
    44   6 C        2.918    -0.033    28.832     8.805
    45   6 C        2.917    -0.037    28.924     8.819
    46   6 C        2.917    -0.041    29.030     8.835
    47   1 H        0.926     0.044     2.393     2.419
    48   1 H        0.926     0.039     2.462     2.454
    49   1 H        0.926     0.037     2.484     2.465
    50   1 H        0.924     0.053     2.287     2.365
    51   1 H        0.925     0.048     2.342     2.393
    52   1 H        0.925     0.047     2.360     2.402
    53   1 H        0.925     0.027     2.625     2.533
    54   1 H        0.923     0.072     2.062     2.246
    55   1 H        0.804     0.344     0.603     1.220
    56   1 H        0.926     0.040     2.450     2.448
    57   1 H        0.925     0.044     2.397     2.421
    58   1 H        0.924     0.054     2.267     2.355
    59   1 H        0.925     0.046     2.367     2.406
    60   1 H        0.926     0.034     2.534     2.489
    61   1 H        0.926     0.036     2.499     2.472
    62   1 H        0.926     0.051     2.305     2.374
    63   1 H        0.924     0.064     2.149     2.292
    64   1 H        0.926     0.038     2.478     2.461
    65   1 H        0.926     0.032     2.559     2.501
    66   1 H        0.926     0.031     2.566     2.505
    67   1 H        0.926     0.032     2.557     2.500
    68   1 H        0.926     0.035     2.519     2.482
    69   1 H        0.926     0.033     2.540     2.492
    70   1 H        0.926     0.020     2.733     2.585
    71   1 H        0.924     0.075     2.026     2.226
    72   1 H        0.926     0.057     2.237     2.339
    73   1 H        0.926     0.033     2.550     2.497
    74   1 H        0.926     0.032     2.557     2.500
    75   1 H        0.926     0.033     2.542     2.493
    76   1 H        0.926     0.039     2.460     2.453
    77   1 H        0.926     0.037     2.490     2.468
    78   1 H        0.926     0.038     2.472     2.459

Wiberg/Mayer (AO) data.
largest (>0.10) Wiberg bond orders for each atom

     #   Z sym  total        # sym  WBO       # sym  WBO       # sym  WBO
 ---------------------------------------------------------------------------
     1   8 O    2.017 --     2 C    1.692    10 N    0.190
     2   6 C    3.943 --     1 O    1.692    10 N    1.206     3 C    0.960
     3   6 C    3.987 --     9 C    1.408     4 C    1.403     2 C    0.960
                             6 C    0.107
     4   6 C    3.990 --     5 C    1.440     3 C    1.403    47 H    0.970
                             7 C    0.107
     5   6 C    3.991 --     6 C    1.444     4 C    1.440    48 H    0.970
                             9 C    0.109
     6   6 C    3.991 --     5 C    1.444     7 C    1.409    49 H    0.969
                             3 C    0.107
     7   6 C    3.988 --     9 C    1.410     6 C    1.409     8 C    1.027
                             4 C    0.107
     8   6 C    3.995 --     7 C    1.027    52 H    0.983    51 H    0.978
                            50 H    0.963
     9   6 C    3.990 --     7 C    1.410     3 C    1.408    53 H    0.965
                             5 C    0.109
    10   7 N    3.470 --     2 C    1.206    11 C    0.994    36 C    0.948
                             1 O    0.190
    11   6 C    3.976 --    10 N    0.994    15 N    0.992    54 H    0.920
                            12 C    0.909
    12   6 C    3.917 --    14 O    1.778    13 O    1.155    11 C    0.909
    13   8 O    2.218 --    12 C    1.155    55 H    0.856    14 O    0.181
    14   8 O    2.065 --    12 C    1.778    13 O    0.181
    15   7 N    3.449 --    16 C    1.193    11 C    0.992    25 C    0.952
                            24 O    0.187
    16   6 C    3.942 --    24 O    1.705    15 N    1.193    17 C    0.962
    17   6 C    3.987 --    18 C    1.408    23 C    1.402    16 C    0.962
                            21 C    0.106
    18   6 C    3.990 --    19 C    1.412    17 C    1.408    56 H    0.968
                            22 C    0.110
    19   6 C    3.988 --    18 C    1.412    21 C    1.408    20 C    1.025
                            23 C    0.108
    20   6 C    3.995 --    19 C    1.025    57 H    0.983    59 H    0.979
                            58 H    0.966
    21   6 C    3.991 --    22 C    1.443    19 C    1.408    60 H    0.969
                            17 C    0.106
    22   6 C    3.992 --    21 C    1.443    23 C    1.440    61 H    0.970
                            18 C    0.110
    23   6 C    3.990 --    22 C    1.440    17 C    1.402    62 H    0.965
                            19 C    0.108
    24   8 O    2.027 --    16 C    1.705    15 N    0.187
    25   6 C    3.962 --    26 C    0.988    36 C    0.964    15 N    0.952
                            63 H    0.952
    26   6 C    3.985 --    27 C    1.529    35 C    1.292    25 C    0.988
    27   6 C    3.989 --    26 C    1.529    28 C    1.281    64 H    0.965
                            34 C    0.114
    28   6 C    3.990 --    27 C    1.281    33 C    1.279    29 C    1.252
    29   6 C    3.990 --    30 C    1.283    34 C    1.275    28 C    1.252
    30   6 C    3.992 --    31 C    1.555    29 C    1.283    65 H    0.968
                            33 C    0.118
    31   6 C    3.990 --    30 C    1.555    32 C    1.321    66 H    0.971
    32   6 C    3.992 --    33 C    1.557    31 C    1.321    67 H    0.971
    33   6 C    3.990 --    32 C    1.557    28 C    1.279    68 H    0.968
                            30 C    0.118
    34   6 C    3.992 --    35 C    1.567    29 C    1.275    69 H    0.968
                            27 C    0.114
    35   6 C    3.992 --    34 C    1.567    26 C    1.292    70 H    0.967
    36   6 C    3.957 --    37 C    0.983    25 C    0.964    71 H    0.953
                            10 N    0.948
    37   6 C    3.984 --    38 C    1.520    46 C    1.301    36 C    0.983
    38   6 C    3.988 --    37 C    1.520    39 C    1.287    72 H    0.963
                            45 C    0.117
    39   6 C    3.990 --    38 C    1.287    44 C    1.275    40 C    1.249
    40   6 C    3.990 --    45 C    1.281    41 C    1.279    39 C    1.249
    41   6 C    3.992 --    42 C    1.559    40 C    1.279    73 H    0.968
                            44 C    0.119
    42   6 C    3.990 --    41 C    1.559    43 C    1.318    74 H    0.971
    43   6 C    3.992 --    44 C    1.561    42 C    1.318    75 H    0.971
    44   6 C    3.990 --    43 C    1.561    39 C    1.275    76 H    0.968
                            41 C    0.119
    45   6 C    3.991 --    46 C    1.554    40 C    1.281    77 H    0.968
                            38 C    0.117
    46   6 C    3.991 --    45 C    1.554    37 C    1.301    78 H    0.964
    47   1 H    0.998 --     4 C    0.970
    48   1 H    0.998 --     5 C    0.970
    49   1 H    0.998 --     6 C    0.969
    50   1 H    0.997 --     8 C    0.963
    51   1 H    0.997 --     8 C    0.978
    52   1 H    0.997 --     8 C    0.983
    53   1 H    0.999 --     9 C    0.965
    54   1 H    0.994 --    11 C    0.920
    55   1 H    0.881 --    13 O    0.856
    56   1 H    0.998 --    18 C    0.968
    57   1 H    0.998 --    20 C    0.983
    58   1 H    0.997 --    20 C    0.966
    59   1 H    0.998 --    20 C    0.979
    60   1 H    0.998 --    21 C    0.969
    61   1 H    0.998 --    22 C    0.970
    62   1 H    0.997 --    23 C    0.965
    63   1 H    0.995 --    25 C    0.952
    64   1 H    0.998 --    27 C    0.965
    65   1 H    0.998 --    30 C    0.968
    66   1 H    0.999 --    31 C    0.971
    67   1 H    0.999 --    32 C    0.971
    68   1 H    0.998 --    33 C    0.968
    69   1 H    0.998 --    34 C    0.968
    70   1 H    0.999 --    35 C    0.967
    71   1 H    0.993 --    36 C    0.953
    72   1 H    0.996 --    38 C    0.963
    73   1 H    0.998 --    41 C    0.968
    74   1 H    0.999 --    42 C    0.971
    75   1 H    0.998 --    43 C    0.971
    76   1 H    0.998 --    44 C    0.968
    77   1 H    0.998 --    45 C    0.968
    78   1 H    0.998 --    46 C    0.964
 ---------------------------------------------------------------------------

molecular dipole:
                 x           y           z       tot (Debye)
 q only:       -0.947       0.710       0.501
   full:       -1.195       1.057       0.476       4.232

           -------------------------------------------------
          | TOTAL ENERGY             -124.144993487659 Eh   |
          | GRADIENT NORM               0.000904970338 Eh/Î± |
          | HOMO-LUMO GAP               2.937077786693 eV   |
           -------------------------------------------------

 * finished run on 2022/03/17 at 01:25:38.699
