   * xtb version 6.3.3 (4ae9cef) compiled by 'conda@95abc7406d43' on 2020-10-14
          program call               : xtb acid_441.xyz --opt --chrg 0 --uhf 0 --gfn 2
          number of atoms            :                    72
          number of electrons        :                   218
          charge                     :                     0
          spin                       :                   0.0

   ID    Z sym.   atoms
    1    6 C      1-22, 24-27, 29, 30, 32, 33, 37-40, 42, 43
    2    7 N      23, 36
    3    8 O      28, 31, 34, 35, 41, 44
    4    1 H      45-72

          :  Hamiltonian                  GFN2-xTB          :
 * total energy  :  -121.6282581 Eh     change       -0.5438011E-08 Eh
 * total energy  :  -121.6437298 Eh     change       -0.1547167E-01 Eh
 * total energy  :  -121.6484312 Eh     change       -0.4701383E-02 Eh
 * total energy  :  -121.6504365 Eh     change       -0.2005308E-02 Eh
 * total energy  :  -121.6519196 Eh     change       -0.1483098E-02 Eh
 * total energy  :  -121.6526881 Eh     change       -0.7684720E-03 Eh
 * total energy  :  -121.6533118 Eh     change       -0.6237127E-03 Eh
 * total energy  :  -121.6538771 Eh     change       -0.5653631E-03 Eh
 * total energy  :  -121.6544570 Eh     change       -0.5798113E-03 Eh
 * total energy  :  -121.6550224 Eh     change       -0.5654039E-03 Eh
 * total energy  :  -121.6712536 Eh     change       -0.1553068E-04 Eh
 * total energy  :  -121.6712736 Eh     change       -0.1999859E-04 Eh
 * total energy  :  -121.6712979 Eh     change       -0.2431856E-04 Eh
 * total energy  :  -121.6713256 Eh     change       -0.2768488E-04 Eh
 * total energy  :  -121.6713547 Eh     change       -0.2906523E-04 Eh
 * total energy  :  -121.6713817 Eh     change       -0.2699810E-04 Eh
 * total energy  :  -121.6714048 Eh     change       -0.2316408E-04 Eh
 * total energy  :  -121.6714245 Eh     change       -0.1966737E-04 Eh
 * total energy  :  -121.6714289 Eh     change       -0.4390856E-05 Eh
   *** GEOMETRY OPTIMIZATION CONVERGED AFTER 152 ITERATIONS ***

 final structure:
================
72
 xtb: 6.3.3 (4ae9cef)
C        -1.99104469100358    1.46100554340069    2.51218999783279
C        -2.23291325399553    2.33877388058696    3.53163049646250
C        -1.45128804894284    3.50020260939550    3.69423530890042
C        -1.67867172761479    4.42539413201057    4.73459102947493
C        -0.90271395622057    5.54349755392237    4.85569017941871
C         0.13747796507891    5.78836364804559    3.94421651924319
C         0.38409612634192    4.91160328596212    2.92615016585935
C        -0.40073734049427    3.74899649812332    2.77251712137978
C        -0.17699648747306    2.82944991818513    1.73089032455862
C        -0.95017569885104    1.70336725715157    1.59925349514906
C        -0.64549439230765    0.75471214990280    0.46631585497438
C         0.77085024578329    0.12143386046150    0.61668294401334
C         1.77246934362797    0.70393862682649   -0.34036053600571
C         1.61233434169655    0.56933320637367   -1.69526982286446
C         2.54246972318866    1.12338187746117   -2.59514537129558
C         2.40824590412899    0.98212759519185   -3.99230717503633
C         3.32931667343843    1.52987224311373   -4.83999102163331
C         4.42474081754286    2.24623207858460   -4.33179745505233
C         4.58166071599969    2.40184406349358   -2.98330971873590
C         3.65094527789050    1.84601317367209   -2.08149871355950
C         3.78608977074532    1.97864150401975   -0.68464750253809
C         2.87459528789694    1.41855085514742    0.16324799999540
N         0.51731240058006   -1.29954636965881    0.37729573919767
C         1.41857818030732   -2.17209294133640   -0.17063174422353
C         0.83472014519461   -3.38785236952699   -0.76797316319066
C         1.34426576930397   -4.66069318062152   -0.68310823575157
C         2.50189765270443   -5.18815272496853    0.07890052406179
O         0.59467462866240   -5.50177207258623   -1.41450484142626
C        -0.37953573087139   -4.78173312921848   -2.00064758475028
C        -0.29067020019620   -3.47608252440463   -1.64457917124302
O         2.61263148038465   -1.94958420646115   -0.14837631148697
C        -0.84586084298817   -1.56816379840888    0.76575372040471
C        -0.93944354933760   -1.81816650322103    2.30052495598140
O         0.21209472813040   -2.10626168782307    2.89802940771090
O        -1.98152700716353   -1.79932225976062    2.88472896263923
N        -1.55569886135376   -0.37987755168565    0.37380990962884
C        -2.56542695347365   -0.33961157123085   -0.55630718396668
C        -3.35512036525133   -1.57107699574486   -0.70446966879895
C        -3.92982743583282   -2.00549443763462   -1.87715797662163
C        -3.87611374089345   -1.44708706714910   -3.25054859997622
O        -4.60577656196074   -3.14540219332927   -1.65931674351848
C        -4.50139433468214   -3.43932421436278   -0.34746572890779
C        -3.74430103954456   -2.51610578156377    0.29435009587669
O        -2.78695874501159    0.67024695839496   -1.19547332987470
H        -2.60052119073027    0.57787679465094    2.40191253628845
H        -3.03455717225136    2.14887785672368    4.23026136301617
H        -2.48022203003003    4.23285942520112    5.43334906661077
H        -1.08336471524528    6.24938962216900    5.65315131165624
H         0.73999900067883    6.67797672688020    4.05598159722665
H         1.18190464492686    5.09440549897506    2.22021783542701
H         0.61808071391483    3.02554304573349    1.02429029140009
H        -0.71979189664920    1.31107182323510   -0.47778491995733
H         1.12243144073074    0.27431426346719    1.64759109350234
H         0.76975087337544    0.02162618748749   -2.09642259486321
H         1.56352663890096    0.43053377084251   -4.37989700013667
H         3.22242993525661    1.41572237365345   -5.90879613376699
H         5.14242921321471    2.67237170377626   -5.01744700115357
H         5.42330199736865    2.95152660142479   -2.58651089612817
H         4.63107634650895    2.52664693164631   -0.29330555823906
H         2.99253906992105    1.51668937358890    1.23295571265047
H         3.02175834357499   -5.93759799249423   -0.51323790962780
H         2.17357943479186   -5.65769825676345    1.00667597863485
H         3.17950130251185   -4.37132955673250    0.31024260801590
H        -1.06177350164409   -5.30451526480150   -2.64030487935338
H        -0.91059032685198   -2.67242376750041   -1.98860410261643
H        -1.25627871759614   -2.46129626031450    0.28320122271476
H         0.97012226171743   -2.05112410360021    2.29054812014706
H        -3.47958490556796   -0.43702176856082   -3.20798132983268
H        -3.24708775275994   -2.06249699743762   -3.89491239255773
H        -4.87560948145451   -1.42515884504471   -3.67991156592866
H        -5.00767013613994   -4.31772886883110   -0.00132397325924
H        -3.51915560361436   -2.47261825613709    1.33993936776180

          :  Hamiltonian                  GFN2-xTB          :
         :: total energy            -121.671428881196 Eh    ::
         :: gradient norm              0.000268792851 Eh/a0 ::
         :: HOMO-LUMO gap              3.046223354590 eV    ::
         :: SCC energy              -123.494159940499 Eh    ::
         :: -> dispersion             -0.100318027744 Eh    ::
         :: repulsion energy           1.820197761747 Eh    ::

    * Orbital Energies and Occupations

         #    Occupation            Energy/Eh            Energy/eV
      -------------------------------------------------------------
         1        2.0000           -0.7721550             -21.0114
       ...           ...                  ...                  ...
        97        2.0000           -0.4234100             -11.5216
        98        2.0000           -0.4223291             -11.4922
        99        2.0000           -0.4199448             -11.4273
       100        2.0000           -0.4159896             -11.3197
       101        2.0000           -0.4150121             -11.2931
       102        2.0000           -0.4098579             -11.1528
       103        2.0000           -0.4085922             -11.1184
       104        2.0000           -0.4027951             -10.9606
       105        2.0000           -0.4012006             -10.9172
       106        2.0000           -0.3985942             -10.8463
       107        2.0000           -0.3969993             -10.8029
       108        2.0000           -0.3829082             -10.4195
       109        2.0000           -0.3787173             -10.3054 (HOMO)
       110                         -0.2667706              -7.2592 (LUMO)
       111                         -0.2624875              -7.1426
       112                         -0.2614749              -7.1151
       113                         -0.2587448              -7.0408
       114                         -0.2510587              -6.8317
       115                         -0.2349433              -6.3931
       116                         -0.2288033              -6.2261
       117                         -0.2268691              -6.1734
       118                         -0.2141012              -5.8260
       119                         -0.1942297              -5.2853
       120                         -0.1897270              -5.1627
       ...                                ...                  ...
       204                          0.6977551              18.9869
      -------------------------------------------------------------
                  HL-Gap            0.1119466 Eh            3.0462 eV

     #   Z          covCN         q      C6AA      Î±(0)
     1   6 C        2.917    -0.034    28.847     8.807
     2   6 C        2.918    -0.032    28.796     8.800
     3   6 C        2.987     0.013    27.712     8.635
     4   6 C        2.918    -0.034    28.836     8.806
     5   6 C        2.916    -0.030    28.739     8.791
     6   6 C        2.916    -0.029    28.728     8.789
     7   6 C        2.918    -0.035    28.873     8.812
     8   6 C        2.987     0.015    27.679     8.630
     9   6 C        2.925    -0.046    29.134     8.852
    10   6 C        2.968    -0.000    28.029     8.684
    11   6 C        3.839     0.036    19.934     6.352
    12   6 C        3.831     0.045    19.803     6.332
    13   6 C        2.969     0.010    27.794     8.648
    14   6 C        2.923    -0.033    28.826     8.805
    15   6 C        2.987     0.017    27.618     8.621
    16   6 C        2.918    -0.033    28.815     8.803
    17   6 C        2.916    -0.028    28.706     8.786
    18   6 C        2.916    -0.028    28.711     8.787
    19   6 C        2.918    -0.033    28.826     8.804
    20   6 C        2.988     0.016    27.656     8.626
    21   6 C        2.918    -0.031    28.784     8.798
    22   6 C        2.919    -0.031    28.779     8.797
    23   7 N        2.765    -0.145    24.139     7.297
    24   6 C        2.752     0.270    22.446     7.758
    25   6 C        3.075    -0.071    29.686     8.933
    26   6 C        3.093     0.130    25.052     8.204
    27   6 C        3.753    -0.124    22.937     6.829
    28   8 O        1.731    -0.174    16.918     5.554
    29   6 C        3.054     0.066    26.475     8.438
    30   6 C        3.002    -0.069    29.695     8.939
    31   8 O        0.859    -0.429    22.272     6.327
    32   6 C        3.783     0.071    19.420     6.277
    33   6 C        2.685     0.347    21.109     7.519
    34   8 O        1.659    -0.352    19.949     6.029
    35   8 O        0.856    -0.350    20.699     6.100
    36   7 N        2.760    -0.120    23.603     7.216
    37   6 C        2.761     0.273    22.380     7.747
    38   6 C        3.075    -0.067    29.591     8.919
    39   6 C        3.092     0.129    25.068     8.206
    40   6 C        3.753    -0.122    22.899     6.824
    41   8 O        1.730    -0.180    17.018     5.570
    42   6 C        3.055     0.064    26.518     8.445
    43   6 C        2.999    -0.075    29.856     8.963
    44   8 O        0.859    -0.429    22.271     6.327
    45   1 H        0.926     0.048     2.339     2.392
    46   1 H        0.926     0.041     2.437     2.441
    47   1 H        0.926     0.034     2.527     2.486
    48   1 H        0.926     0.032     2.562     2.503
    49   1 H        0.926     0.031     2.565     2.505
    50   1 H        0.926     0.032     2.560     2.502
    51   1 H        0.925     0.031     2.578     2.511
    52   1 H        0.923     0.079     1.994     2.208
    53   1 H        0.923     0.039     2.464     2.455
    54   1 H        0.925     0.029     2.602     2.523
    55   1 H        0.926     0.033     2.549     2.497
    56   1 H        0.926     0.033     2.546     2.495
    57   1 H        0.926     0.033     2.544     2.494
    58   1 H        0.926     0.034     2.525     2.485
    59   1 H        0.926     0.039     2.464     2.455
    60   1 H        0.926     0.034     2.533     2.489
    61   1 H        0.925     0.073     2.049     2.239
    62   1 H        0.924     0.066     2.129     2.282
    63   1 H        0.925     0.080     1.976     2.198
    64   1 H        0.926     0.058     2.226     2.333
    65   1 H        0.926     0.038     2.470     2.457
    66   1 H        0.924     0.079     1.988     2.205
    67   1 H        0.804     0.336     0.623     1.240
    68   1 H        0.925     0.083     1.946     2.182
    69   1 H        0.924     0.060     2.201     2.320
    70   1 H        0.925     0.070     2.082     2.256
    71   1 H        0.926     0.054     2.265     2.353
    72   1 H        0.926     0.064     2.157     2.297

Wiberg/Mayer (AO) data.
largest (>0.10) Wiberg bond orders for each atom

     #   Z sym  total        # sym  WBO       # sym  WBO       # sym  WBO
 ---------------------------------------------------------------------------
     1   6 C    3.989 --     2 C    1.552    10 C    1.306    45 H    0.965
     2   6 C    3.991 --     1 C    1.552     3 C    1.283    46 H    0.968
                             9 C    0.118
     3   6 C    3.990 --     2 C    1.283     4 C    1.278     8 C    1.248
     4   6 C    3.992 --     5 C    1.560     3 C    1.278    47 H    0.968
                             7 C    0.119
     5   6 C    3.990 --     4 C    1.560     6 C    1.318    48 H    0.971
     6   6 C    3.992 --     7 C    1.561     5 C    1.318    49 H    0.971
     7   6 C    3.991 --     6 C    1.561     8 C    1.275    50 H    0.968
                             4 C    0.119
     8   6 C    3.990 --     9 C    1.290     7 C    1.275     3 C    1.248
     9   6 C    3.990 --    10 C    1.515     8 C    1.290    51 H    0.965
                             2 C    0.118
    10   6 C    3.984 --     9 C    1.515     1 C    1.306    11 C    0.988
    11   6 C    3.958 --    10 C    0.988    36 N    0.968    12 C    0.943
                            52 H    0.943
    12   6 C    3.960 --    13 C    0.997    53 H    0.956    23 N    0.951
                            11 C    0.943
    13   6 C    3.985 --    14 C    1.520    22 C    1.297    12 C    0.997
    14   6 C    3.991 --    13 C    1.520    15 C    1.286    54 H    0.966
                            21 C    0.116
    15   6 C    3.990 --    14 C    1.286    16 C    1.277    20 C    1.249
    16   6 C    3.990 --    17 C    1.559    15 C    1.277    55 H    0.968
                            19 C    0.118
    17   6 C    3.992 --    16 C    1.559    18 C    1.319    56 H    0.971
    18   6 C    3.990 --    19 C    1.558    17 C    1.319    57 H    0.971
    19   6 C    3.992 --    18 C    1.558    20 C    1.281    58 H    0.968
                            16 C    0.118
    20   6 C    3.990 --    19 C    1.281    21 C    1.279    15 C    1.249
    21   6 C    3.991 --    22 C    1.559    20 C    1.279    59 H    0.968
                            14 C    0.116
    22   6 C    3.990 --    21 C    1.559    13 C    1.297    60 H    0.967
    23   7 N    3.445 --    24 C    1.173    32 C    0.984    12 C    0.951
                            31 O    0.179
    24   6 C    3.949 --    31 O    1.680    23 N    1.173    25 C    1.004
    25   6 C    3.971 --    26 C    1.513    30 C    1.235    24 C    1.004
    26   6 C    3.916 --    25 C    1.513    28 O    1.142    27 C    1.035
                            29 C    0.126
    27   6 C    3.989 --    26 C    1.035    63 H    0.976    61 H    0.971
                            62 H    0.961
    28   8 O    2.454 --    26 C    1.142    29 C    1.124
    29   6 C    3.906 --    30 C    1.630    28 O    1.124    64 H    0.965
                            26 C    0.126
    30   6 C    3.982 --    29 C    1.630    25 C    1.235    65 H    0.971
    31   8 O    2.014 --    24 C    1.680    23 N    0.179
    32   6 C    3.968 --    36 N    0.992    23 N    0.984    66 H    0.924
                            33 C    0.898
    33   6 C    3.922 --    35 O    1.796    34 O    1.161    32 C    0.898
    34   8 O    2.235 --    33 C    1.161    67 H    0.847    35 O    0.172
    35   8 O    2.091 --    33 C    1.796    34 O    0.172
    36   7 N    3.436 --    37 C    1.167    32 C    0.992    11 C    0.968
                            44 O    0.174
    37   6 C    3.946 --    44 O    1.678    36 N    1.167    38 C    1.019
    38   6 C    3.973 --    39 C    1.503    43 C    1.234    37 C    1.019
    39   6 C    3.916 --    38 C    1.503    41 O    1.143    40 C    1.035
                            42 C    0.128
    40   6 C    3.990 --    39 C    1.035    68 H    0.975    70 H    0.968
                            69 H    0.964
    41   8 O    2.448 --    39 C    1.143    42 C    1.116
    42   6 C    3.905 --    43 C    1.637    41 O    1.116    71 H    0.966
                            39 C    0.128
    43   6 C    3.982 --    42 C    1.637    38 C    1.234    72 H    0.965
    44   8 O    2.015 --    37 C    1.678    36 N    0.174
    45   1 H    0.997 --     1 C    0.965
    46   1 H    0.997 --     2 C    0.968
    47   1 H    0.998 --     4 C    0.968
    48   1 H    0.999 --     5 C    0.971
    49   1 H    0.999 --     6 C    0.971
    50   1 H    0.998 --     7 C    0.968
    51   1 H    0.999 --     9 C    0.965
    52   1 H    0.993 --    11 C    0.943
    53   1 H    0.997 --    12 C    0.956
    54   1 H    0.999 --    14 C    0.966
    55   1 H    0.998 --    16 C    0.968
    56   1 H    0.998 --    17 C    0.971
    57   1 H    0.998 --    18 C    0.971
    58   1 H    0.998 --    19 C    0.968
    59   1 H    0.998 --    21 C    0.968
    60   1 H    0.998 --    22 C    0.967
    61   1 H    0.994 --    27 C    0.971
    62   1 H    0.995 --    27 C    0.961
    63   1 H    0.994 --    27 C    0.976
    64   1 H    0.996 --    29 C    0.965
    65   1 H    0.998 --    30 C    0.971
    66   1 H    0.993 --    32 C    0.924
    67   1 H    0.887 --    34 O    0.847
    68   1 H    0.993 --    40 C    0.975
    69   1 H    0.996 --    40 C    0.964
    70   1 H    0.994 --    40 C    0.968
    71   1 H    0.996 --    42 C    0.966
    72   1 H    0.996 --    43 C    0.965
 ---------------------------------------------------------------------------

molecular dipole:
                 x           y           z       tot (Debye)
 q only:        0.669      -0.531      -0.398
   full:        0.682      -0.924      -0.688       3.403

           -------------------------------------------------
          | TOTAL ENERGY             -121.671428881196 Eh   |
          | GRADIENT NORM               0.000268792851 Eh/Î± |
          | HOMO-LUMO GAP               3.046223354590 eV   |
           -------------------------------------------------

 * finished run on 2022/03/17 at 01:15:29.680
