   * xtb version 6.3.3 (4ae9cef) compiled by 'conda@95abc7406d43' on 2020-10-14
          program call               : xtb acid_347.xyz --opt --chrg 0 --uhf 0 --gfn 2
          number of atoms            :                    80
          number of electrons        :                   238
          charge                     :                     0
          spin                       :                   0.0

   ID    Z sym.   atoms
    1    6 C      1-14, 16-24, 26-28, 30, 31, 35-43, 45-47
    2    7 N      15, 34
    3    8 O      25, 29, 32, 33, 44, 48
    4    1 H      49-80

          :  Hamiltonian                  GFN2-xTB          :
 * total energy  :  -132.2493682 Eh     change       -0.3039816E-08 Eh
 * total energy  :  -132.2625533 Eh     change       -0.1318514E-01 Eh
 * total energy  :  -132.2667276 Eh     change       -0.4174316E-02 Eh
 * total energy  :  -132.2682349 Eh     change       -0.1507246E-02 Eh
 * total energy  :  -132.2693001 Eh     change       -0.1065196E-02 Eh
 * total energy  :  -132.2699371 Eh     change       -0.6370713E-03 Eh
 * total energy  :  -132.2704188 Eh     change       -0.4816476E-03 Eh
 * total energy  :  -132.2708650 Eh     change       -0.4462649E-03 Eh
 * total energy  :  -132.2713356 Eh     change       -0.4705622E-03 Eh
 * total energy  :  -132.2718087 Eh     change       -0.4731408E-03 Eh
 * total energy  :  -132.2819329 Eh     change       -0.5738315E-05 Eh
 * total energy  :  -132.2819386 Eh     change       -0.5707659E-05 Eh
 * total energy  :  -132.2819444 Eh     change       -0.5843200E-05 Eh
 * total energy  :  -132.2819508 Eh     change       -0.6334736E-05 Eh
 * total energy  :  -132.2819581 Eh     change       -0.7382935E-05 Eh
 * total energy  :  -132.2819663 Eh     change       -0.8185534E-05 Eh
 * total energy  :  -132.2819738 Eh     change       -0.7435222E-05 Eh
 * total energy  :  -132.2819797 Eh     change       -0.5955395E-05 Eh
 * total energy  :  -132.2819842 Eh     change       -0.4453966E-05 Eh
   *** GEOMETRY OPTIMIZATION CONVERGED AFTER 180 ITERATIONS ***

 final structure:
================
80
 xtb: 6.3.3 (4ae9cef)
C        -2.58588696768916   -1.16056565489272   -2.06469093348655
C        -3.08287519875360   -0.84230165951892   -3.31569739781669
C        -2.45929188680821    0.12564456343627   -4.08425957218035
C        -1.32983532789453    0.76531260534847   -3.60222974898375
C        -0.83038663133115    0.44917420907832   -2.35186740237283
C        -1.46434187998597   -0.50882329378365   -1.57021936421572
C        -0.93586386494391   -0.84757019603021   -0.19874785213450
C         0.42450238256677   -1.56724965080742   -0.26479445200282
C         0.51271560338163   -2.79566356684637    0.61024966990166
C         1.17054448393051   -3.92492721541237    0.14037771782247
C         1.29512292061070   -5.04659655930059    0.94105269497298
C         0.76337745198772   -5.05107917105743    2.21925705290465
C         0.11403128658722   -3.92539367285992    2.69655529476237
C        -0.00680667912870   -2.80118151015429    1.89936200660636
N         1.38061592168453   -0.56050980114797    0.18285776704904
C         2.68093868102791   -0.63002921182942   -0.20280705072880
C         3.56178713142959    0.36144608122676    0.45127349245270
C         4.18864493661148    1.47807267374801   -0.06004398574206
C         4.12348371922362    2.12449775941831   -1.35557804718871
C         4.73695672285798    3.36728542470649   -1.53590116504993
C         4.66167355992750    4.01624814111000   -2.75231664144662
C         3.97133274233266    3.44204802847896   -3.80774991085198
C         3.36306734596475    2.20831054333603   -3.63911378249691
C         3.43690088798890    1.54980151145987   -2.42702717253856
O         4.91384584246474    2.06633575639162    0.92061691796407
C         4.77541311411431    1.34095362705136    2.04427567400627
C         5.46842949215688    1.79970278718081    3.27430877501391
C         3.95501659067596    0.27730199711003    1.81295762994391
O         3.06561850772214   -1.48219146134282   -0.97871387895277
C         0.73486931924450    0.42244293123519    1.01119034562100
C         1.27680377606690    1.85939475479288    0.84945197075535
O         1.18374141135816    2.27782159042857   -0.41416052524358
O         1.79922130665224    2.47667029345035    1.73266569803549
N        -0.65162105360677    0.34375522773876    0.58750740295795
C        -1.44433635042460    1.43405724933811    0.71412216695766
C        -2.82870288276265    1.26311503122486    0.23208606219927
C        -3.76548454203965    0.33995225869577    0.64091661605245
C        -3.71437346879926   -0.66230694333876    1.68826634576858
C        -4.51295672508440   -1.80416540756060    1.60990476310507
C        -4.44070547269819   -2.77420660520880    2.59071886252173
C        -3.57920539519787   -2.61789740563605    3.66434556546019
C        -2.79774114944163   -1.47732063448577    3.76039190271746
C        -2.86242737031551   -0.50265919336258    2.78297786497811
O        -4.88310620712162    0.47010376123846   -0.10894930497555
C        -4.68250083415109    1.47583700589238   -0.98574167900005
C        -5.77159035754748    1.81050000026807   -1.93797389472847
C        -3.43908366265874    2.00625544359243   -0.81191822136055
O        -1.00980620843918    2.46633177460440    1.19520628128261
H        -3.07395116681118   -1.91341572112253   -1.46184631983951
H        -3.95994454326113   -1.34963206048254   -3.68983957624684
H        -2.85145528822577    0.37861494581604   -5.05807016455192
H        -0.83520618445434    1.51572510944376   -4.20075989588216
H         0.04398595589600    0.95879923360568   -1.97643115243489
H        -1.66563482371645   -1.47799657609103    0.32383072953307
H         0.68479602223145   -1.84059194508772   -1.29333349361459
H         1.59767724334892   -3.91530479587252   -0.85070026828909
H         1.80873055437275   -5.91886288825539    0.56542830779678
H         0.85728084444173   -5.92749935376886    2.84319205727797
H        -0.30019546860192   -3.91874626791733    3.69397584092240
H        -0.51463148722191   -1.93078203097812    2.28771356027548
H         5.27072190260415    3.81382143784590   -0.71080918271354
H         5.14294155514050    4.97515887980816   -2.87874772204352
H         3.91230382778418    3.95145589263368   -4.75822124634262
H         2.83139825926911    1.75227021892446   -4.46120578209584
H         2.97661103089272    0.58289592635534   -2.31409194036777
H         4.96340795885795    2.67685873400526    3.67822988171289
H         6.49740883667518    2.07314317852347    3.04866165427674
H         5.45628140927242    1.01146850550502    4.02064505923176
H         3.66333466602544   -0.48034226607162    2.51124901883271
H         0.82379968767851    0.17599268828626    2.08590317923800
H         1.49924012817678    3.19202352286360   -0.48799963183370
H        -5.18252840987420   -1.91999402870244    0.77084168286301
H        -5.05849611747426   -3.65705257460421    2.51839089084223
H        -3.52460910602702   -3.37781319947814    4.42928922740756
H        -2.13971264239821   -1.34318490789326    4.60658261737893
H        -2.27038984694807    0.39615860000632    2.86995402778472
H        -5.97543009042729    0.96217132079635   -2.59033649820769
H        -6.68785123107882    2.04891658200520   -1.39969481461625
H        -5.47836779866444    2.66212625349927   -2.54329141889902
H        -2.99124169914752    2.80788436939042   -1.36090218571748

          :  Hamiltonian                  GFN2-xTB          :
         :: total energy            -132.281984163635 Eh    ::
         :: gradient norm              0.000418849083 Eh/a0 ::
         :: HOMO-LUMO gap              2.840619238955 eV    ::
         :: SCC energy              -134.322254456651 Eh    ::
         :: -> dispersion             -0.120681875593 Eh    ::
         :: repulsion energy           2.035129751743 Eh    ::

    * Orbital Energies and Occupations

         #    Occupation            Energy/Eh            Energy/eV
      -------------------------------------------------------------
         1        2.0000           -0.7508493             -20.4317
       ...           ...                  ...                  ...
       107        2.0000           -0.4172725             -11.3546
       108        2.0000           -0.4164680             -11.3327
       109        2.0000           -0.4162451             -11.3266
       110        2.0000           -0.4161330             -11.3236
       111        2.0000           -0.4117624             -11.2046
       112        2.0000           -0.4097400             -11.1496
       113        2.0000           -0.4075616             -11.0903
       114        2.0000           -0.4050131             -11.0210
       115        2.0000           -0.4044591             -11.0059
       116        2.0000           -0.3959714             -10.7749
       117        2.0000           -0.3937773             -10.7152
       118        2.0000           -0.3817776             -10.3887
       119        2.0000           -0.3685711             -10.0293 (HOMO)
       120                         -0.2641803              -7.1887 (LUMO)
       121                         -0.2543778              -6.9220
       122                         -0.2420761              -6.5872
       123                         -0.2359168              -6.4196
       124                         -0.2353885              -6.4052
       125                         -0.2343915              -6.3781
       126                         -0.2325843              -6.3289
       127                         -0.2299305              -6.2567
       128                         -0.2237973              -6.0898
       129                         -0.2216243              -6.0307
       130                         -0.2139467              -5.8218
       ...                                ...                  ...
       224                          0.7137943              19.4233
      -------------------------------------------------------------
                  HL-Gap            0.1043908 Eh            2.8406 eV

     #   Z          covCN         q      C6AA      Î±(0)
     1   6 C        2.923    -0.035    28.880     8.813
     2   6 C        2.920    -0.028    28.694     8.784
     3   6 C        2.920    -0.030    28.749     8.793
     4   6 C        2.920    -0.027    28.665     8.780
     5   6 C        2.923    -0.034    28.838     8.806
     6   6 C        2.974    -0.002    28.062     8.689
     7   6 C        3.815     0.035    19.977     6.362
     8   6 C        3.831     0.041    19.857     6.340
     9   6 C        2.973     0.000    28.022     8.683
    10   6 C        2.924    -0.029    28.733     8.791
    11   6 C        2.920    -0.026    28.658     8.779
    12   6 C        2.920    -0.029    28.721     8.788
    13   6 C        2.920    -0.029    28.725     8.789
    14   6 C        2.923    -0.038    28.937     8.822
    15   7 N        2.770    -0.114    23.476     7.196
    16   6 C        2.758     0.277    22.316     7.736
    17   6 C        3.069    -0.061    29.433     8.896
    18   6 C        3.084     0.108    25.522     8.282
    19   6 C        2.970     0.004    27.925     8.668
    20   6 C        2.926    -0.034    28.838     8.807
    21   6 C        2.918    -0.030    28.754     8.793
    22   6 C        2.919    -0.032    28.794     8.799
    23   6 C        2.919    -0.028    28.690     8.784
    24   6 C        2.923    -0.035    28.865     8.811
    25   8 O        1.732    -0.187    17.123     5.587
    26   6 C        3.077     0.128    25.117     8.217
    27   6 C        3.753    -0.118    22.823     6.812
    28   6 C        3.004    -0.075    29.866     8.965
    29   8 O        0.859    -0.430    22.291     6.330
    30   6 C        3.760     0.100    18.979     6.211
    31   6 C        2.687     0.372    20.703     7.446
    32   8 O        1.659    -0.369    20.257     6.076
    33   8 O        0.856    -0.391    21.494     6.216
    34   7 N        2.771    -0.114    23.484     7.197
    35   6 C        2.762     0.278    22.300     7.733
    36   6 C        3.069    -0.052    29.209     8.862
    37   6 C        3.091     0.104    25.608     8.295
    38   6 C        2.971     0.003    27.955     8.673
    39   6 C        2.925    -0.031    28.764     8.795
    40   6 C        2.918    -0.028    28.690     8.784
    41   6 C        2.920    -0.029    28.713     8.787
    42   6 C        2.918    -0.025    28.626     8.774
    43   6 C        2.924    -0.036    28.884     8.814
    44   8 O        1.730    -0.191    17.182     5.597
    45   6 C        3.082     0.118    25.312     8.248
    46   6 C        3.753    -0.118    22.811     6.811
    47   6 C        3.005    -0.070    29.717     8.942
    48   8 O        0.860    -0.428    22.239     6.323
    49   1 H        0.926     0.029     2.596     2.520
    50   1 H        0.926     0.035     2.515     2.480
    51   1 H        0.926     0.037     2.493     2.469
    52   1 H        0.926     0.039     2.465     2.455
    53   1 H        0.926     0.053     2.283     2.363
    54   1 H        0.924     0.051     2.313     2.379
    55   1 H        0.924     0.074     2.040     2.233
    56   1 H        0.926     0.052     2.294     2.368
    57   1 H        0.926     0.040     2.447     2.446
    58   1 H        0.926     0.036     2.497     2.471
    59   1 H        0.926     0.034     2.527     2.486
    60   1 H        0.926     0.030     2.589     2.516
    61   1 H        0.926     0.046     2.372     2.408
    62   1 H        0.926     0.033     2.549     2.496
    63   1 H        0.926     0.032     2.563     2.504
    64   1 H        0.926     0.034     2.531     2.488
    65   1 H        0.926     0.045     2.386     2.416
    66   1 H        0.925     0.073     2.051     2.239
    67   1 H        0.925     0.065     2.136     2.286
    68   1 H        0.925     0.058     2.219     2.330
    69   1 H        0.926     0.035     2.512     2.479
    70   1 H        0.922     0.059     2.217     2.328
    71   1 H        0.804     0.342     0.608     1.224
    72   1 H        0.926     0.042     2.416     2.431
    73   1 H        0.926     0.036     2.496     2.471
    74   1 H        0.926     0.036     2.501     2.473
    75   1 H        0.926     0.037     2.483     2.464
    76   1 H        0.926     0.036     2.498     2.471
    77   1 H        0.925     0.064     2.148     2.292
    78   1 H        0.925     0.068     2.108     2.271
    79   1 H        0.925     0.060     2.202     2.321
    80   1 H        0.927     0.046     2.373     2.409

Wiberg/Mayer (AO) data.
largest (>0.10) Wiberg bond orders for each atom

     #   Z sym  total        # sym  WBO       # sym  WBO       # sym  WBO
 ---------------------------------------------------------------------------
     1   6 C    3.991 --     2 C    1.444     6 C    1.412    49 H    0.968
                             4 C    0.110
     2   6 C    3.992 --     1 C    1.444     3 C    1.438    50 H    0.971
                             5 C    0.111
     3   6 C    3.990 --     2 C    1.438     4 C    1.438    51 H    0.971
                             6 C    0.109
     4   6 C    3.992 --     5 C    1.446     3 C    1.438    52 H    0.971
                             1 C    0.110
     5   6 C    3.989 --     4 C    1.446     6 C    1.411    53 H    0.964
                             2 C    0.111
     6   6 C    3.986 --     1 C    1.412     5 C    1.411     7 C    0.988
                             3 C    0.109
     7   6 C    3.965 --     6 C    0.988    34 N    0.961     8 C    0.960
                            54 H    0.950
     8   6 C    3.963 --     9 C    0.984     7 C    0.960    55 H    0.954
                            15 N    0.952
     9   6 C    3.985 --    10 C    1.414    14 C    1.413     8 C    0.984
                            12 C    0.109
    10   6 C    3.988 --    11 C    1.443     9 C    1.414    56 H    0.967
                            13 C    0.111
    11   6 C    3.992 --    10 C    1.443    12 C    1.440    57 H    0.970
                            14 C    0.112
    12   6 C    3.990 --    11 C    1.440    13 C    1.438    58 H    0.971
                             9 C    0.109
    13   6 C    3.992 --    14 C    1.445    12 C    1.438    59 H    0.971
                            10 C    0.111
    14   6 C    3.992 --    13 C    1.445     9 C    1.413    60 H    0.964
                            11 C    0.112
    15   7 N    3.467 --    16 C    1.207    30 C    0.988     8 C    0.952
                            29 O    0.189
    16   6 C    3.946 --    29 O    1.674    15 N    1.207    17 C    0.978
    17   6 C    3.978 --    18 C    1.472    28 C    1.266    16 C    0.978
    18   6 C    3.909 --    17 C    1.472    25 O    1.100    19 C    1.093
                            26 C    0.116
    19   6 C    3.988 --    24 C    1.366    20 C    1.366    18 C    1.093
    20   6 C    3.990 --    21 C    1.460    19 C    1.366    61 H    0.968
                            23 C    0.105
    21   6 C    3.992 --    20 C    1.460    22 C    1.429    62 H    0.971
                            24 C    0.105
    22   6 C    3.976 --    23 C    1.429    21 C    1.429    63 H    0.972
    23   6 C    3.992 --    24 C    1.460    22 C    1.429    64 H    0.971
                            20 C    0.105
    24   6 C    3.989 --    23 C    1.460    19 C    1.366    65 H    0.964
                            21 C    0.105
    25   8 O    2.435 --    26 C    1.126    18 C    1.100
    26   6 C    3.906 --    28 C    1.559    25 O    1.126    27 C    1.030
                            18 C    0.116
    27   6 C    3.991 --    26 C    1.030    68 H    0.983    67 H    0.973
                            66 H    0.963
    28   6 C    3.975 --    26 C    1.559    17 C    1.266    69 H    0.975
    29   8 O    2.007 --    16 C    1.674    15 N    0.189
    30   6 C    3.965 --    15 N    0.988    34 N    0.972    70 H    0.941
                            31 C    0.913
    31   6 C    3.926 --    33 O    1.766    32 O    1.135    30 C    0.913
    32   8 O    2.202 --    31 C    1.135    71 H    0.856    33 O    0.168
    33   8 O    2.057 --    31 C    1.766    32 O    0.168
    34   7 N    3.468 --    35 C    1.222    30 C    0.972     7 C    0.961
                            48 O    0.185
    35   6 C    3.945 --    48 O    1.646    34 N    1.222    36 C    0.988
    36   6 C    3.978 --    37 C    1.477    47 C    1.264    35 C    0.988
    37   6 C    3.911 --    36 C    1.477    44 O    1.104    38 C    1.081
                            45 C    0.120
    38   6 C    3.989 --    39 C    1.372    43 C    1.368    37 C    1.081
                            41 C    0.100
    39   6 C    3.988 --    40 C    1.456    38 C    1.372    72 H    0.969
                            42 C    0.105
    40   6 C    3.992 --    39 C    1.456    41 C    1.432    73 H    0.970
                            43 C    0.106
    41   6 C    3.979 --    40 C    1.432    42 C    1.428    74 H    0.971
                            38 C    0.100
    42   6 C    3.992 --    43 C    1.458    41 C    1.428    75 H    0.970
                            39 C    0.105
    43   6 C    3.990 --    42 C    1.458    38 C    1.368    76 H    0.966
                            40 C    0.106
    44   8 O    2.430 --    45 C    1.117    37 C    1.104
    45   6 C    3.904 --    47 C    1.568    44 O    1.117    46 C    1.030
                            37 C    0.120
    46   6 C    3.992 --    45 C    1.030    79 H    0.983    78 H    0.969
                            77 H    0.967
    47   6 C    3.977 --    45 C    1.568    36 C    1.264    80 H    0.974
    48   8 O    2.045 --    35 C    1.646    34 N    0.185
    49   1 H    0.999 --     1 C    0.968
    50   1 H    0.998 --     2 C    0.971
    51   1 H    0.998 --     3 C    0.971
    52   1 H    0.998 --     4 C    0.971
    53   1 H    0.997 --     5 C    0.964
    54   1 H    0.997 --     7 C    0.950
    55   1 H    0.994 --     8 C    0.954
    56   1 H    0.997 --    10 C    0.967
    57   1 H    0.998 --    11 C    0.970
    58   1 H    0.998 --    12 C    0.971
    59   1 H    0.998 --    13 C    0.971
    60   1 H    0.999 --    14 C    0.964
    61   1 H    0.998 --    20 C    0.968
    62   1 H    0.998 --    21 C    0.971
    63   1 H    0.999 --    22 C    0.972
    64   1 H    0.998 --    23 C    0.971
    65   1 H    0.998 --    24 C    0.964
    66   1 H    0.993 --    27 C    0.963
    67   1 H    0.995 --    27 C    0.973
    68   1 H    0.996 --    27 C    0.983
    69   1 H    0.998 --    28 C    0.975
    70   1 H    0.996 --    30 C    0.941
    71   1 H    0.883 --    32 O    0.856
    72   1 H    0.998 --    39 C    0.969
    73   1 H    0.998 --    40 C    0.970
    74   1 H    0.998 --    41 C    0.971
    75   1 H    0.998 --    42 C    0.970
    76   1 H    0.999 --    43 C    0.966
    77   1 H    0.995 --    46 C    0.967
    78   1 H    0.994 --    46 C    0.969
    79   1 H    0.996 --    46 C    0.983
    80   1 H    0.997 --    47 C    0.974
 ---------------------------------------------------------------------------

molecular dipole:
                 x           y           z       tot (Debye)
 q only:       -1.413      -0.752      -0.512
   full:       -1.528      -0.635      -0.409       4.332

           -------------------------------------------------
          | TOTAL ENERGY             -132.281984163635 Eh   |
          | GRADIENT NORM               0.000418849083 Eh/Î± |
          | HOMO-LUMO GAP               2.840619238955 eV   |
           -------------------------------------------------

 * finished run on 2022/03/17 at 00:07:33.982
