   * xtb version 6.3.3 (4ae9cef) compiled by 'conda@95abc7406d43' on 2020-10-14
          program call               : xtb acid_363.xyz --opt --chrg 0 --uhf 0 --gfn 2
          number of atoms            :                    72
          number of electrons        :                   278
          charge                     :                     0
          spin                       :                   0.0

   ID    Z sym.   atoms
    1    6 C      1, 2, 6-15, 19-22, 24-27, 32-34, 36, 37, 41-44, 49-51
    2    9 F      3-5, 16-18, 28-30, 45-47
    3    7 N      23, 40
    4    8 O      31, 35, 38, 39, 48, 52
    5    1 H      53-72

          :  Hamiltonian                  GFN2-xTB          :
 * total energy  :  -165.8478908 Eh     change       -0.1930914E-08 Eh
 * total energy  :  -165.8646942 Eh     change       -0.1680344E-01 Eh
 * total energy  :  -165.8696506 Eh     change       -0.4956369E-02 Eh
 * total energy  :  -165.8707045 Eh     change       -0.1053872E-02 Eh
 * total energy  :  -165.8714325 Eh     change       -0.7280238E-03 Eh
 * total energy  :  -165.8718161 Eh     change       -0.3836350E-03 Eh
 * total energy  :  -165.8721212 Eh     change       -0.3050726E-03 Eh
 * total energy  :  -165.8724295 Eh     change       -0.3082711E-03 Eh
 * total energy  :  -165.8727413 Eh     change       -0.3118150E-03 Eh
 * total energy  :  -165.8730156 Eh     change       -0.2742635E-03 Eh
 * total energy  :  -165.8753065 Eh     change       -0.2075648E-04 Eh
 * total energy  :  -165.8753324 Eh     change       -0.2582873E-04 Eh
 * total energy  :  -165.8753456 Eh     change       -0.1319195E-04 Eh
 * total energy  :  -165.8753627 Eh     change       -0.1711970E-04 Eh
 * total energy  :  -165.8753700 Eh     change       -0.7361437E-05 Eh
 * total energy  :  -165.8753782 Eh     change       -0.8135607E-05 Eh
 * total energy  :  -165.8753845 Eh     change       -0.6301300E-05 Eh
 * total energy  :  -165.8753916 Eh     change       -0.7110943E-05 Eh
 * total energy  :  -165.8753966 Eh     change       -0.4984780E-05 Eh
   *** GEOMETRY OPTIMIZATION CONVERGED AFTER 48 ITERATIONS ***

 final structure:
================
72
 xtb: 6.3.3 (4ae9cef)
C         1.24731435296825   -2.89426526166995    1.87995854613326
C         0.94284891664669   -1.74608715083396    2.80379070828849
F        -0.11304058244295   -0.98306755688211    2.46276668862372
F         1.97486209683944   -0.88293108163679    2.92325131716440
F         0.67999386609712   -2.15424126783558    4.05503763812794
C         1.72974092576694   -4.04611112327254    2.49661685380015
C         2.07449975098110   -5.15695469798200    1.75355468115402
C         1.94796950565144   -5.12073522122174    0.37699083290658
C         1.48760417317528   -3.97422998829723   -0.23896305306211
C         1.13382646234198   -2.84204069205165    0.48766803032880
C         0.61298138749725   -1.66911204238586   -0.30371801707118
C        -0.92057414697159   -1.51822047116173   -0.23426819877584
C        -1.62633383369676   -2.09432222738098   -1.43743121468504
C        -2.43743161671641   -3.22876078209555   -1.35741771743135
C        -2.62709512358121   -3.96696168473043   -0.06029045982166
F        -3.36956653190580   -5.07335911044998   -0.19305719259439
F        -3.21331903806701   -3.24139298996577    0.90361691023448
F        -1.45004915580477   -4.38776477061338    0.46724794928220
C        -3.08560427540250   -3.70943604530196   -2.48908369691329
C        -2.93236760415625   -3.07001090078025   -3.70502091153522
C        -2.12073293560062   -1.95323088836738   -3.79528404493220
C        -1.47206690207268   -1.47486586008320   -2.67200240655510
N        -1.11262256312325   -0.07511718711135   -0.13146476062453
C        -2.36182310348534    0.45091225383149   -0.08933775121649
C        -2.39902982286923    1.91276741175702    0.20544262453929
C        -2.59148487979350    2.95185498725061   -0.66271529374918
C        -2.67700975137200    2.97495790965150   -2.14881446410008
F        -1.69050777673755    3.72506033284216   -2.69213746892165
F        -3.82376043258872    3.48386812842844   -2.61100359217137
F        -2.54245057022965    1.75103137601943   -2.66789984160821
O        -2.63424819385725    4.12682769369667    0.00064350545188
C        -2.48731441693316    3.85341641581295    1.30974031297451
C        -2.51637802959477    4.97877507078153    2.27554026744821
C        -2.33655211409636    2.50840649963994    1.49338602974153
O        -3.35995087380925   -0.20897382601920   -0.24984784290260
C         0.12144824990977    0.65364650284054    0.02935516516490
C         0.39748558586798    1.51386936235785   -1.22814794833790
O         0.44291747261326    2.81135311781675   -0.94607828305978
O         0.55205658870844    1.05091227663757   -2.32030258860009
N         1.11926464451444   -0.38047091308460    0.14925518683173
C         2.46366894649059   -0.16729783862603    0.21135014748604
C         2.84006066048454    1.24851775958873    0.48456766160136
C         3.43738611474356    2.12488947219592   -0.38104731705949
C         3.75228887148286    2.01985097116805   -1.83387297582189
F         3.51341943242086    0.80272313685235   -2.31680772736792
F         5.02261566082455    2.32716454521726   -2.11893432426624
F         2.99249234452957    2.87843696785661   -2.55640988366816
O         3.67011433401207    3.30858217079149    0.22395591392620
C         3.24682652003183    3.19890249646529    1.49638456298738
C         3.40655267836663    4.36665762820325    2.39680088546209
C         2.72340931254726    1.95618772362122    1.71057893679425
O         3.27078777687615   -1.05710745991894    0.09345873147273
H         1.82935111898723   -4.06961792306249    3.57076131329674
H         2.44152000408430   -6.04113272186432    2.25017022860774
H         2.21320395670028   -5.98046848472740   -0.21824292651421
H         1.40047893257195   -3.94710578191751   -1.31431763634157
H         0.91898483765640   -1.80879605833942   -1.34992359381576
H        -1.31149842704567   -1.96743709530180    0.68276481232898
H        -3.71471122663585   -4.58249229591664   -2.41276899459876
H        -3.44761185411522   -3.44522135084735   -4.57534379514185
H        -1.99268918784447   -1.44632116718833   -4.73877509804534
H        -0.84631945289317   -0.60047454933826   -2.75517795233709
H        -3.49424712796882    5.45783507286611    2.26348999033545
H        -2.31262352559020    4.61082172794453    3.27576136733198
H        -1.77467850187947    5.72768717017390    2.00408664307976
H        -2.21244044689021    1.98744752081238    2.41984824038820
H         0.10435268401803    1.30706159714434    0.91369031606561
H         0.61247988965523    3.33941140993160   -1.74892477226201
H         2.98106152057743    4.14220330002775    3.36927516514028
H         4.46190138929116    4.60754269960772    2.51429514348123
H         2.91050603065219    5.23870874352952    1.97422570493460
H         2.32985802919643    1.56784701488524    2.62550873298731

          :  Hamiltonian                  GFN2-xTB          :
         :: total energy            -165.875396578402 Eh    ::
         :: gradient norm              0.000398788123 Eh/a0 ::
         :: HOMO-LUMO gap              3.551910235523 eV    ::
         :: SCC energy              -167.437188910670 Eh    ::
         :: -> dispersion             -0.106469181962 Eh    ::
         :: repulsion energy           1.557286329909 Eh    ::

    * Orbital Energies and Occupations

         #    Occupation            Energy/Eh            Energy/eV
      -------------------------------------------------------------
         1        2.0000           -0.8960897             -24.3838
       ...           ...                  ...                  ...
       127        2.0000           -0.4584408             -12.4748
       128        2.0000           -0.4570310             -12.4364
       129        2.0000           -0.4489642             -12.2169
       130        2.0000           -0.4427463             -12.0477
       131        2.0000           -0.4397897             -11.9673
       132        2.0000           -0.4392272             -11.9520
       133        2.0000           -0.4363882             -11.8747
       134        2.0000           -0.4334479             -11.7947
       135        2.0000           -0.4323466             -11.7648
       136        2.0000           -0.4308871             -11.7250
       137        2.0000           -0.4240220             -11.5382
       138        2.0000           -0.4207092             -11.4481
       139        2.0000           -0.4166097             -11.3365 (HOMO)
       140                         -0.2860794              -7.7846 (LUMO)
       141                         -0.2697942              -7.3415
       142                         -0.2693353              -7.3290
       143                         -0.2678057              -7.2874
       144                         -0.2634739              -7.1695
       145                         -0.2573664              -7.0033
       146                         -0.2524987              -6.8708
       147                         -0.2460126              -6.6943
       148                         -0.2414074              -6.5690
       149                         -0.2098467              -5.7102
       150                         -0.2062453              -5.6122
       ...                                ...                  ...
       228                          0.6529956              17.7689
      -------------------------------------------------------------
                  HL-Gap            0.1305303 Eh            3.5519 eV

     #   Z          covCN         q      C6AA      Î±(0)
     1   6 C        2.974    -0.025    28.614     8.774
     2   6 C        3.337     0.487    17.254     6.575
     3   9 F        0.792    -0.218    11.417     3.991
     4   9 F        0.792    -0.215    11.392     3.987
     5   9 F        0.793    -0.203    11.268     3.965
     6   6 C        2.928    -0.019    28.487     8.753
     7   6 C        2.919    -0.019    28.483     8.752
     8   6 C        2.919    -0.013    28.331     8.728
     9   6 C        2.931    -0.021    28.531     8.760
    10   6 C        2.967     0.026    27.431     8.591
    11   6 C        3.828     0.045    19.807     6.333
    12   6 C        3.819     0.044    19.822     6.336
    13   6 C        2.971     0.019    27.592     8.616
    14   6 C        2.975    -0.027    28.662     8.782
    15   6 C        3.335     0.484    17.317     6.592
    16   9 F        0.792    -0.200    11.236     3.960
    17   9 F        0.791    -0.200    11.236     3.960
    18   9 F        0.791    -0.227    11.520     4.009
    19   6 C        2.923    -0.022    28.551     8.763
    20   6 C        2.919    -0.022    28.549     8.762
    21   6 C        2.919    -0.015    28.396     8.739
    22   6 C        2.925    -0.030    28.748     8.793
    23   7 N        2.768    -0.100    23.197     7.153
    24   6 C        2.758     0.276    22.334     7.739
    25   6 C        3.061    -0.040    28.923     8.819
    26   6 C        3.120     0.070    26.275     8.395
    27   6 C        3.330     0.489    17.332     6.606
    28   9 F        0.791    -0.208    11.320     3.974
    29   9 F        0.791    -0.187    11.098     3.935
    30   9 F        0.792    -0.196    11.198     3.953
    31   8 O        1.729    -0.165    16.794     5.533
    32   6 C        3.095     0.134    24.964     8.189
    33   6 C        3.753    -0.126    22.979     6.836
    34   6 C        3.024    -0.075    29.839     8.960
    35   8 O        0.859    -0.388    21.451     6.210
    36   6 C        3.751     0.083    19.253     6.258
    37   6 C        2.688     0.342    21.193     7.534
    38   8 O        1.659    -0.377    20.403     6.098
    39   8 O        0.856    -0.363    20.949     6.137
    40   7 N        2.765    -0.110    23.392     7.183
    41   6 C        2.759     0.278    22.288     7.731
    42   6 C        3.060    -0.040    28.942     8.822
    43   6 C        3.120     0.070    26.261     8.393
    44   6 C        3.330     0.489    17.328     6.606
    45   9 F        0.791    -0.187    11.106     3.937
    46   9 F        0.791    -0.188    11.110     3.937
    47   9 F        0.791    -0.210    11.340     3.978
    48   8 O        1.729    -0.167    16.816     5.537
    49   6 C        3.095     0.134    24.974     8.190
    50   6 C        3.753    -0.126    22.977     6.835
    51   6 C        3.023    -0.076    29.870     8.965
    52   8 O        0.859    -0.388    21.439     6.208
    53   1 H        0.926     0.069     2.101     2.267
    54   1 H        0.926     0.062     2.179     2.308
    55   1 H        0.926     0.062     2.171     2.304
    56   1 H        0.926     0.057     2.239     2.340
    57   1 H        0.923     0.076     2.024     2.225
    58   1 H        0.924     0.078     1.997     2.210
    59   1 H        0.926     0.068     2.108     2.271
    60   1 H        0.926     0.059     2.212     2.326
    61   1 H        0.926     0.063     2.159     2.298
    62   1 H        0.926     0.078     1.998     2.210
    63   1 H        0.925     0.083     1.947     2.182
    64   1 H        0.925     0.072     2.061     2.245
    65   1 H        0.925     0.079     1.994     2.208
    66   1 H        0.927     0.068     2.108     2.270
    67   1 H        0.923     0.079     1.986     2.204
    68   1 H        0.804     0.364     0.556     1.172
    69   1 H        0.925     0.072     2.063     2.246
    70   1 H        0.925     0.083     1.949     2.183
    71   1 H        0.925     0.078     1.998     2.210
    72   1 H        0.927     0.074     2.046     2.237

Wiberg/Mayer (AO) data.
largest (>0.10) Wiberg bond orders for each atom

     #   Z sym  total        # sym  WBO       # sym  WBO       # sym  WBO
 ---------------------------------------------------------------------------
     1   6 C    3.968 --     6 C    1.407    10 C    1.387     2 C    0.953
                             8 C    0.106
     2   6 C    3.818 --     1 C    0.953     5 F    0.952     3 F    0.938
                             4 F    0.934
     3   9 F    1.063 --     2 C    0.938
     4   9 F    1.065 --     2 C    0.934
     5   9 F    1.075 --     2 C    0.952
     6   6 C    3.987 --     7 C    1.446     1 C    1.407    53 H    0.966
                             9 C    0.109
     7   6 C    3.988 --     6 C    1.446     8 C    1.431    54 H    0.968
                            10 C    0.108
     8   6 C    3.989 --     9 C    1.449     7 C    1.431    55 H    0.968
                             1 C    0.106
     9   6 C    3.988 --     8 C    1.449    10 C    1.407    56 H    0.966
                             6 C    0.109
    10   6 C    3.986 --     9 C    1.407     1 C    1.387    11 C    0.995
                             7 C    0.108
    11   6 C    3.962 --    10 C    0.995    40 N    0.956    12 C    0.953
                            57 H    0.948
    12   6 C    3.961 --    13 C    0.991    11 C    0.953    23 N    0.952
                            58 H    0.951
    13   6 C    3.986 --    22 C    1.414    14 C    1.383    12 C    0.991
                            20 C    0.108
    14   6 C    3.969 --    19 C    1.415    13 C    1.383    15 C    0.951
                            21 C    0.106
    15   6 C    3.820 --    16 F    0.956    14 C    0.951    17 F    0.950
                            18 F    0.924
    16   9 F    1.079 --    15 C    0.956
    17   9 F    1.082 --    15 C    0.950
    18   9 F    1.051 --    15 C    0.924
    19   6 C    3.987 --    20 C    1.441    14 C    1.415    59 H    0.965
                            22 C    0.109
    20   6 C    3.988 --    19 C    1.441    21 C    1.436    60 H    0.968
                            13 C    0.108
    21   6 C    3.989 --    22 C    1.443    20 C    1.436    61 H    0.968
                            14 C    0.106
    22   6 C    3.986 --    21 C    1.443    13 C    1.414    62 H    0.956
                            19 C    0.109
    23   7 N    3.473 --    24 C    1.209    36 C    0.986    12 C    0.952
                            35 O    0.198
    24   6 C    3.955 --    35 O    1.712    23 N    1.209    25 C    0.958
    25   6 C    3.979 --    26 C    1.535    34 C    1.266    24 C    0.958
    26   6 C    3.895 --    25 C    1.535    31 O    1.112    27 C    0.960
                            32 C    0.134
    27   6 C    3.845 --    26 C    0.960    29 F    0.958    30 F    0.958
                            28 F    0.932
    28   9 F    1.066 --    27 C    0.932
    29   9 F    1.091 --    27 C    0.958
    30   9 F    1.082 --    27 C    0.958
    31   8 O    2.451 --    32 C    1.127    26 C    1.112
    32   6 C    3.907 --    34 C    1.562    31 O    1.127    33 C    1.034
                            26 C    0.134
    33   6 C    3.987 --    32 C    1.034    64 H    0.981    65 H    0.965
                            63 H    0.961
    34   6 C    3.975 --    32 C    1.562    25 C    1.266    66 H    0.972
    35   8 O    2.055 --    24 C    1.712    23 N    0.198
    36   6 C    3.968 --    40 N    0.986    23 N    0.986    67 H    0.944
                            37 C    0.901
    37   6 C    3.923 --    39 O    1.791    38 O    1.158    36 C    0.901
    38   8 O    2.212 --    37 C    1.158    68 H    0.838    39 O    0.186
    39   8 O    2.087 --    37 C    1.791    38 O    0.186
    40   7 N    3.454 --    41 C    1.193    36 C    0.986    11 C    0.956
                            52 O    0.192
    41   6 C    3.953 --    52 O    1.720    40 N    1.193    42 C    0.963
    42   6 C    3.979 --    43 C    1.531    51 C    1.266    41 C    0.963
    43   6 C    3.896 --    42 C    1.531    48 O    1.113    44 C    0.959
                            49 C    0.134
    44   6 C    3.848 --    45 F    0.967    43 C    0.959    46 F    0.957
                            47 F    0.928
    45   9 F    1.092 --    44 C    0.967
    46   9 F    1.089 --    44 C    0.957
    47   9 F    1.064 --    44 C    0.928
    48   8 O    2.450 --    49 C    1.126    43 C    1.113
    49   6 C    3.907 --    51 C    1.564    48 O    1.126    50 C    1.034
                            43 C    0.134
    50   6 C    3.987 --    49 C    1.034    69 H    0.981    71 H    0.965
                            70 H    0.962
    51   6 C    3.974 --    49 C    1.564    42 C    1.266    72 H    0.970
    52   8 O    2.055 --    41 C    1.720    40 N    0.192
    53   1 H    0.995 --     6 C    0.966
    54   1 H    0.995 --     7 C    0.968
    55   1 H    0.995 --     8 C    0.968
    56   1 H    0.996 --     9 C    0.966
    57   1 H    0.994 --    11 C    0.948
    58   1 H    0.993 --    12 C    0.951
    59   1 H    0.995 --    19 C    0.965
    60   1 H    0.996 --    20 C    0.968
    61   1 H    0.995 --    21 C    0.968
    62   1 H    0.994 --    22 C    0.956
    63   1 H    0.993 --    33 C    0.961
    64   1 H    0.994 --    33 C    0.981
    65   1 H    0.993 --    33 C    0.965
    66   1 H    0.995 --    34 C    0.972
    67   1 H    0.993 --    36 C    0.944
    68   1 H    0.867 --    38 O    0.838
    69   1 H    0.994 --    50 C    0.981
    70   1 H    0.993 --    50 C    0.962
    71   1 H    0.993 --    50 C    0.965
    72   1 H    0.994 --    51 C    0.970
 ---------------------------------------------------------------------------

molecular dipole:
                 x           y           z       tot (Debye)
 q only:        0.369       1.021       1.504
   full:        0.403       1.505       1.488       5.475

           -------------------------------------------------
          | TOTAL ENERGY             -165.875396578402 Eh   |
          | GRADIENT NORM               0.000398788123 Eh/Î± |
          | HOMO-LUMO GAP               3.551910235523 eV   |
           -------------------------------------------------

 * finished run on 2022/03/17 at 00:17:33.728
