   * xtb version 6.3.3 (4ae9cef) compiled by 'conda@95abc7406d43' on 2020-10-14
          program call               : xtb acid_76.xyz --opt --chrg 0 --uhf 0 --gfn 2
          number of atoms            :                    68
          number of electrons        :                   206
          charge                     :                     0
          spin                       :                   0.0

   ID    Z sym.   atoms
    1    6 C      1, 3-16, 18, 20-23, 25, 26, 28, 29, 33-36, 38, 39
    2    8 O      2, 17, 24, 27, 30, 31, 37, 40
    3    7 N      19, 32
    4    1 H      41-68

          :  Hamiltonian                  GFN2-xTB          :
 * total energy  :  -116.9328865 Eh     change       -0.2135323E-08 Eh
 * total energy  :  -116.9462047 Eh     change       -0.1331821E-01 Eh
 * total energy  :  -116.9508496 Eh     change       -0.4644849E-02 Eh
 * total energy  :  -116.9525814 Eh     change       -0.1731787E-02 Eh
 * total energy  :  -116.9537011 Eh     change       -0.1119773E-02 Eh
 * total energy  :  -116.9543301 Eh     change       -0.6289332E-03 Eh
 * total energy  :  -116.9547971 Eh     change       -0.4670048E-03 Eh
 * total energy  :  -116.9552127 Eh     change       -0.4156316E-03 Eh
 * total energy  :  -116.9555480 Eh     change       -0.3352902E-03 Eh
 * total energy  :  -116.9557436 Eh     change       -0.1956121E-03 Eh
 * total energy  :  -116.9610961 Eh     change       -0.1877590E-04 Eh
 * total energy  :  -116.9611138 Eh     change       -0.1774981E-04 Eh
 * total energy  :  -116.9611283 Eh     change       -0.1442403E-04 Eh
 * total energy  :  -116.9611373 Eh     change       -0.9029125E-05 Eh
 * total energy  :  -116.9611452 Eh     change       -0.7921583E-05 Eh
 * total energy  :  -116.9611526 Eh     change       -0.7416181E-05 Eh
 * total energy  :  -116.9611581 Eh     change       -0.5432137E-05 Eh
 * total energy  :  -116.9611632 Eh     change       -0.5095939E-05 Eh
 * total energy  :  -116.9611666 Eh     change       -0.3403591E-05 Eh
   *** GEOMETRY OPTIMIZATION CONVERGED AFTER 118 ITERATIONS ***

 final structure:
================
68
 xtb: 6.3.3 (4ae9cef)
C         0.12448396397298   -2.80409994700037   -0.23947535115458
O        -1.21236032148584   -2.78780005969451   -0.50098058629858
C        -1.92177173899551   -4.00123363842360   -0.47691475805684
C         0.86838160994885   -3.95493316464928   -0.01073446605281
C         2.22566827975100   -3.86821838493898    0.24948906333557
C         2.85487842892909   -2.63911135646117    0.29350632453536
C         2.11767104213841   -1.48965397943721    0.06830940386187
C         0.76480186393211   -1.55738466323519   -0.21392206313628
C        -0.05166388311865   -0.31072723669810   -0.41893154949681
C        -0.38510730360570    0.33865291310084    0.94320384549208
C        -1.77509680670439   -0.03421913328858    1.38204730455096
C        -2.88666102453755    0.59663764372626    0.85296737582640
C        -4.16174528234716    0.22377011249315    1.24246336908410
C        -4.32198679830336   -0.79615832866704    2.16010446855200
C        -3.22032072573160   -1.45483838846652    2.68091898886618
C        -1.93884030987757   -1.08608095346163    2.29297163356699
O        -0.79484221438393   -1.69659823871742    2.72341305546481
C        -0.89881264428320   -2.72894486211126    3.67123300514995
N        -0.20834258965986    1.76246819275601    0.70823549816321
C        -0.57572424183336    2.69147775790680    1.62844401204053
C        -0.40427515052472    4.09588362142813    1.17244523016598
C         0.74063699883201    4.84304516454886    1.10620712985861
C         2.15346552667197    4.50366522396650    1.41945427547792
O         0.45211700693995    6.08695500440486    0.67524748062114
C        -0.87492754036724    6.14703362868845    0.46671668246379
C        -1.46085070375214    4.95841284912431    0.76181091530113
O        -1.02120503699425    2.39000666549411    2.71444980864622
C         0.40991780880413    2.03882669336052   -0.56085427199099
C        -0.52614385264661    2.84305317238268   -1.48537395123423
O         0.05712311403324    3.94150496521066   -1.93954162089249
O        -1.64041509334684    2.50132208841020   -1.77132253321035
N         0.64565438009277    0.73553296776614   -1.13983694280651
C         1.43189117887285    0.62081227009001   -2.24092290720392
C         1.50253537957100   -0.71768309663179   -2.85583544406190
C         2.65212916881285   -1.34321179927059   -3.26804780894167
C         4.07193429508048   -0.93138535251923   -3.14587420210972
O         2.35504972359700   -2.53285740969883   -3.82038926341505
C         1.01502271120219   -2.66805395192193   -3.79499926151992
C         0.43320855955950   -1.58980391241805   -3.21449419149729
O         2.04298491976147    1.58300599257079   -2.67452019507280
H        -2.96267782003405   -3.73329428310914   -0.65143283342150
H        -1.58420153204120   -4.68198862596088   -1.26528770460076
H        -1.83609445255861   -4.49769988625572    0.49470153289251
H         0.40050687544429   -4.92631592636859   -0.03435887010700
H         2.78897461009089   -4.77315776073010    0.42188737789761
H         3.91077128062216   -2.57356906588137    0.50663321294538
H         2.60021408760373   -0.52375958584110    0.09922563513388
H        -0.98884255948589   -0.56286655432741   -0.92823812626259
H         0.32597475662310    0.00817723444406    1.71084250291797
H        -2.75085886544104    1.38587834477591    0.12832614808103
H        -5.02239299559589    0.72770199225593    0.83035238410988
H        -5.31129973070074   -1.09271871701407    2.47663453083825
H        -3.37419338310071   -2.25265003064731    3.39065040632033
H        -1.34950664143158   -2.37647878200674    4.60437491589250
H         0.12307660417972   -3.05330770252994    3.86299455910617
H        -1.47755437797102   -3.57535140829332    3.28539168777271
H         2.19418780209615    3.55908349914181    1.95450155385878
H         2.74132583423181    4.42706599662056    0.50387654264753
H         2.59622185392461    5.28381926315014    2.03581938109423
H        -1.27551844456656    7.07876397167899    0.12062157182157
H        -2.49856779578918    4.70393257553037    0.70022243234958
H         1.35656980427136    2.59279259143233   -0.47517350281542
H        -0.51395600535894    4.41533933522874   -2.56634095262596
H         4.61735903261123   -1.19910609258540   -4.04798918619066
H         4.54269015037042   -1.43314725097631   -2.29995547442275
H         4.11730515343270    0.14329529084185   -2.99631858348248
H         0.60610935982758   -3.56159831998919   -4.22244184955629
H        -0.61408429925727   -1.41791017230417   -3.08018579506105

          :  Hamiltonian                  GFN2-xTB          :
         :: total energy            -116.961166567367 Eh    ::
         :: gradient norm              0.000354945631 Eh/a0 ::
         :: HOMO-LUMO gap              3.209197777447 eV    ::
         :: SCC energy              -118.505921107136 Eh    ::
         :: -> dispersion             -0.097259415971 Eh    ::
         :: repulsion energy           1.541146963602 Eh    ::

    * Orbital Energies and Occupations

         #    Occupation            Energy/Eh            Energy/eV
      -------------------------------------------------------------
         1        2.0000           -0.7610945             -20.7104
       ...           ...                  ...                  ...
        91        2.0000           -0.4307623             -11.7216
        92        2.0000           -0.4250947             -11.5674
        93        2.0000           -0.4197285             -11.4214
        94        2.0000           -0.4116322             -11.2011
        95        2.0000           -0.4039388             -10.9917
        96        2.0000           -0.3989456             -10.8559
        97        2.0000           -0.3962742             -10.7832
        98        2.0000           -0.3917469             -10.6600
        99        2.0000           -0.3892799             -10.5928
       100        2.0000           -0.3880149             -10.5584
       101        2.0000           -0.3866985             -10.5226
       102        2.0000           -0.3843903             -10.4598
       103        2.0000           -0.3738980             -10.1743 (HOMO)
       104                         -0.2559622              -6.9651 (LUMO)
       105                         -0.2371323              -6.4527
       106                         -0.2341334              -6.3711
       107                         -0.2240271              -6.0961
       108                         -0.2202214              -5.9925
       109                         -0.2166339              -5.8949
       110                         -0.2092150              -5.6930
       111                         -0.2071409              -5.6366
       112                         -0.2053242              -5.5872
       113                         -0.1626604              -4.4262
       114                         -0.1471415              -4.0039
       ...                                ...                  ...
       188                          0.6942752              18.8922
      -------------------------------------------------------------
                  HL-Gap            0.1179358 Eh            3.2092 eV

     #   Z          covCN         q      C6AA      Î±(0)
     1   6 C        2.868     0.142    24.897     8.179
     2   8 O        1.705    -0.272    18.512     5.809
     3   6 C        3.644     0.039    20.260     6.470
     4   6 C        2.918    -0.065    29.629     8.926
     5   6 C        2.921    -0.032    28.792     8.799
     6   6 C        2.918    -0.041    29.015     8.833
     7   6 C        2.924    -0.034    28.859     8.810
     8   6 C        2.974    -0.015    28.387     8.739
     9   6 C        3.821     0.039    19.901     6.349
    10   6 C        3.825     0.049    19.728     6.320
    11   6 C        2.975    -0.006    28.162     8.705
    12   6 C        2.923    -0.030    28.739     8.791
    13   6 C        2.918    -0.038    28.949     8.823
    14   6 C        2.921    -0.032    28.795     8.800
    15   6 C        2.918    -0.065    29.614     8.924
    16   6 C        2.868     0.144    24.873     8.175
    17   8 O        1.705    -0.278    18.606     5.824
    18   6 C        3.643     0.042    20.215     6.463
    19   7 N        2.764    -0.113    23.467     7.195
    20   6 C        2.757     0.274    22.373     7.746
    21   6 C        3.078    -0.067    29.572     8.916
    22   6 C        3.098     0.115    25.360     8.253
    23   6 C        3.753    -0.118    22.810     6.811
    24   8 O        1.731    -0.179    17.001     5.567
    25   6 C        3.057     0.062    26.551     8.450
    26   6 C        3.007    -0.061    29.506     8.910
    27   8 O        0.859    -0.417    22.027     6.292
    28   6 C        3.763     0.090    19.132     6.235
    29   6 C        2.689     0.358    20.926     7.486
    30   8 O        1.660    -0.351    19.917     6.025
    31   8 O        0.856    -0.390    21.479     6.214
    32   7 N        2.765    -0.106    23.321     7.172
    33   6 C        2.761     0.270    22.444     7.758
    34   6 C        3.077    -0.060    29.401     8.890
    35   6 C        3.099     0.127    25.106     8.211
    36   6 C        3.753    -0.121    22.876     6.820
    37   8 O        1.730    -0.182    17.046     5.575
    38   6 C        3.060     0.063    26.534     8.447
    39   6 C        3.005    -0.064    29.573     8.921
    40   8 O        0.860    -0.450    22.707     6.389
    41   1 H        0.925     0.065     2.141     2.288
    42   1 H        0.924     0.042     2.416     2.431
    43   1 H        0.924     0.041     2.437     2.441
    44   1 H        0.926     0.040     2.446     2.446
    45   1 H        0.926     0.040     2.452     2.448
    46   1 H        0.926     0.038     2.475     2.460
    47   1 H        0.926     0.040     2.452     2.449
    48   1 H        0.924     0.074     2.046     2.237
    49   1 H        0.924     0.070     2.084     2.258
    50   1 H        0.926     0.055     2.256     2.349
    51   1 H        0.926     0.039     2.463     2.454
    52   1 H        0.926     0.036     2.503     2.474
    53   1 H        0.926     0.036     2.502     2.474
    54   1 H        0.924     0.045     2.379     2.412
    55   1 H        0.925     0.059     2.208     2.324
    56   1 H        0.924     0.035     2.520     2.483
    57   1 H        0.925     0.055     2.257     2.350
    58   1 H        0.924     0.066     2.134     2.284
    59   1 H        0.925     0.070     2.091     2.261
    60   1 H        0.926     0.052     2.294     2.369
    61   1 H        0.927     0.047     2.363     2.404
    62   1 H        0.923     0.081     1.968     2.194
    63   1 H        0.804     0.343     0.605     1.222
    64   1 H        0.925     0.068     2.105     2.269
    65   1 H        0.924     0.062     2.180     2.309
    66   1 H        0.925     0.078     1.996     2.210
    67   1 H        0.926     0.050     2.315     2.379
    68   1 H        0.927     0.046     2.365     2.405

Wiberg/Mayer (AO) data.
largest (>0.10) Wiberg bond orders for each atom

     #   Z sym  total        # sym  WBO       # sym  WBO       # sym  WBO
 ---------------------------------------------------------------------------
     1   6 C    3.934 --     4 C    1.381     8 C    1.323     2 O    1.061
     2   8 O    2.233 --     1 C    1.061     3 C    0.983
     3   6 C    3.944 --     2 O    0.983    41 H    0.979    43 H    0.976
                            42 H    0.976
     4   6 C    3.987 --     5 C    1.435     1 C    1.381    44 H    0.965
                             7 C    0.101
     5   6 C    3.990 --     6 C    1.442     4 C    1.435    45 H    0.971
                             8 C    0.107
     6   6 C    3.991 --     5 C    1.442     7 C    1.426    46 H    0.971
     7   6 C    3.990 --     8 C    1.436     6 C    1.426    47 H    0.968
                             4 C    0.101
     8   6 C    3.983 --     7 C    1.436     1 C    1.323     9 C    0.993
                             5 C    0.107
     9   6 C    3.964 --     8 C    0.993    32 N    0.965    48 H    0.947
                            10 C    0.946
    10   6 C    3.962 --    11 C    0.992    19 N    0.958    49 H    0.949
                             9 C    0.946
    11   6 C    3.983 --    12 C    1.439    16 C    1.326    10 C    0.992
                            14 C    0.107
    12   6 C    3.988 --    11 C    1.439    13 C    1.425    50 H    0.964
                            15 C    0.103
    13   6 C    3.991 --    14 C    1.446    12 C    1.425    51 H    0.971
    14   6 C    3.990 --    13 C    1.446    15 C    1.432    52 H    0.971
                            11 C    0.107
    15   6 C    3.987 --    14 C    1.432    16 C    1.384    53 H    0.966
                            12 C    0.103
    16   6 C    3.932 --    15 C    1.384    11 C    1.326    17 O    1.052
    17   8 O    2.224 --    16 C    1.052    18 C    0.986
    18   6 C    3.947 --    17 O    0.986    55 H    0.980    54 H    0.976
                            56 H    0.976
    19   7 N    3.468 --    20 C    1.206    28 C    0.988    10 C    0.958
                            27 O    0.194
    20   6 C    3.948 --    27 O    1.695    19 N    1.206    21 C    0.967
    21   6 C    3.975 --    22 C    1.541    26 C    1.249    20 C    0.967
    22   6 C    3.915 --    21 C    1.541    24 O    1.126    23 C    1.030
                            25 C    0.139
    23   6 C    3.993 --    22 C    1.030    57 H    0.983    59 H    0.971
                            58 H    0.964
    24   8 O    2.446 --    25 C    1.128    22 C    1.126
    25   6 C    3.906 --    26 C    1.620    24 O    1.128    60 H    0.966
                            22 C    0.139
    26   6 C    3.982 --    25 C    1.620    21 C    1.249    61 H    0.974
    27   8 O    2.025 --    20 C    1.695    19 N    0.194
    28   6 C    3.966 --    19 N    0.988    32 N    0.979    62 H    0.942
                            29 C    0.907
    29   6 C    3.918 --    31 O    1.771    30 O    1.169    28 C    0.907
    30   8 O    2.236 --    29 C    1.169    63 H    0.856    31 O    0.185
    31   8 O    2.056 --    29 C    1.771    30 O    0.185
    32   7 N    3.473 --    33 C    1.209    28 C    0.979     9 C    0.965
                            40 O    0.185
    33   6 C    3.948 --    40 O    1.652    32 N    1.209    34 C    1.000
    34   6 C    3.975 --    35 C    1.521    39 C    1.241    33 C    1.000
    35   6 C    3.916 --    34 C    1.521    37 O    1.135    36 C    1.033
                            38 C    0.130
    36   6 C    3.991 --    35 C    1.033    66 H    0.977    64 H    0.973
                            65 H    0.962
    37   8 O    2.444 --    35 C    1.135    38 C    1.119
    38   6 C    3.905 --    39 C    1.632    37 O    1.119    67 H    0.966
                            35 C    0.130
    39   6 C    3.983 --    38 C    1.632    34 C    1.241    68 H    0.972
    40   8 O    1.986 --    33 C    1.652    32 N    0.185
    41   1 H    0.995 --     3 C    0.979
    42   1 H    0.998 --     3 C    0.976
    43   1 H    0.998 --     3 C    0.976
    44   1 H    0.998 --     4 C    0.965
    45   1 H    0.998 --     5 C    0.971
    46   1 H    0.998 --     6 C    0.971
    47   1 H    0.998 --     7 C    0.968
    48   1 H    0.994 --     9 C    0.947
    49   1 H    0.994 --    10 C    0.949
    50   1 H    0.996 --    12 C    0.964
    51   1 H    0.998 --    13 C    0.971
    52   1 H    0.998 --    14 C    0.971
    53   1 H    0.998 --    15 C    0.966
    54   1 H    0.998 --    18 C    0.976
    55   1 H    0.996 --    18 C    0.980
    56   1 H    0.999 --    18 C    0.976
    57   1 H    0.997 --    23 C    0.983
    58   1 H    0.996 --    23 C    0.964
    59   1 H    0.995 --    23 C    0.971
    60   1 H    0.996 --    25 C    0.966
    61   1 H    0.998 --    26 C    0.974
    62   1 H    0.993 --    28 C    0.942
    63   1 H    0.882 --    30 O    0.856
    64   1 H    0.995 --    36 C    0.973
    65   1 H    0.996 --    36 C    0.962
    66   1 H    0.994 --    36 C    0.977
    67   1 H    0.997 --    38 C    0.966
    68   1 H    0.998 --    39 C    0.972
 ---------------------------------------------------------------------------

molecular dipole:
                 x           y           z       tot (Debye)
 q only:        0.272      -1.679      -0.013
   full:        0.143      -1.825      -0.123       4.663

           -------------------------------------------------
          | TOTAL ENERGY             -116.961166567367 Eh   |
          | GRADIENT NORM               0.000354945631 Eh/Î± |
          | HOMO-LUMO GAP               3.209197777447 eV   |
           -------------------------------------------------

 * finished run on 2022/03/17 at 02:03:26.130
