   * xtb version 6.3.3 (4ae9cef) compiled by 'conda@95abc7406d43' on 2020-10-14
          program call               : xtb acid_132.xyz --opt --chrg 0 --uhf 0 --gfn 2
          number of atoms            :                    66
          number of electrons        :                   226
          charge                     :                     0
          spin                       :                   0.0

   ID    Z sym.   atoms
    1    8 O      1, 16, 17, 30
    2    6 C      2-8, 12, 14, 15, 19-23, 27-29, 31-44
    3    9 F      9-11, 24-26
    4    7 N      13, 18
    5    1 H      45-66

          :  Hamiltonian                  GFN2-xTB          :
 * total energy  :  -130.2594373 Eh     change       -0.1226738E-08 Eh
 * total energy  :  -130.2732283 Eh     change       -0.1379100E-01 Eh
 * total energy  :  -130.2774644 Eh     change       -0.4236075E-02 Eh
 * total energy  :  -130.2790106 Eh     change       -0.1546188E-02 Eh
 * total energy  :  -130.2800338 Eh     change       -0.1023245E-02 Eh
 * total energy  :  -130.2807256 Eh     change       -0.6917697E-03 Eh
 * total energy  :  -130.2813567 Eh     change       -0.6310876E-03 Eh
 * total energy  :  -130.2820081 Eh     change       -0.6514152E-03 Eh
 * total energy  :  -130.2825690 Eh     change       -0.5608867E-03 Eh
 * total energy  :  -130.2830631 Eh     change       -0.4941506E-03 Eh
 * total energy  :  -130.3021227 Eh     change       -0.6345259E-05 Eh
 * total energy  :  -130.3021311 Eh     change       -0.8402181E-05 Eh
 * total energy  :  -130.3021241 Eh     change        0.6979090E-05 Eh
 * total energy  :  -130.3021354 Eh     change       -0.1123504E-04 Eh
 * total energy  :  -130.3021429 Eh     change       -0.7526396E-05 Eh
 * total energy  :  -130.3021486 Eh     change       -0.5696310E-05 Eh
 * total energy  :  -130.3021619 Eh     change       -0.1328817E-04 Eh
 * total energy  :  -130.3021691 Eh     change       -0.7265945E-05 Eh
 * total energy  :  -130.3021737 Eh     change       -0.4561945E-05 Eh
   *** GEOMETRY OPTIMIZATION CONVERGED AFTER 132 ITERATIONS ***

 final structure:
================
66
 xtb: 6.3.3 (4ae9cef)
O         2.86498425031013   -1.30155987071220   -1.89402999258873
C         2.62483725231648   -0.37084230512386   -1.15867373008252
C         3.68076383266259    0.56645190349743   -0.64864096786328
C         4.06160709069982    0.52640985824980    0.68820392914289
C         5.06650631045166    1.35759027619512    1.15133625769714
C         5.69659504741060    2.23455814464434    0.28627258201088
C         5.32318725274203    2.26075961680267   -1.05126120394335
C         6.04110481397097    3.20476974572345   -1.97650337886417
F         7.34065672277413    2.87970655376127   -2.11225520666388
F         6.02175766136662    4.46897462102855   -1.52094795429067
F         5.52557718512567    3.23321081430852   -3.21040831745201
C         4.32407983472079    1.42610794689248   -1.52845177530013
N         1.36021433242470   -0.07349968300517   -0.74640759068153
C         0.94468903614637    1.09344557685061   -0.01414192956147
C         0.74418185858764    2.34495426173903   -0.92025265504135
O         1.12822376043525    2.20432315186125   -2.18869829428037
O         0.28297711838786    3.35795855942861   -0.49392416321025
N        -0.30762156702038    0.71278977032691    0.59475719311662
C        -0.52777895381394    1.00825153964182    1.91108950404875
C        -1.85360181222776    0.53837806291224    2.41548167350160
C        -3.01950442924131    0.97852826582900    1.80049851951499
C        -4.24271178798739    0.53093850516215    2.27200209161310
C        -5.52020108488242    0.94896654656165    1.59994937467093
F        -6.41579404239257    1.44908719658680    2.46815034644434
F        -5.34888167266708    1.87327087179965    0.64923983539987
F        -6.13106587643301   -0.09716838195667    1.00503255797872
C        -4.31658557384833   -0.33809938631946    3.35450790610101
C        -3.15193699353204   -0.74567531377467    3.97994247286728
C        -1.92319446566604   -0.30783496206586    3.51516311957219
O         0.27855511597422    1.60658765914866    2.58607746658869
C        -0.90640317426917   -0.42297769180950   -0.09379569368517
C        -2.16531203467914   -0.11509540987588   -0.86750463384870
C        -2.31765890979924    1.05639615962954   -1.59771333364839
C        -3.49173970373095    1.29897957084453   -2.28953340410551
C        -4.51825511656920    0.37092494102251   -2.26812943834391
C        -4.36842725794294   -0.80437171785699   -1.55162148409687
C        -3.19882956341558   -1.04436407940391   -0.85372115134771
C         0.22856137524210   -0.96210413973199   -1.00966394696088
C         0.56957865516683   -2.39226654031275   -0.67984117802289
C         0.30188108052228   -3.41120225933282   -1.58052688077886
C         0.60409735960699   -4.72224960830119   -1.25662181067044
C         1.17674227747587   -5.02235761840484   -0.03307199341875
C         1.44197486501510   -4.00805114182801    0.87184124979785
C         1.13527943939903   -2.69898766359449    0.55201026871169
H         3.57950038309790   -0.16549943631600    1.36313185940231
H         5.35842663820725    1.32324669101182    2.18898083225797
H         6.47606236513112    2.89246049798403    0.63835137847856
H         4.05556042219271    1.44446475802741   -2.57389683097634
H         1.64440461756932    1.39164834899604    0.78207123723988
H         1.44395849635296    1.30925922611128   -2.39410449769562
H        -2.97318074867463    1.67357658890259    0.97738137437306
H        -5.27940159899763   -0.67799967367769    3.70419425883317
H        -3.20284163349560   -1.40654654225885    4.83106257837600
H        -1.01115186094262   -0.62065715558838    4.00085918416102
H        -1.15190205534748   -1.18845522258125    0.65360106666497
H        -1.53504140143723    1.79835777890380   -1.60907936506449
H        -3.60283837865371    2.21955898350553   -2.84122354669726
H        -5.43524759495897    0.56553537546180   -2.80217243491588
H        -5.16744856650430   -1.52889471946366   -1.52289780825234
H        -3.08606985797675   -1.95769888871307   -0.28652837750250
H        -0.06879066643814   -0.89001335822043   -2.06423636713261
H        -0.13684805121055   -3.17672613464635   -2.53895707141395
H         0.39792484203765   -5.50984529797339   -1.96539310503158
H         1.41978484389082   -6.04434317231091    0.21546156261748
H         1.89005711675907   -4.23703552073372    1.82731744726424
H         1.34197218059883   -1.90800547350878    1.26086238491547

          :  Hamiltonian                  GFN2-xTB          :
         :: total energy            -130.302173701386 Eh    ::
         :: gradient norm              0.000599901513 Eh/a0 ::
         :: HOMO-LUMO gap              3.512720691268 eV    ::
         :: SCC energy              -131.918312944097 Eh    ::
         :: -> dispersion             -0.093988513133 Eh    ::
         :: repulsion energy           1.613109387466 Eh    ::

    * Orbital Energies and Occupations

         #    Occupation            Energy/Eh            Energy/eV
      -------------------------------------------------------------
         1        2.0000           -0.8856577             -24.1000
       ...           ...                  ...                  ...
       101        2.0000           -0.4551053             -12.3840
       102        2.0000           -0.4527965             -12.3212
       103        2.0000           -0.4523323             -12.3086
       104        2.0000           -0.4461594             -12.1406
       105        2.0000           -0.4441646             -12.0863
       106        2.0000           -0.4380963             -11.9212
       107        2.0000           -0.4332005             -11.7880
       108        2.0000           -0.4286777             -11.6649
       109        2.0000           -0.4280303             -11.6473
       110        2.0000           -0.4276140             -11.6360
       111        2.0000           -0.4261367             -11.5958
       112        2.0000           -0.4184333             -11.3861
       113        2.0000           -0.4167858             -11.3413 (HOMO)
       114                         -0.2876957              -7.8286 (LUMO)
       115                         -0.2855716              -7.7708
       116                         -0.2779781              -7.5642
       117                         -0.2777544              -7.5581
       118                         -0.2683848              -7.3031
       119                         -0.2545609              -6.9270
       120                         -0.2486296              -6.7656
       121                         -0.2460518              -6.6954
       122                         -0.2457247              -6.6865
       123                         -0.2446890              -6.6583
       124                         -0.2362655              -6.4291
       ...                                ...                  ...
       198                          0.6433677              17.5069
      -------------------------------------------------------------
                  HL-Gap            0.1290901 Eh            3.5127 eV

     #   Z          covCN         q      C6AA      Î±(0)
     1   8 O        0.859    -0.407    21.817     6.262
     2   6 C        2.759     0.266    22.513     7.770
     3   6 C        2.977    -0.015    28.382     8.739
     4   6 C        2.922    -0.020    28.508     8.756
     5   6 C        2.920    -0.018    28.449     8.747
     6   6 C        2.922    -0.017    28.431     8.744
     7   6 C        2.977    -0.017    28.423     8.745
     8   6 C        3.336     0.487    17.270     6.581
     9   9 F        0.791    -0.206    11.297     3.970
    10   9 F        0.791    -0.204    11.275     3.966
    11   9 F        0.791    -0.200    11.239     3.960
    12   6 C        2.922    -0.021    28.540     8.761
    13   7 N        2.759    -0.133    23.884     7.258
    14   6 C        3.762     0.073    19.411     6.280
    15   6 C        2.685     0.346    21.122     7.521
    16   8 O        1.659    -0.354    19.972     6.033
    17   8 O        0.856    -0.335    20.418     6.058
    18   7 N        2.760    -0.119    23.586     7.213
    19   6 C        2.767     0.275    22.347     7.742
    20   6 C        2.979    -0.005    28.135     8.701
    21   6 C        2.923    -0.022    28.547     8.762
    22   6 C        2.977    -0.020    28.507     8.758
    23   6 C        3.336     0.485    17.288     6.584
    24   9 F        0.791    -0.203    11.267     3.965
    25   9 F        0.791    -0.202    11.252     3.962
    26   9 F        0.791    -0.211    11.346     3.979
    27   6 C        2.922    -0.019    28.478     8.751
    28   6 C        2.920    -0.021    28.525     8.758
    29   6 C        2.922    -0.016    28.402     8.739
    30   8 O        0.858    -0.402    21.713     6.247
    31   6 C        3.818     0.035    19.969     6.360
    32   6 C        2.971    -0.009    28.227     8.715
    33   6 C        2.922    -0.034    28.854     8.809
    34   6 C        2.920    -0.023    28.582     8.767
    35   6 C        2.920    -0.023    28.580     8.767
    36   6 C        2.919    -0.024    28.604     8.770
    37   6 C        2.925    -0.038    28.948     8.823
    38   6 C        3.819     0.046    19.785     6.330
    39   6 C        2.975     0.008    27.833     8.654
    40   6 C        2.923    -0.027    28.679     8.782
    41   6 C        2.920    -0.023    28.575     8.766
    42   6 C        2.921    -0.026    28.649     8.777
    43   6 C        2.920    -0.026    28.657     8.779
    44   6 C        2.924    -0.032    28.786     8.799
    45   1 H        0.926     0.055     2.264     2.353
    46   1 H        0.926     0.066     2.126     2.280
    47   1 H        0.926     0.069     2.093     2.262
    48   1 H        0.926     0.069     2.098     2.265
    49   1 H        0.923     0.095     1.828     2.114
    50   1 H        0.804     0.332     0.633     1.250
    51   1 H        0.926     0.070     2.088     2.260
    52   1 H        0.926     0.066     2.131     2.283
    53   1 H        0.926     0.063     2.168     2.303
    54   1 H        0.926     0.063     2.163     2.300
    55   1 H        0.924     0.049     2.335     2.390
    56   1 H        0.926     0.039     2.462     2.454
    57   1 H        0.926     0.050     2.320     2.382
    58   1 H        0.926     0.048     2.341     2.393
    59   1 H        0.926     0.048     2.345     2.395
    60   1 H        0.926     0.027     2.623     2.533
    61   1 H        0.923     0.051     2.307     2.375
    62   1 H        0.926     0.039     2.457     2.451
    63   1 H        0.926     0.044     2.392     2.419
    64   1 H        0.926     0.042     2.419     2.432
    65   1 H        0.926     0.039     2.461     2.453
    66   1 H        0.925     0.023     2.691     2.565

Wiberg/Mayer (AO) data.
largest (>0.10) Wiberg bond orders for each atom

     #   Z sym  total        # sym  WBO       # sym  WBO       # sym  WBO
 ---------------------------------------------------------------------------
     1   8 O    2.037 --     2 C    1.705    13 N    0.196
     2   6 C    3.950 --     1 O    1.705    13 N    1.196     3 C    0.954
     3   6 C    3.987 --    12 C    1.411     4 C    1.403     2 C    0.954
                             6 C    0.110
     4   6 C    3.990 --     5 C    1.442     3 C    1.403    45 H    0.967
                             7 C    0.107
     5   6 C    3.989 --     4 C    1.442     6 C    1.440    46 H    0.967
                            12 C    0.110
     6   6 C    3.987 --     5 C    1.440     7 C    1.413    47 H    0.966
                             3 C    0.110
     7   6 C    3.978 --    12 C    1.418     6 C    1.413     8 C    0.949
                             4 C    0.107
     8   6 C    3.829 --    11 F    0.956     7 C    0.949    10 F    0.946
                             9 F    0.942
     9   9 F    1.071 --     8 C    0.942
    10   9 F    1.074 --     8 C    0.946
    11   9 F    1.079 --     8 C    0.956
    12   6 C    3.988 --     7 C    1.418     3 C    1.411    48 H    0.964
                             5 C    0.110
    13   7 N    3.468 --     2 C    1.196    14 C    0.989    38 C    0.952
                             1 O    0.196
    14   6 C    3.959 --    13 N    0.989    18 N    0.985    49 H    0.924
                            15 C    0.893
    15   6 C    3.925 --    17 O    1.814    16 O    1.148    14 C    0.893
    16   8 O    2.229 --    15 C    1.148    50 H    0.850    17 O    0.173
    17   8 O    2.106 --    15 C    1.814    16 O    0.173
    18   7 N    3.444 --    19 C    1.185    14 C    0.985    31 C    0.963
                            30 O    0.186
    19   6 C    3.947 --    30 O    1.713    18 N    1.185    20 C    0.968
    20   6 C    3.988 --    29 C    1.408    21 C    1.397    19 C    0.968
                            27 C    0.108
    21   6 C    3.988 --    22 C    1.424    20 C    1.397    51 H    0.962
                            28 C    0.110
    22   6 C    3.976 --    21 C    1.424    27 C    1.406    23 C    0.950
                            29 C    0.106
    23   6 C    3.826 --    25 F    0.956    22 C    0.950    24 F    0.947
                            26 F    0.937
    24   9 F    1.074 --    23 C    0.947
    25   9 F    1.079 --    23 C    0.956
    26   9 F    1.066 --    23 C    0.937
    27   6 C    3.987 --    28 C    1.444    22 C    1.406    52 H    0.967
                            20 C    0.108
    28   6 C    3.989 --    27 C    1.444    29 C    1.438    53 H    0.968
                            21 C    0.110
    29   6 C    3.988 --    28 C    1.438    20 C    1.408    54 H    0.967
                            22 C    0.106
    30   8 O    2.045 --    19 C    1.713    18 N    0.186
    31   6 C    3.963 --    32 C    0.987    18 N    0.963    55 H    0.956
                            38 C    0.947
    32   6 C    3.984 --    33 C    1.413    37 C    1.408    31 C    0.987
                            35 C    0.109
    33   6 C    3.991 --    34 C    1.442    32 C    1.413    56 H    0.964
                            36 C    0.111
    34   6 C    3.991 --    33 C    1.442    35 C    1.440    57 H    0.970
                            37 C    0.111
    35   6 C    3.989 --    34 C    1.440    36 C    1.437    58 H    0.970
                            32 C    0.109
    36   6 C    3.991 --    37 C    1.447    35 C    1.437    59 H    0.970
                            33 C    0.111
    37   6 C    3.990 --    36 C    1.447    32 C    1.408    60 H    0.969
                            34 C    0.111
    38   6 C    3.961 --    39 C    0.990    61 H    0.957    13 N    0.952
                            31 C    0.947
    39   6 C    3.985 --    40 C    1.417    44 C    1.407    38 C    0.990
                            42 C    0.109
    40   6 C    3.990 --    41 C    1.440    39 C    1.417    62 H    0.968
                            43 C    0.110
    41   6 C    3.991 --    42 C    1.443    40 C    1.440    63 H    0.970
                            44 C    0.112
    42   6 C    3.990 --    41 C    1.443    43 C    1.434    64 H    0.971
                            39 C    0.109
    43   6 C    3.992 --    44 C    1.450    42 C    1.434    65 H    0.971
                            40 C    0.110
    44   6 C    3.992 --    43 C    1.450    39 C    1.407    66 H    0.969
                            41 C    0.112
    45   1 H    0.997 --     4 C    0.967
    46   1 H    0.994 --     5 C    0.967
    47   1 H    0.995 --     6 C    0.966
    48   1 H    0.995 --    12 C    0.964
    49   1 H    0.990 --    14 C    0.924
    50   1 H    0.890 --    16 O    0.850
    51   1 H    0.995 --    21 C    0.962
    52   1 H    0.995 --    27 C    0.967
    53   1 H    0.995 --    28 C    0.968
    54   1 H    0.996 --    29 C    0.967
    55   1 H    0.997 --    31 C    0.956
    56   1 H    0.998 --    33 C    0.964
    57   1 H    0.997 --    34 C    0.970
    58   1 H    0.997 --    35 C    0.970
    59   1 H    0.997 --    36 C    0.970
    60   1 H    0.999 --    37 C    0.969
    61   1 H    0.997 --    38 C    0.957
    62   1 H    0.998 --    40 C    0.968
    63   1 H    0.998 --    41 C    0.970
    64   1 H    0.998 --    42 C    0.971
    65   1 H    0.998 --    43 C    0.971
    66   1 H    0.999 --    44 C    0.969
 ---------------------------------------------------------------------------

molecular dipole:
                 x           y           z       tot (Debye)
 q only:       -0.703      -2.840       1.053
   full:       -0.576      -3.061       1.123       8.415

           -------------------------------------------------
          | TOTAL ENERGY             -130.302173701386 Eh   |
          | GRADIENT NORM               0.000599901513 Eh/Î± |
          | HOMO-LUMO GAP               3.512720691268 eV   |
           -------------------------------------------------

 * finished run on 2022/03/16 at 21:42:41.055
