   * xtb version 6.3.3 (4ae9cef) compiled by 'conda@95abc7406d43' on 2020-10-14
          program call               : xtb acid_245.xyz --opt --chrg 0 --uhf 0 --gfn 2
          number of atoms            :                    84
          number of electrons        :                   238
          charge                     :                     0
          spin                       :                   0.0

   ID    Z sym.   atoms
    1    6 C      1-22, 24-32, 34, 35, 39-47
    2    7 N      23, 38
    3    8 O      33, 36, 37, 48
    4    1 H      49-84

          :  Hamiltonian                  GFN2-xTB          :
 * total energy  :  -130.4572700 Eh     change       -0.3309935E-08 Eh
 * total energy  :  -130.4749637 Eh     change       -0.1769365E-01 Eh
 * total energy  :  -130.4798663 Eh     change       -0.4902587E-02 Eh
 * total energy  :  -130.4811482 Eh     change       -0.1281904E-02 Eh
 * total energy  :  -130.4819315 Eh     change       -0.7832726E-03 Eh
 * total energy  :  -130.4822107 Eh     change       -0.2792722E-03 Eh
 * total energy  :  -130.4823992 Eh     change       -0.1884731E-03 Eh
 * total energy  :  -130.4825704 Eh     change       -0.1711480E-03 Eh
 * total energy  :  -130.4827516 Eh     change       -0.1812503E-03 Eh
 * total energy  :  -130.4829689 Eh     change       -0.2173007E-03 Eh
 * total energy  :  -130.4922854 Eh     change       -0.8884454E-05 Eh
 * total energy  :  -130.4922923 Eh     change       -0.6994847E-05 Eh
 * total energy  :  -130.4922990 Eh     change       -0.6640679E-05 Eh
 * total energy  :  -130.4923061 Eh     change       -0.7061460E-05 Eh
 * total energy  :  -130.4923141 Eh     change       -0.8070192E-05 Eh
 * total energy  :  -130.4923219 Eh     change       -0.7800019E-05 Eh
 * total energy  :  -130.4923282 Eh     change       -0.6292119E-05 Eh
 * total energy  :  -130.4923338 Eh     change       -0.5604027E-05 Eh
 * total energy  :  -130.4923362 Eh     change       -0.2415827E-05 Eh
   *** GEOMETRY OPTIMIZATION CONVERGED AFTER 221 ITERATIONS ***

 final structure:
================
84
 xtb: 6.3.3 (4ae9cef)
C         2.36067069092935    2.72786018797707    1.99045306527144
C         3.55758130408695    3.25946451809752    1.60678914049005
C         4.26220748599394    2.73555627169749    0.50243944974315
C         5.49506821450774    3.26574676731867    0.07065814486263
C         6.14565483378972    2.73142133959348   -1.00639854243014
C         5.59607796163253    1.64022650186271   -1.69767352812692
C         4.40385747831125    1.10201551667289   -1.30183275662078
C         3.70611334583250    1.63516063103091   -0.19838687897798
C         2.46767921792962    1.11206715287772    0.22169353841384
C         1.79973653121464    1.64006114792534    1.29367043933025
C         0.43367194221749    1.13883602491073    1.69787968350485
C        -0.65031055296664    1.94018089868510    0.93553363965454
C        -1.97427259226775    2.08738917086861    1.64589580254698
C        -2.05174102610984    2.34150609644523    2.98996236276370
C        -3.29510947015286    2.49084347477350    3.63711107721473
C        -3.38970932563866    2.74603856363886    5.02133542767245
C        -4.60870547591178    2.88504980472384    5.62320338406415
C        -5.78897172566163    2.77497049544310    4.87080748393639
C        -5.73054850128140    2.52877018543304    3.52767913851746
C        -4.48814009814601    2.38286176966107    2.87691809421738
C        -4.38313826729770    2.14974047814020    1.49013068084036
C        -3.16373641181874    2.01366863125789    0.89152147422487
N        -0.77367674335258    1.15656321610250   -0.28847577827759
C        -0.30381790166048    1.68392364861318   -1.46955135065526
C        -0.03313834771267    0.71265634535463   -2.56230120046722
C        -0.92146108443888   -0.29192013184024   -2.92593903119737
C        -0.57910494285178   -1.20021591204334   -3.92102455378147
C        -1.53899873561227   -2.28465782675496   -4.30254336009876
C         0.65410167704942   -1.08080204981640   -4.54568428983670
C         1.54231344661617   -0.06198126115098   -4.21566748233952
C         2.85843604905248    0.05059393598312   -4.92327134631959
C         1.18603409514374    0.83652930042299   -3.22305798496985
O        -0.11673615879223    2.87649502534859   -1.58460203230707
C        -0.68586902805375   -0.22876217513385    0.09567629568262
C        -2.08480652184414   -0.77173596036665    0.45262996911719
O        -2.26573624160964   -0.91056006129427    1.75816271652041
O        -2.91207452577454   -1.05060188998549   -0.37122941956876
N         0.19957549085944   -0.21981125143249    1.23619501043518
C         0.74600991169717   -1.31374717217574    1.82717796743831
C         0.45809702038092   -2.58105302064380    1.08083570165215
C         1.05699460607046   -2.80101735975396   -0.15236130081177
C         0.76792313851784   -3.94450658194383   -0.88477282184396
C         1.41458922819643   -4.16122709803901   -2.21886597139546
C        -0.12093107445317   -4.86749849261189   -0.35370859931550
C        -0.70747575474110   -4.67846898427846    0.89147790334813
C        -1.66691888305186   -5.69239007864103    1.43621083105896
C        -0.41088349501000   -3.52564920502497    1.60555209738203
O         1.40470826701840   -1.24545708309842    2.84124715694145
H         1.82631804873867    3.13845294065770    2.83503562571918
H         3.98250938216480    4.09475969912471    2.14472025069566
H         5.91601378687680    4.10428936734551    0.60694195279457
H         7.08908507601694    3.14359856730116   -1.33342828231763
H         6.12610612624202    1.22925216722440   -2.54491219916520
H         3.97704966661613    0.25967133838464   -1.82836044636913
H         2.05861110149297    0.27601715596106   -0.32774893916127
H         0.32146371251911    1.17570479593720    2.78323549950133
H        -0.28137268665377    2.93426997465563    0.65300498764906
H        -1.15814805719880    2.44361071801857    3.58805027862846
H        -2.47926178548400    2.82926840463640    5.59742483824989
H        -4.67388576118136    3.08164369250745    6.68328737588902
H        -6.74334156276050    2.88900635241852    5.36362515267646
H        -6.63550283776494    2.44608012851854    2.94257776951931
H        -5.28730721714893    2.08766385135920    0.90177070712538
H        -3.09854202143148    1.85481177393656   -0.17434251640801
H        -1.88460858888466   -0.37037641774899   -2.44415156341011
H        -2.07273301519402   -2.64591852097483   -3.42627864139430
H        -2.27523831489018   -1.89674612863232   -5.00655628200469
H        -1.02240004683767   -3.11637543657864   -4.77545190718098
H         0.92976284461778   -1.78929613104783   -5.31522922137520
H         2.69951108149464    0.21222438366388   -5.98866302132771
H         3.43356860728784   -0.86813992424867   -4.81045536438512
H         3.44017541022193    0.88000900998380   -4.52962557583107
H         1.85214588867765    1.63832853085639   -2.94017028751956
H        -0.31018758632446   -0.84357780666905   -0.73143282030786
H        -3.15915819900325   -1.23632016206242    1.95479299859608
H         1.76457422813351   -2.08362450447574   -0.54568150667438
H         2.46047390504414   -4.43806187253954   -2.08591790363589
H         0.91692146003325   -4.95639796749690   -2.76787058710648
H         1.38176491139872   -3.24783550477883   -2.81106968001034
H        -0.35867280024906   -5.75892498602396   -0.91732065534733
H        -1.77492812315908   -5.58586996633548    2.51251182033130
H        -2.64791365330189   -5.56052909842122    0.97834991769795
H        -1.32806834063123   -6.70178493945654    1.21345814215067
H        -0.85587569036229   -3.35301698978857    2.57437763620158

          :  Hamiltonian                  GFN2-xTB          :
         :: total energy            -130.492336234595 Eh    ::
         :: gradient norm              0.000218101461 Eh/a0 ::
         :: HOMO-LUMO gap              2.999959205195 eV    ::
         :: SCC energy              -132.626763011215 Eh    ::
         :: -> dispersion             -0.121119560635 Eh    ::
         :: repulsion energy           2.129780773571 Eh    ::

    * Orbital Energies and Occupations

         #    Occupation            Energy/Eh            Energy/eV
      -------------------------------------------------------------
         1        2.0000           -0.7723752             -21.0174
       ...           ...                  ...                  ...
       107        2.0000           -0.4164698             -11.3327
       108        2.0000           -0.4138968             -11.2627
       109        2.0000           -0.4070911             -11.0775
       110        2.0000           -0.4060008             -11.0478
       111        2.0000           -0.4046563             -11.0113
       112        2.0000           -0.4002506             -10.8914
       113        2.0000           -0.3993651             -10.8673
       114        2.0000           -0.3974897             -10.8162
       115        2.0000           -0.3971318             -10.8065
       116        2.0000           -0.3909607             -10.6386
       117        2.0000           -0.3886934             -10.5769
       118        2.0000           -0.3841171             -10.4524
       119        2.0000           -0.3790651             -10.3149 (HOMO)
       120                         -0.2688186              -7.3149 (LUMO)
       121                         -0.2614119              -7.1134
       122                         -0.2602314              -7.0813
       123                         -0.2529609              -6.8834
       124                         -0.2373767              -6.4593
       125                         -0.2351808              -6.3996
       126                         -0.2296162              -6.2482
       127                         -0.2272062              -6.1826
       128                         -0.2262707              -6.1571
       129                         -0.2035595              -5.5391
       130                         -0.1988299              -5.4104
       ...                                ...                  ...
       228                          0.6959471              18.9377
      -------------------------------------------------------------
                  HL-Gap            0.1102465 Eh            3.0000 eV

     #   Z          covCN         q      C6AA      Î±(0)
     1   6 C        2.920    -0.034    28.844     8.807
     2   6 C        2.917    -0.031    28.786     8.798
     3   6 C        2.988     0.015    27.677     8.630
     4   6 C        2.918    -0.033    28.816     8.803
     5   6 C        2.916    -0.030    28.738     8.791
     6   6 C        2.916    -0.029    28.735     8.790
     7   6 C        2.919    -0.034    28.848     8.808
     8   6 C        2.987     0.016    27.649     8.625
     9   6 C        2.923    -0.034    28.849     8.808
    10   6 C        2.971     0.005    27.897     8.664
    11   6 C        3.831     0.041    19.858     6.340
    12   6 C        3.855     0.038    19.900     6.345
    13   6 C        2.966     0.002    27.976     8.676
    14   6 C        2.923    -0.043    29.060     8.840
    15   6 C        2.987     0.014    27.686     8.631
    16   6 C        2.918    -0.035    28.860     8.809
    17   6 C        2.916    -0.029    28.724     8.789
    18   6 C        2.916    -0.030    28.740     8.791
    19   6 C        2.918    -0.035    28.873     8.811
    20   6 C        2.987     0.011    27.771     8.644
    21   6 C        2.917    -0.036    28.889     8.814
    22   6 C        2.920    -0.036    28.888     8.814
    23   7 N        2.771    -0.123    23.662     7.225
    24   6 C        2.766     0.273    22.382     7.748
    25   6 C        2.972    -0.022    28.558     8.766
    26   6 C        2.925    -0.052    29.288     8.875
    27   6 C        2.964     0.020    27.569     8.612
    28   6 C        3.758    -0.112    22.696     6.792
    29   6 C        2.930    -0.049    29.219     8.865
    30   6 C        2.964     0.019    27.593     8.616
    31   6 C        3.758    -0.110    22.646     6.785
    32   6 C        2.931    -0.036    28.898     8.816
    33   8 O        0.859    -0.417    22.016     6.291
    34   6 C        3.783     0.087    19.152     6.234
    35   6 C        2.688     0.354    20.994     7.499
    36   8 O        1.659    -0.352    19.942     6.028
    37   8 O        0.856    -0.394    21.562     6.226
    38   7 N        2.771    -0.118    23.574     7.211
    39   6 C        2.760     0.273    22.377     7.747
    40   6 C        2.976    -0.024    28.601     8.772
    41   6 C        2.930    -0.048    29.188     8.860
    42   6 C        2.964     0.018    27.600     8.617
    43   6 C        3.758    -0.110    22.648     6.785
    44   6 C        2.931    -0.049    29.224     8.866
    45   6 C        2.965     0.019    27.573     8.613
    46   6 C        3.758    -0.111    22.669     6.788
    47   6 C        2.928    -0.042    29.032     8.836
    48   8 O        0.859    -0.419    22.068     6.298
    49   1 H        0.926     0.032     2.552     2.498
    50   1 H        0.926     0.038     2.472     2.459
    51   1 H        0.926     0.034     2.536     2.490
    52   1 H        0.926     0.031     2.567     2.505
    53   1 H        0.926     0.030     2.590     2.517
    54   1 H        0.926     0.030     2.582     2.513
    55   1 H        0.926     0.020     2.733     2.585
    56   1 H        0.924     0.072     2.068     2.249
    57   1 H        0.924     0.087     1.908     2.160
    58   1 H        0.926     0.035     2.513     2.479
    59   1 H        0.926     0.035     2.521     2.483
    60   1 H        0.926     0.033     2.542     2.493
    61   1 H        0.926     0.032     2.554     2.499
    62   1 H        0.926     0.033     2.544     2.494
    63   1 H        0.926     0.038     2.476     2.460
    64   1 H        0.926     0.039     2.463     2.454
    65   1 H        0.926     0.051     2.309     2.376
    66   1 H        0.925     0.051     2.305     2.374
    67   1 H        0.925     0.053     2.280     2.361
    68   1 H        0.925     0.044     2.394     2.419
    69   1 H        0.925     0.035     2.514     2.480
    70   1 H        0.925     0.050     2.320     2.382
    71   1 H        0.925     0.046     2.366     2.405
    72   1 H        0.925     0.047     2.357     2.401
    73   1 H        0.926     0.048     2.347     2.396
    74   1 H        0.924     0.074     2.042     2.235
    75   1 H        0.804     0.343     0.605     1.222
    76   1 H        0.925     0.025     2.655     2.548
    77   1 H        0.925     0.051     2.305     2.374
    78   1 H        0.925     0.044     2.390     2.418
    79   1 H        0.925     0.046     2.369     2.407
    80   1 H        0.926     0.037     2.495     2.470
    81   1 H        0.925     0.046     2.373     2.409
    82   1 H        0.924     0.049     2.330     2.387
    83   1 H        0.925     0.049     2.335     2.389
    84   1 H        0.926     0.039     2.464     2.455

Wiberg/Mayer (AO) data.
largest (>0.10) Wiberg bond orders for each atom

     #   Z sym  total        # sym  WBO       # sym  WBO       # sym  WBO
 ---------------------------------------------------------------------------
     1   6 C    3.991 --     2 C    1.567    10 C    1.290    49 H    0.969
     2   6 C    3.991 --     1 C    1.567     3 C    1.274    50 H    0.968
                             9 C    0.114
     3   6 C    3.990 --     4 C    1.283     2 C    1.274     8 C    1.252
     4   6 C    3.992 --     5 C    1.555     3 C    1.283    51 H    0.968
                             7 C    0.118
     5   6 C    3.990 --     4 C    1.555     6 C    1.322    52 H    0.971
     6   6 C    3.992 --     7 C    1.557     5 C    1.322    53 H    0.971
     7   6 C    3.990 --     6 C    1.557     8 C    1.279    54 H    0.967
                             4 C    0.118
     8   6 C    3.991 --     7 C    1.279     9 C    1.279     3 C    1.252
     9   6 C    3.991 --    10 C    1.529     8 C    1.279    55 H    0.962
                             2 C    0.114
    10   6 C    3.986 --     9 C    1.529     1 C    1.290    11 C    0.987
    11   6 C    3.962 --    10 C    0.987    38 N    0.963    12 C    0.950
                            56 H    0.948
    12   6 C    3.958 --    13 C    0.989    23 N    0.963    11 C    0.950
                            57 H    0.937
    13   6 C    3.985 --    14 C    1.527    22 C    1.291    12 C    0.989
    14   6 C    3.990 --    13 C    1.527    15 C    1.281    58 H    0.961
                            21 C    0.114
    15   6 C    3.990 --    14 C    1.281    16 C    1.278    20 C    1.251
    16   6 C    3.990 --    17 C    1.558    15 C    1.278    59 H    0.968
                            19 C    0.118
    17   6 C    3.992 --    16 C    1.558    18 C    1.321    60 H    0.971
    18   6 C    3.990 --    19 C    1.557    17 C    1.321    61 H    0.971
    19   6 C    3.992 --    18 C    1.557    20 C    1.281    62 H    0.968
                            16 C    0.118
    20   6 C    3.990 --    19 C    1.281    21 C    1.277    15 C    1.251
    21   6 C    3.991 --    22 C    1.563    20 C    1.277    63 H    0.968
                            14 C    0.114
    22   6 C    3.990 --    21 C    1.563    13 C    1.291    64 H    0.966
    23   7 N    3.432 --    24 C    1.162    34 C    0.990    12 C    0.963
                            33 O    0.175
    24   6 C    3.939 --    33 O    1.703    23 N    1.162    25 C    0.988
    25   6 C    3.987 --    26 C    1.401    32 C    1.387    24 C    0.988
                            29 C    0.102
    26   6 C    3.989 --    27 C    1.402    25 C    1.401    65 H    0.963
                            30 C    0.103
    27   6 C    3.988 --    29 C    1.421    26 C    1.402    28 C    1.026
                            32 C    0.102
    28   6 C    3.995 --    27 C    1.026    68 H    0.983    66 H    0.979
                            67 H    0.966
    29   6 C    3.990 --    27 C    1.421    30 C    1.402    69 H    0.968
                            25 C    0.102
    30   6 C    3.988 --    32 C    1.422    29 C    1.402    31 C    1.025
                            26 C    0.103
    31   6 C    3.995 --    30 C    1.025    72 H    0.985    71 H    0.973
                            70 H    0.971
    32   6 C    3.989 --    30 C    1.422    25 C    1.387    73 H    0.965
                            27 C    0.102
    33   8 O    2.028 --    24 C    1.703    23 N    0.175
    34   6 C    3.973 --    23 N    0.990    38 N    0.983    74 H    0.925
                            35 C    0.913
    35   6 C    3.918 --    37 O    1.767    36 O    1.167    34 C    0.913
    36   8 O    2.233 --    35 C    1.167    75 H    0.856    37 O    0.183
    37   8 O    2.051 --    35 C    1.767    36 O    0.183
    38   7 N    3.464 --    39 C    1.205    34 C    0.983    11 C    0.963
                            48 O    0.191
    39   6 C    3.945 --    48 O    1.700    38 N    1.205    40 C    0.956
    40   6 C    3.988 --    47 C    1.410    41 C    1.408    39 C    0.956
                            44 C    0.105
    41   6 C    3.990 --    40 C    1.408    42 C    1.406    76 H    0.965
                            45 C    0.106
    42   6 C    3.988 --    44 C    1.418    41 C    1.406    43 C    1.025
                            47 C    0.103
    43   6 C    3.995 --    42 C    1.025    78 H    0.985    79 H    0.975
                            77 H    0.968
    44   6 C    3.990 --    42 C    1.418    45 C    1.411    80 H    0.967
                            40 C    0.105
    45   6 C    3.988 --    44 C    1.411    47 C    1.411    46 C    1.025
                            41 C    0.106
    46   6 C    3.995 --    45 C    1.025    81 H    0.984    83 H    0.979
                            82 H    0.968
    47   6 C    3.989 --    45 C    1.411    40 C    1.410    84 H    0.968
                            42 C    0.103
    48   8 O    2.019 --    39 C    1.700    38 N    0.191
    49   1 H    0.998 --     1 C    0.969
    50   1 H    0.998 --     2 C    0.968
    51   1 H    0.998 --     4 C    0.968
    52   1 H    0.999 --     5 C    0.971
    53   1 H    0.999 --     6 C    0.971
    54   1 H    0.999 --     7 C    0.967
    55   1 H    0.999 --     9 C    0.962
    56   1 H    0.994 --    11 C    0.948
    57   1 H    0.989 --    12 C    0.937
    58   1 H    0.998 --    14 C    0.961
    59   1 H    0.998 --    16 C    0.968
    60   1 H    0.998 --    17 C    0.971
    61   1 H    0.999 --    18 C    0.971
    62   1 H    0.998 --    19 C    0.968
    63   1 H    0.998 --    21 C    0.968
    64   1 H    0.998 --    22 C    0.966
    65   1 H    0.997 --    26 C    0.963
    66   1 H    0.997 --    28 C    0.979
    67   1 H    0.997 --    28 C    0.966
    68   1 H    0.998 --    28 C    0.983
    69   1 H    0.998 --    29 C    0.968
    70   1 H    0.997 --    31 C    0.971
    71   1 H    0.998 --    31 C    0.973
    72   1 H    0.997 --    31 C    0.985
    73   1 H    0.997 --    32 C    0.965
    74   1 H    0.994 --    34 C    0.925
    75   1 H    0.882 --    36 O    0.856
    76   1 H    0.999 --    41 C    0.965
    77   1 H    0.997 --    43 C    0.968
    78   1 H    0.998 --    43 C    0.985
    79   1 H    0.998 --    43 C    0.975
    80   1 H    0.998 --    44 C    0.967
    81   1 H    0.998 --    46 C    0.984
    82   1 H    0.997 --    46 C    0.968
    83   1 H    0.997 --    46 C    0.979
    84   1 H    0.998 --    47 C    0.968
 ---------------------------------------------------------------------------

molecular dipole:
                 x           y           z       tot (Debye)
 q only:       -0.598      -1.024      -0.436
   full:       -0.732      -1.263      -0.530       3.947

           -------------------------------------------------
          | TOTAL ENERGY             -130.492336234595 Eh   |
          | GRADIENT NORM               0.000218101461 Eh/Î± |
          | HOMO-LUMO GAP               2.999959205195 eV   |
           -------------------------------------------------

 * finished run on 2022/03/16 at 22:55:16.503
