   * xtb version 6.3.3 (4ae9cef) compiled by 'conda@95abc7406d43' on 2020-10-14
          program call               : xtb acid_279.xyz --opt --chrg 0 --uhf 0 --gfn 2
          number of atoms            :                    74
          number of electrons        :                   230
          charge                     :                     0
          spin                       :                   0.0

   ID    Z sym.   atoms
    1    6 C      1-22, 24-27, 29-32, 34, 35, 39-46
    2    7 N      23, 28, 38, 47
    3    8 O      33, 36, 37, 48
    4    1 H      49-74

          :  Hamiltonian                  GFN2-xTB          :
 * total energy  :  -126.8205308 Eh     change       -0.3653099E-08 Eh
 * total energy  :  -126.8375678 Eh     change       -0.1703704E-01 Eh
 * total energy  :  -126.8425208 Eh     change       -0.4952939E-02 Eh
 * total energy  :  -126.8435203 Eh     change       -0.9995355E-03 Eh
 * total energy  :  -126.8443055 Eh     change       -0.7852239E-03 Eh
 * total energy  :  -126.8449449 Eh     change       -0.6393946E-03 Eh
 * total energy  :  -126.8452022 Eh     change       -0.2573029E-03 Eh
 * total energy  :  -126.8454482 Eh     change       -0.2459389E-03 Eh
 * total energy  :  -126.8456389 Eh     change       -0.1906812E-03 Eh
 * total energy  :  -126.8457850 Eh     change       -0.1461210E-03 Eh
 * total energy  :  -126.8486590 Eh     change       -0.1118031E-04 Eh
 * total energy  :  -126.8486696 Eh     change       -0.1056431E-04 Eh
 * total energy  :  -126.8486772 Eh     change       -0.7657342E-05 Eh
 * total energy  :  -126.8486829 Eh     change       -0.5690194E-05 Eh
 * total energy  :  -126.8486885 Eh     change       -0.5572769E-05 Eh
 * total energy  :  -126.8486956 Eh     change       -0.7094055E-05 Eh
 * total energy  :  -126.8487056 Eh     change       -0.1007994E-04 Eh
 * total energy  :  -126.8487179 Eh     change       -0.1225803E-04 Eh
 * total energy  :  -126.8487208 Eh     change       -0.2935726E-05 Eh
   *** GEOMETRY OPTIMIZATION CONVERGED AFTER 94 ITERATIONS ***

 final structure:
================
74
 xtb: 6.3.3 (4ae9cef)
C         3.22659113918417    2.26883675156080    0.45659143608529
C         4.40045735660005    2.50089292593505   -0.19931464082459
C         4.87447506062315    1.59972758110349   -1.17623451707545
C         6.08558468197945    1.80164268323899   -1.86890990213098
C         6.51184180231028    0.90001703892919   -2.80399856057401
C         5.74895826028379   -0.24376441977251   -3.08798440358620
C         4.56973634707911   -0.46777104265314   -2.43427337625010
C         4.10367134145929    0.44519176424200   -1.46602317629027
C         2.89108715446132    0.23857137529233   -0.77789948529071
C         2.45706859676987    1.12322240101884    0.17061214669142
C         1.14539614670407    0.94749475202043    0.89762353768913
C         0.03420919976593    1.73624359050522    0.18966935580983
C        -1.15529405161871    2.14711898078271    1.02683268987184
C        -1.34461305607013    1.77414553215630    2.33057588559436
C        -2.52672148740389    2.12028727604170    3.01932974213451
C        -2.74053208100910    1.73965741205300    4.36000583475067
C        -3.89795569727759    2.07803703052985    5.00362167832935
C        -4.89246481746908    2.81072836476170    4.33685613220268
C        -4.71544986553023    3.19065500689160    3.03552399046066
C        -3.53329585374350    2.85701373621035    2.34351228971475
C        -3.31402065503541    3.22784783775949    0.99921956170447
C        -2.15852922331185    2.88614849579417    0.36109114993367
N        -0.42182115077175    0.74294719396237   -0.77945977014616
C        -0.57473312151425    1.01515848240932   -2.09789221765565
C        -0.96145749976553   -0.15767491287293   -2.94575939557534
C        -2.30780596687017   -0.34563418923542   -3.27808700148647
C        -3.29265978938225    0.53738611103641   -2.77478878933869
N        -4.11159678181456    1.23318145060666   -2.37622190829509
C        -2.68093857791818   -1.40544842297208   -4.10432495717368
C        -1.71560536235211   -2.26216460067010   -4.59888016308190
C        -0.37949992684841   -2.06350285087029   -4.28585599434465
C        -0.00158025583056   -1.01224073275620   -3.46623117796176
O        -0.42870845266476    2.12915823168709   -2.54897678831095
C        -0.44795842708730   -0.52424116974848   -0.10608779065547
C        -1.79755543161386   -0.73275839490263    0.62232940670081
O        -2.80735003862923   -0.42409863852003   -0.17805876622443
O        -1.91482979743303   -1.15810026320510    1.73602381551358
N         0.64811062932271   -0.42746956440360    0.83469559702430
C         1.04200876860216   -1.32431565590621    1.77450787143550
C         0.46159518517908   -2.70352607034689    1.72779718894390
C        -0.11855433006442   -3.18865190017480    2.89302550988518
C        -0.62063705733751   -4.47573343138902    2.95184583727691
C        -0.52572263271829   -5.31458367133177    1.85090535195870
C         0.07842470872192   -4.86568242077368    0.69447919384804
C         0.57495263557938   -3.56072722921442    0.62652094966551
C         1.20721964103834   -3.15851016064353   -0.56839727160954
N         1.69745339047292   -2.86010289053728   -1.56278054907761
O         1.84061005776338   -1.02177204810145    2.63776588885538
H         2.87259606177095    2.96125716836690    1.20688944502284
H         4.98723070465582    3.38005151511566    0.02517281028071
H         6.67130214947810    2.68212901372740   -1.64576945616162
H         7.44136731391645    1.05999841997583   -3.33081246979883
H         6.10486077360274   -0.94612614693544   -3.82763646543878
H         3.97971481490351   -1.34935103095109   -2.63985262389797
H         2.32424174572442   -0.65083604013986   -1.00802072026314
H         1.27788747459295    1.23734021737226    1.94339033978111
H         0.42489866324791    2.59550551948362   -0.36330889063227
H        -0.60880671067762    1.19465948232413    2.86826832752010
H        -1.97224608959340    1.17371863681421    4.86661012636360
H        -4.05610065902912    1.78454709573765    6.03102699553245
H        -5.79946506107217    3.07159889391021    4.86236030217640
H        -5.47766536288101    3.75396740192168    2.51657501538614
H        -4.07932035157212    3.78364708478644    0.47844538998049
H        -1.99914663367536    3.16437210678147   -0.66956919533470
H        -3.72321293770570   -1.54218485997601   -4.35213401987103
H        -2.00550315092284   -3.08252472004605   -5.23805512619339
H         0.37423943479936   -2.72740836081572   -4.67950186962743
H         1.03970470654787   -0.85269721869173   -3.23212691649938
H        -0.33132017634615   -1.35069044855942   -0.82102719525379
H        -3.66579382138810   -0.49460006367457    0.27167382474104
H        -0.17871605951394   -2.53485104622587    3.74826166301804
H        -1.08086557841372   -4.83035115097178    3.86128454326506
H        -0.91223346835439   -6.32135437525858    1.89801598232400
H         0.18079050309372   -5.51265341956889   -0.16468225557248

          :  Hamiltonian                  GFN2-xTB          :
         :: total energy            -126.848720842476 Eh    ::
         :: gradient norm              0.000269660603 Eh/a0 ::
         :: HOMO-LUMO gap              2.316453765266 eV    ::
         :: SCC energy              -129.008108779988 Eh    ::
         :: -> dispersion             -0.115115982887 Eh    ::
         :: repulsion energy           2.155276990444 Eh    ::

    * Orbital Energies and Occupations

         #    Occupation            Energy/Eh            Energy/eV
      -------------------------------------------------------------
         1        2.0000           -0.7850444             -21.3621
       ...           ...                  ...                  ...
       103        2.0000           -0.4286446             -11.6640
       104        2.0000           -0.4253444             -11.5742
       105        2.0000           -0.4230996             -11.5131
       106        2.0000           -0.4186062             -11.3909
       107        2.0000           -0.4142962             -11.2736
       108        2.0000           -0.4133271             -11.2472
       109        2.0000           -0.4114227             -11.1954
       110        2.0000           -0.4087409             -11.1224
       111        2.0000           -0.4070257             -11.0757
       112        2.0000           -0.4021839             -10.9440
       113        2.0000           -0.3965863             -10.7917
       114        2.0000           -0.3845201             -10.4633
       115        2.0000           -0.3780936             -10.2885 (HOMO)
       116                         -0.2929655              -7.9720 (LUMO)
       117                         -0.2824933              -7.6870
       118                         -0.2743677              -7.4659
       119                         -0.2648477              -7.2069
       120                         -0.2632702              -7.1639
       121                         -0.2587745              -7.0416
       122                         -0.2551108              -6.9419
       123                         -0.2357045              -6.4138
       124                         -0.2298863              -6.2555
       125                         -0.2295501              -6.2464
       126                         -0.2271273              -6.1804
       ...                                ...                  ...
       218                          1.1639029              31.6714
      -------------------------------------------------------------
                  HL-Gap            0.0851281 Eh            2.3165 eV

     #   Z          covCN         q      C6AA      Î±(0)
     1   6 C        2.920    -0.036    28.902     8.816
     2   6 C        2.917    -0.032    28.800     8.800
     3   6 C        2.987     0.014    27.697     8.633
     4   6 C        2.918    -0.034    28.840     8.806
     5   6 C        2.916    -0.029    28.726     8.789
     6   6 C        2.916    -0.029    28.717     8.787
     7   6 C        2.919    -0.035    28.860     8.810
     8   6 C        2.988     0.016    27.639     8.624
     9   6 C        2.923    -0.040    28.989     8.829
    10   6 C        2.970     0.002    27.980     8.676
    11   6 C        3.841     0.040    19.868     6.341
    12   6 C        3.852     0.037    19.926     6.349
    13   6 C        2.970    -0.008    28.213     8.713
    14   6 C        2.920    -0.043    29.070     8.842
    15   6 C        2.987     0.013    27.706     8.634
    16   6 C        2.919    -0.033    28.810     8.802
    17   6 C        2.916    -0.029    28.727     8.789
    18   6 C        2.916    -0.029    28.728     8.789
    19   6 C        2.918    -0.035    28.868     8.811
    20   6 C        2.987     0.011    27.753     8.642
    21   6 C        2.916    -0.033    28.832     8.805
    22   6 C        2.921    -0.035    28.884     8.813
    23   7 N        2.784    -0.108    23.366     7.179
    24   6 C        2.758     0.278    22.301     7.733
    25   6 C        2.983    -0.009    28.243     8.718
    26   6 C        2.976     0.023    27.476     8.598
    27   6 C        1.911     0.118    28.205     8.577
    28   7 N        0.911    -0.230    26.024     7.378
    29   6 C        2.926    -0.020    28.503     8.755
    30   6 C        2.918    -0.026    28.642     8.776
    31   6 C        2.919    -0.018    28.461     8.749
    32   6 C        2.920    -0.024    28.599     8.770
    33   8 O        0.859    -0.411    21.895     6.274
    34   6 C        3.777     0.095    19.040     6.217
    35   6 C        2.687     0.351    21.033     7.505
    36   8 O        1.660    -0.361    20.100     6.052
    37   8 O        0.856    -0.387    21.421     6.205
    38   7 N        2.767    -0.116    23.532     7.205
    39   6 C        2.763     0.276    22.334     7.739
    40   6 C        2.975    -0.001    28.041     8.686
    41   6 C        2.926    -0.007    28.192     8.707
    42   6 C        2.919    -0.016    28.408     8.740
    43   6 C        2.918    -0.024    28.592     8.768
    44   6 C        2.931    -0.019    28.491     8.754
    45   6 C        2.974     0.010    27.795     8.648
    46   6 C        1.914     0.113    28.320     8.594
    47   7 N        0.911    -0.248    26.456     7.439
    48   8 O        0.860    -0.417    22.022     6.292
    49   1 H        0.926     0.033     2.550     2.497
    50   1 H        0.926     0.038     2.473     2.459
    51   1 H        0.926     0.033     2.548     2.496
    52   1 H        0.926     0.031     2.569     2.506
    53   1 H        0.926     0.032     2.559     2.502
    54   1 H        0.926     0.043     2.406     2.425
    55   1 H        0.926     0.034     2.534     2.490
    56   1 H        0.924     0.079     1.989     2.205
    57   1 H        0.924     0.084     1.935     2.176
    58   1 H        0.926     0.039     2.466     2.456
    59   1 H        0.926     0.037     2.493     2.469
    60   1 H        0.926     0.033     2.542     2.493
    61   1 H        0.926     0.033     2.547     2.496
    62   1 H        0.926     0.036     2.506     2.475
    63   1 H        0.926     0.046     2.370     2.408
    64   1 H        0.926     0.052     2.297     2.370
    65   1 H        0.926     0.048     2.347     2.396
    66   1 H        0.926     0.046     2.368     2.406
    67   1 H        0.926     0.056     2.249     2.345
    68   1 H        0.926     0.061     2.188     2.313
    69   1 H        0.923     0.065     2.139     2.287
    70   1 H        0.804     0.351     0.587     1.203
    71   1 H        0.926     0.067     2.116     2.275
    72   1 H        0.926     0.053     2.283     2.363
    73   1 H        0.926     0.048     2.347     2.396
    74   1 H        0.926     0.046     2.369     2.407

Wiberg/Mayer (AO) data.
largest (>0.10) Wiberg bond orders for each atom

     #   Z sym  total        # sym  WBO       # sym  WBO       # sym  WBO
 ---------------------------------------------------------------------------
     1   6 C    3.990 --     2 C    1.569    10 C    1.288    49 H    0.969
     2   6 C    3.991 --     1 C    1.569     3 C    1.273    50 H    0.968
                             9 C    0.113
     3   6 C    3.990 --     4 C    1.283     2 C    1.273     8 C    1.253
     4   6 C    3.992 --     5 C    1.555     3 C    1.283    51 H    0.968
                             7 C    0.118
     5   6 C    3.990 --     4 C    1.555     6 C    1.322    52 H    0.971
     6   6 C    3.992 --     7 C    1.556     5 C    1.322    53 H    0.971
     7   6 C    3.989 --     6 C    1.556     8 C    1.280    54 H    0.967
                             4 C    0.118
     8   6 C    3.990 --     7 C    1.280     9 C    1.277     3 C    1.253
     9   6 C    3.990 --    10 C    1.533     8 C    1.277    55 H    0.958
                             2 C    0.113
    10   6 C    3.984 --     9 C    1.533     1 C    1.288    11 C    0.985
    11   6 C    3.956 --    10 C    0.985    12 C    0.963    38 N    0.954
                            56 H    0.944
    12   6 C    3.952 --    13 C    0.982    11 C    0.963    57 H    0.949
                            23 N    0.944
    13   6 C    3.984 --    14 C    1.534    22 C    1.284    12 C    0.982
    14   6 C    3.990 --    13 C    1.534    15 C    1.274    58 H    0.961
                            21 C    0.112
    15   6 C    3.990 --    16 C    1.281    14 C    1.274    20 C    1.254
    16   6 C    3.990 --    17 C    1.555    15 C    1.281    59 H    0.968
                            19 C    0.118
    17   6 C    3.992 --    16 C    1.555    18 C    1.323    60 H    0.971
    18   6 C    3.990 --    19 C    1.554    17 C    1.323    61 H    0.971
    19   6 C    3.991 --    18 C    1.554    20 C    1.283    62 H    0.968
                            16 C    0.118
    20   6 C    3.990 --    19 C    1.283    21 C    1.272    15 C    1.254
    21   6 C    3.991 --    22 C    1.572    20 C    1.272    63 H    0.967
                            14 C    0.112
    22   6 C    3.989 --    21 C    1.572    13 C    1.284    64 H    0.967
    23   7 N    3.473 --    24 C    1.211    34 C    0.997    12 C    0.944
                            33 O    0.194
    24   6 C    3.946 --    33 O    1.698    23 N    1.211    25 C    0.953
    25   6 C    3.986 --    32 C    1.421    26 C    1.333    24 C    0.953
                            30 C    0.104
    26   6 C    3.989 --    29 C    1.364    25 C    1.333    27 C    1.091
                            31 C    0.101
    27   6 C    3.946 --    28 N    2.806    26 C    1.091
    28   7 N    2.980 --    27 C    2.806
    29   6 C    3.990 --    30 C    1.454    26 C    1.364    65 H    0.969
                            32 C    0.106
    30   6 C    3.991 --    29 C    1.454    31 C    1.431    66 H    0.969
                            25 C    0.104
    31   6 C    3.964 --    32 C    1.432    30 C    1.431    67 H    0.969
                            26 C    0.101
    32   6 C    3.989 --    31 C    1.432    25 C    1.421    68 H    0.964
                            29 C    0.106
    33   8 O    2.031 --    24 C    1.698    23 N    0.194
    34   6 C    3.977 --    23 N    0.997    38 N    0.986    69 H    0.925
                            35 C    0.906
    35   6 C    3.919 --    37 O    1.774    36 O    1.164    34 C    0.906
    36   8 O    2.226 --    35 C    1.164    70 H    0.850    37 O    0.182
    37   8 O    2.064 --    35 C    1.774    36 O    0.182
    38   7 N    3.465 --    39 C    1.213    34 C    0.986    11 C    0.954
                            48 O    0.192
    39   6 C    3.950 --    48 O    1.684    38 N    1.213    40 C    0.968
    40   6 C    3.986 --    41 C    1.410    45 C    1.331    39 C    0.968
                            43 C    0.101
    41   6 C    3.987 --    42 C    1.443    40 C    1.410    71 H    0.965
                            44 C    0.105
    42   6 C    3.964 --    41 C    1.443    43 C    1.421    72 H    0.969
    43   6 C    3.991 --    44 C    1.460    42 C    1.421    73 H    0.969
                            40 C    0.101
    44   6 C    3.990 --    43 C    1.460    45 C    1.351    74 H    0.969
                            41 C    0.105
    45   6 C    3.988 --    44 C    1.351    40 C    1.331    46 C    1.103
    46   6 C    3.945 --    47 N    2.774    45 C    1.103
    47   7 N    2.975 --    46 C    2.774
    48   8 O    2.020 --    39 C    1.684    38 N    0.192
    49   1 H    0.998 --     1 C    0.969
    50   1 H    0.998 --     2 C    0.968
    51   1 H    0.998 --     4 C    0.968
    52   1 H    0.999 --     5 C    0.971
    53   1 H    0.999 --     6 C    0.971
    54   1 H    0.998 --     7 C    0.967
    55   1 H    0.998 --     9 C    0.958
    56   1 H    0.992 --    11 C    0.944
    57   1 H    0.991 --    12 C    0.949
    58   1 H    0.998 --    14 C    0.961
    59   1 H    0.998 --    16 C    0.968
    60   1 H    0.998 --    17 C    0.971
    61   1 H    0.998 --    18 C    0.971
    62   1 H    0.998 --    19 C    0.968
    63   1 H    0.997 --    21 C    0.967
    64   1 H    0.997 --    22 C    0.967
    65   1 H    0.997 --    29 C    0.969
    66   1 H    0.996 --    30 C    0.969
    67   1 H    0.996 --    31 C    0.969
    68   1 H    0.995 --    32 C    0.964
    69   1 H    0.996 --    34 C    0.925
    70   1 H    0.876 --    36 O    0.850
    71   1 H    0.994 --    41 C    0.965
    72   1 H    0.997 --    42 C    0.969
    73   1 H    0.996 --    43 C    0.969
    74   1 H    0.997 --    44 C    0.969
 ---------------------------------------------------------------------------

molecular dipole:
                 x           y           z       tot (Debye)
 q only:       -0.870      -1.437       0.086
   full:       -1.048      -2.164       0.190       6.129

           -------------------------------------------------
          | TOTAL ENERGY             -126.848720842476 Eh   |
          | GRADIENT NORM               0.000269660603 Eh/Î± |
          | HOMO-LUMO GAP               2.316453765266 eV   |
           -------------------------------------------------

 * finished run on 2022/03/16 at 23:17:54.040
