   * xtb version 6.3.3 (4ae9cef) compiled by 'conda@95abc7406d43' on 2020-10-14
          program call               : xtb acid_464.xyz --opt --chrg 0 --uhf 0 --gfn 2
          number of atoms            :                    60
          number of electrons        :                   190
          charge                     :                     0
          spin                       :                   0.0

   ID    Z sym.   atoms
    1    8 O      1, 13, 14, 24
    2    6 C      2-6, 8, 9, 11, 12, 16-20, 22, 23, 25-38
    3    9 F      7, 21
    4    7 N      10, 15
    5    1 H      39-60

          :  Hamiltonian                  GFN2-xTB          :
 * total energy  :  -107.0539389 Eh     change       -0.8391083E-09 Eh
 * total energy  :  -107.0669773 Eh     change       -0.1303838E-01 Eh
 * total energy  :  -107.0705025 Eh     change       -0.3525213E-02 Eh
 * total energy  :  -107.0714937 Eh     change       -0.9911596E-03 Eh
 * total energy  :  -107.0721093 Eh     change       -0.6156081E-03 Eh
 * total energy  :  -107.0725179 Eh     change       -0.4085920E-03 Eh
 * total energy  :  -107.0729644 Eh     change       -0.4465194E-03 Eh
 * total energy  :  -107.0734956 Eh     change       -0.5312193E-03 Eh
 * total energy  :  -107.0740783 Eh     change       -0.5827311E-03 Eh
 * total energy  :  -107.0746067 Eh     change       -0.5283392E-03 Eh
 * total energy  :  -107.0781617 Eh     change       -0.3823612E-04 Eh
 * total energy  :  -107.0781808 Eh     change       -0.1902649E-04 Eh
 * total energy  :  -107.0781977 Eh     change       -0.1699185E-04 Eh
 * total energy  :  -107.0782129 Eh     change       -0.1512540E-04 Eh
 * total energy  :  -107.0782260 Eh     change       -0.1313191E-04 Eh
 * total energy  :  -107.0782385 Eh     change       -0.1252455E-04 Eh
 * total energy  :  -107.0782519 Eh     change       -0.1338638E-04 Eh
 * total energy  :  -107.0782627 Eh     change       -0.1081520E-04 Eh
 * total energy  :  -107.0782653 Eh     change       -0.2560523E-05 Eh
   *** GEOMETRY OPTIMIZATION CONVERGED AFTER 44 ITERATIONS ***

 final structure:
================
60
 xtb: 6.3.3 (4ae9cef)
O         0.65381050690826    2.94542775636633    0.70186382061309
C         1.20227008381188    1.91020201082735    0.36161581620289
C         2.66472314701277    1.67890540398441    0.50914220128103
C         3.46096696099779    1.34544713658363   -0.58010770162722
C         4.81756290748147    1.14084212794509   -0.41165777068928
C         5.35742002926810    1.26931551989725    0.85574215729299
F         6.67424127748135    1.04486331622936    1.02698404378885
C         4.58923995290924    1.62819260081822    1.94887866676339
C         3.23785135274275    1.84703888196600    1.76494586157660
N         0.48105296864628    0.91080137169252   -0.19688758141469
C        -0.95285613741347    1.10678267250647   -0.30405812199814
C        -1.44965503637373    1.92221648579139    0.91340541814988
O        -2.09377475808804    3.02069441461841    0.54330654449656
O        -1.35767034001369    1.52647829846642    2.04348550344327
N        -1.48653369064328   -0.22807229927836   -0.32306540984365
C        -2.74936986537997   -0.61056051357697    0.00832282062082
C        -3.74444316616202    0.50075246950493    0.08313316978216
C        -4.04167231112258    1.24846431031119   -1.05104859644390
C        -4.99172128117858    2.25070471245879   -0.99553991350920
C        -5.63028365005659    2.49260463312673    0.20774495002012
F        -6.54366807867147    3.48214757029432    0.27334849965663
C        -5.36518413444752    1.74938606800131    1.34410684274938
C        -4.42381227488295    0.73903788973247    1.27185365284224
O        -3.03736974849750   -1.77469679393328    0.18318156295188
C        -0.45400763273309   -1.24644742502134   -0.46573437703129
C        -0.58794302839404   -1.96010472123184   -1.78821744711235
C        -0.69570545358378   -1.23335961953766   -2.96784176746343
C        -0.83067368171902   -1.88418071810460   -4.18056852136662
C        -0.85395222560744   -3.26799916943448   -4.22592141711207
C        -0.74213017781074   -3.99676270364838   -3.05453229430468
C        -0.61162832360902   -3.34580824672585   -1.84013672229780
C         0.88147640119256   -0.48252181864287   -0.33057390808775
C         1.67978712751323   -0.96036337164393    0.85658634070944
C         1.21461176541520   -0.72858017474566    2.14593643443895
C         1.95218158835012   -1.15756074116988    3.23410544699920
C         3.15127494759105   -1.82450874188507    3.04525196791039
C         3.60837320114020   -2.07106107899192    1.76243132921243
C         2.87355550278113   -1.64267044377773    0.67123687276444
H         3.02502762685193    1.26027719557551   -1.56397985943763
H         5.45542218476778    0.88302453752950   -1.24219370575427
H         5.05005262971251    1.73495100226030    2.91765514165057
H         2.61166790656008    2.13500312308666    2.59465770656661
H        -1.19525316323047    1.68075410145098   -1.21443809993050
H        -2.33641081112089    3.55047367853208    1.31907050601923
H        -3.54170993316209    1.03309376255807   -1.98353397616972
H        -5.23936799338294    2.84123689136883   -1.86295795640359
H        -5.89381777405631    1.96115408625815    2.25993562443485
H        -4.19919402396500    0.13898351512575    2.13972127494070
H        -0.57335826132683   -1.97422972969289    0.34584048818082
H        -0.67852450292381   -0.15306027820262   -2.93653274523372
H        -0.92035960397328   -1.31081739259581   -5.09153691196066
H        -0.96340330105938   -3.77577869508250   -5.17249954696758
H        -0.76409232677013   -5.07573663180993   -3.08489559735956
H        -0.53728625301837   -3.91374346145049   -0.92518045994016
H         1.47048416263331   -0.61213657854672   -1.24782594475682
H         0.28628124567059   -0.19731764720680    2.29949973672656
H         1.58839854849105   -0.96935093124459    4.23282079748153
H         3.72754179959329   -2.15416326901028    3.89659414239128
H         4.54027470775640   -2.59417726719733    1.60946502686091
H         3.23128441109015   -1.83348508146509   -0.33040401529760

          :  Hamiltonian                  GFN2-xTB          :
         :: total energy            -107.078265292502 Eh    ::
         :: gradient norm              0.000246799532 Eh/a0 ::
         :: HOMO-LUMO gap              3.540636504431 eV    ::
         :: SCC energy              -108.624425543952 Eh    ::
         :: -> dispersion             -0.087825320813 Eh    ::
         :: repulsion energy           1.543917619499 Eh    ::

    * Orbital Energies and Occupations

         #    Occupation            Energy/Eh            Energy/eV
      -------------------------------------------------------------
         1        2.0000           -0.8296398             -22.5756
       ...           ...                  ...                  ...
        83        2.0000           -0.4367764             -11.8853
        84        2.0000           -0.4358730             -11.8607
        85        2.0000           -0.4329143             -11.7802
        86        2.0000           -0.4322139             -11.7611
        87        2.0000           -0.4229351             -11.5086
        88        2.0000           -0.4209993             -11.4560
        89        2.0000           -0.4204484             -11.4410
        90        2.0000           -0.4194613             -11.4141
        91        2.0000           -0.4182427             -11.3810
        92        2.0000           -0.4173667             -11.3571
        93        2.0000           -0.4117862             -11.2053
        94        2.0000           -0.4047488             -11.0138
        95        2.0000           -0.4017498             -10.9322 (HOMO)
        96                         -0.2716338              -7.3915 (LUMO)
        97                         -0.2612172              -7.1081
        98                         -0.2575420              -7.0081
        99                         -0.2505807              -6.8186
       100                         -0.2497840              -6.7970
       101                         -0.2435886              -6.6284
       102                         -0.2386955              -6.4952
       103                         -0.2382760              -6.4838
       104                         -0.2367579              -6.4425
       105                         -0.2196520              -5.9770
       106                         -0.2116843              -5.7602
       ...                                ...                  ...
       174                          0.6532016              17.7745
      -------------------------------------------------------------
                  HL-Gap            0.1301160 Eh            3.5406 eV

     #   Z          covCN         q      C6AA      Î±(0)
     1   8 O        0.862    -0.423    22.135     6.308
     2   6 C        2.773     0.275    22.351     7.743
     3   6 C        2.975    -0.013    28.337     8.732
     4   6 C        2.926    -0.027    28.684     8.783
     5   6 C        2.917    -0.046    29.148     8.853
     6   6 C        2.788     0.175    24.233     8.064
     7   9 F        0.787    -0.216    11.406     3.989
     8   6 C        2.916    -0.045    29.108     8.847
     9   6 C        2.929    -0.018    28.447     8.747
    10   7 N        2.764    -0.109    23.391     7.183
    11   6 C        3.759     0.097    19.029     6.219
    12   6 C        2.689     0.370    20.720     7.450
    13   8 O        1.659    -0.362    20.121     6.055
    14   8 O        0.856    -0.405    21.773     6.256
    15   7 N        2.762    -0.115    23.500     7.200
    16   6 C        2.766     0.273    22.391     7.749
    17   6 C        2.976    -0.022    28.552     8.765
    18   6 C        2.927    -0.026    28.660     8.779
    19   6 C        2.916    -0.044    29.102     8.846
    20   6 C        2.788     0.173    24.268     8.069
    21   9 F        0.787    -0.220    11.447     3.997
    22   6 C        2.916    -0.047    29.165     8.856
    23   6 C        2.927    -0.019    28.478     8.752
    24   8 O        0.859    -0.413    21.936     6.280
    25   6 C        3.825     0.043    19.831     6.337
    26   6 C        2.973     0.004    27.928     8.669
    27   6 C        2.924    -0.034    28.855     8.809
    28   6 C        2.919    -0.028    28.708     8.786
    29   6 C        2.920    -0.028    28.700     8.785
    30   6 C        2.920    -0.025    28.621     8.773
    31   6 C        2.924    -0.028    28.707     8.786
    32   6 C        3.811     0.037    19.946     6.357
    33   6 C        2.974    -0.005    28.149     8.703
    34   6 C        2.923    -0.037    28.908     8.817
    35   6 C        2.920    -0.026    28.657     8.779
    36   6 C        2.920    -0.029    28.725     8.789
    37   6 C        2.920    -0.028    28.707     8.786
    38   6 C        2.923    -0.038    28.941     8.822
    39   1 H        0.926     0.048     2.346     2.395
    40   1 H        0.926     0.067     2.117     2.276
    41   1 H        0.926     0.070     2.090     2.261
    42   1 H        0.926     0.065     2.141     2.288
    43   1 H        0.923     0.062     2.180     2.309
    44   1 H        0.804     0.348     0.594     1.210
    45   1 H        0.926     0.045     2.381     2.413
    46   1 H        0.926     0.067     2.122     2.278
    47   1 H        0.926     0.067     2.114     2.274
    48   1 H        0.926     0.064     2.147     2.292
    49   1 H        0.924     0.074     2.041     2.234
    50   1 H        0.926     0.027     2.629     2.536
    51   1 H        0.926     0.037     2.492     2.468
    52   1 H        0.926     0.039     2.462     2.454
    53   1 H        0.926     0.042     2.426     2.436
    54   1 H        0.926     0.043     2.407     2.426
    55   1 H        0.924     0.051     2.308     2.376
    56   1 H        0.926     0.059     2.213     2.326
    57   1 H        0.926     0.045     2.389     2.417
    58   1 H        0.926     0.041     2.435     2.440
    59   1 H        0.926     0.040     2.442     2.444
    60   1 H        0.926     0.029     2.595     2.519

Wiberg/Mayer (AO) data.
largest (>0.10) Wiberg bond orders for each atom

     #   Z sym  total        # sym  WBO       # sym  WBO       # sym  WBO
 ---------------------------------------------------------------------------
     1   8 O    2.053 --     2 C    1.646    10 N    0.186
     2   6 C    3.945 --     1 O    1.646    10 N    1.230     3 C    0.977
     3   6 C    3.988 --     4 C    1.399     9 C    1.397     2 C    0.977
     4   6 C    3.990 --     5 C    1.448     3 C    1.399    39 H    0.968
                             8 C    0.108
     5   6 C    3.989 --     4 C    1.448     6 C    1.392    40 H    0.966
                             9 C    0.109
     6   6 C    3.891 --     8 C    1.393     5 C    1.392     7 F    0.967
     7   9 F    1.099 --     6 C    0.967
     8   6 C    3.988 --     9 C    1.449     6 C    1.393    41 H    0.965
                             4 C    0.108
     9   6 C    3.988 --     8 C    1.449     3 C    1.397    42 H    0.967
                             5 C    0.109
    10   7 N    3.469 --     2 C    1.230    11 C    0.974    32 C    0.958
                             1 O    0.186
    11   6 C    3.965 --    15 N    0.990    10 N    0.974    43 H    0.943
                            12 C    0.906
    12   6 C    3.923 --    14 O    1.747    13 O    1.154    11 C    0.906
    13   8 O    2.213 --    12 C    1.154    44 H    0.854    14 O    0.170
    14   8 O    2.045 --    12 C    1.747    13 O    0.170
    15   7 N    3.459 --    16 C    1.201    11 C    0.990    25 C    0.956
                            24 O    0.190
    16   6 C    3.948 --    24 O    1.698    15 N    1.201    17 C    0.966
    17   6 C    3.988 --    23 C    1.403    18 C    1.400    16 C    0.966
    18   6 C    3.991 --    19 C    1.448    17 C    1.400    45 H    0.969
                            22 C    0.109
    19   6 C    3.989 --    18 C    1.448    20 C    1.393    46 H    0.965
                            23 C    0.109
    20   6 C    3.889 --    22 C    1.396    19 C    1.393    21 F    0.963
    21   9 F    1.095 --    20 C    0.963
    22   6 C    3.989 --    23 C    1.445    20 C    1.396    47 H    0.965
                            18 C    0.109
    23   6 C    3.988 --    22 C    1.445    17 C    1.403    48 H    0.967
                            19 C    0.109
    24   8 O    2.026 --    16 C    1.698    15 N    0.190
    25   6 C    3.960 --    26 C    0.986    15 N    0.956    32 C    0.955
                            49 H    0.953
    26   6 C    3.985 --    31 C    1.417    27 C    1.410    25 C    0.986
                            29 C    0.110
    27   6 C    3.992 --    28 C    1.448    26 C    1.410    50 H    0.969
                            30 C    0.112
    28   6 C    3.992 --    27 C    1.448    29 C    1.436    51 H    0.971
                            31 C    0.111
    29   6 C    3.990 --    30 C    1.442    28 C    1.436    52 H    0.971
                            26 C    0.110
    30   6 C    3.992 --    29 C    1.442    31 C    1.441    53 H    0.970
                            27 C    0.112
    31   6 C    3.990 --    30 C    1.441    26 C    1.417    54 H    0.968
                            28 C    0.111
    32   6 C    3.962 --    33 C    0.988    10 N    0.958    25 C    0.955
                            55 H    0.954
    33   6 C    3.985 --    38 C    1.415    34 C    1.408    32 C    0.988
                            36 C    0.109
    34   6 C    3.989 --    35 C    1.448    33 C    1.408    56 H    0.963
                            37 C    0.112
    35   6 C    3.992 --    34 C    1.448    36 C    1.436    57 H    0.970
                            38 C    0.110
    36   6 C    3.990 --    37 C    1.441    35 C    1.436    58 H    0.971
                            33 C    0.109
    37   6 C    3.991 --    38 C    1.441    36 C    1.441    59 H    0.970
                            34 C    0.112
    38   6 C    3.991 --    37 C    1.441    33 C    1.415    60 H    0.968
                            35 C    0.110
    39   1 H    0.998 --     4 C    0.968
    40   1 H    0.995 --     5 C    0.966
    41   1 H    0.995 --     8 C    0.965
    42   1 H    0.996 --     9 C    0.967
    43   1 H    0.995 --    11 C    0.943
    44   1 H    0.878 --    13 O    0.854
    45   1 H    0.998 --    18 C    0.969
    46   1 H    0.995 --    19 C    0.965
    47   1 H    0.995 --    22 C    0.965
    48   1 H    0.996 --    23 C    0.967
    49   1 H    0.994 --    25 C    0.953
    50   1 H    0.999 --    27 C    0.969
    51   1 H    0.998 --    28 C    0.971
    52   1 H    0.998 --    29 C    0.971
    53   1 H    0.998 --    30 C    0.970
    54   1 H    0.998 --    31 C    0.968
    55   1 H    0.997 --    32 C    0.954
    56   1 H    0.997 --    34 C    0.963
    57   1 H    0.998 --    35 C    0.970
    58   1 H    0.998 --    36 C    0.971
    59   1 H    0.998 --    37 C    0.970
    60   1 H    0.999 --    38 C    0.968
 ---------------------------------------------------------------------------

molecular dipole:
                 x           y           z       tot (Debye)
 q only:        1.003      -0.648      -0.940
   full:        1.013      -0.405      -1.003       3.767

           -------------------------------------------------
          | TOTAL ENERGY             -107.078265292502 Eh   |
          | GRADIENT NORM               0.000246799532 Eh/Î± |
          | HOMO-LUMO GAP               3.540636504431 eV   |
           -------------------------------------------------

 * finished run on 2022/03/17 at 01:30:46.054
