   * xtb version 6.3.3 (4ae9cef) compiled by 'conda@95abc7406d43' on 2020-10-14
          program call               : xtb acid_28.xyz --opt --chrg 0 --uhf 0 --gfn 2
          number of atoms            :                    72
          number of electrons        :                   226
          charge                     :                     0
          spin                       :                   0.0

   ID    Z sym.   atoms
    1    6 C      1-22, 24-26, 28-31, 33, 34, 38-44
    2    7 N      23, 37
    3   53 I      27, 45
    4    8 O      32, 35, 36, 46
    5    1 H      47-72

          :  Hamiltonian                  GFN2-xTB          :
 * total energy  :  -124.3912504 Eh     change       -0.4283066E-08 Eh
 * total energy  :  -124.4087018 Eh     change       -0.1745138E-01 Eh
 * total energy  :  -124.4137280 Eh     change       -0.5026208E-02 Eh
 * total energy  :  -124.4152073 Eh     change       -0.1479356E-02 Eh
 * total energy  :  -124.4160262 Eh     change       -0.8188821E-03 Eh
 * total energy  :  -124.4162690 Eh     change       -0.2427804E-03 Eh
 * total energy  :  -124.4164554 Eh     change       -0.1864244E-03 Eh
 * total energy  :  -124.4166773 Eh     change       -0.2219256E-03 Eh
 * total energy  :  -124.4169313 Eh     change       -0.2539113E-03 Eh
 * total energy  :  -124.4171605 Eh     change       -0.2292580E-03 Eh
 * total energy  :  -124.4179504 Eh     change       -0.1365694E-04 Eh
 * total energy  :  -124.4179597 Eh     change       -0.9342428E-05 Eh
 * total energy  :  -124.4179673 Eh     change       -0.7556321E-05 Eh
 * total energy  :  -124.4179747 Eh     change       -0.7449231E-05 Eh
 * total energy  :  -124.4179828 Eh     change       -0.8043154E-05 Eh
 * total energy  :  -124.4179816 Eh     change        0.1222978E-05 Eh
 * total energy  :  -124.4179875 Eh     change       -0.5942236E-05 Eh
 * total energy  :  -124.4179925 Eh     change       -0.5021763E-05 Eh
 * total energy  :  -124.4179964 Eh     change       -0.3866955E-05 Eh
   *** GEOMETRY OPTIMIZATION CONVERGED AFTER 35 ITERATIONS ***

 final structure:
================
72
 xtb: 6.3.3 (4ae9cef)
C         2.04099710726133    0.84119511179325   -1.95556170741237
C         2.87040201560673    1.55151596221175   -2.77313020343576
C         3.51797729128741    2.71532163463503   -2.30878368987643
C         4.37938131195306    3.47337224722394   -3.12783172878766
C         4.98856068977312    4.59815715570569   -2.64624309357017
C         4.76356709188977    5.01532595369272   -1.32488597739440
C         3.93447759774172    4.30103299197507   -0.50614754460823
C         3.29183740501291    3.13516331803714   -0.97208172274046
C         2.43717101603171    2.37377161440880   -0.14967098874595
C         1.82401686823559    1.24640757816680   -0.62397615111088
C         0.88362747694027    0.45446669246279    0.24307722696501
C        -0.58244907957660    0.64659186378625   -0.18641078635621
C        -1.37776472040613    1.53905930671750    0.72954627489391
C        -1.94117167243353    2.69109935688302    0.24919905291412
C        -2.71124128629670    3.52638248139997    1.08225522250089
C        -3.30734927615579    4.71279799084921    0.60601652388978
C        -4.06133441959079    5.49540639602233    1.43446529034887
C        -4.25226717723939    5.12981540253451    2.77657601035395
C        -3.68621404947287    3.98713403517086    3.26823708993891
C        -2.90389317912708    3.15724907049707    2.43896012434247
C        -2.30711369489463    1.96943298996800    2.90905544893982
C        -1.56116701332831    1.18195259316531    2.07989450519303
N        -1.12222277185815   -0.71279549936258   -0.23106077543139
C        -2.33168076186555   -0.94001479707700   -0.80270961762827
C        -2.73306311651005   -2.38423895415118   -0.87190511769265
C        -3.48646172133107   -2.96389377055833    0.13686903706385
I        -3.97298592036944   -1.83243922332361    1.85784319377823
C        -3.90950580520393   -4.27821709781215    0.04194543224601
C        -3.57633220622213   -5.02166406808304   -1.07659692506668
C        -2.82916095358900   -4.45419991719013   -2.09503582485879
C        -2.41408170679569   -3.13843606023101   -1.99446693705659
O        -3.03103943033337   -0.04822820075664   -1.22600750380032
C        -0.13718591796436   -1.71286386894080    0.09334501548949
C        -0.38207355497599   -2.32822136913696    1.48952814671448
O        -0.79346148472379   -3.59317372968287    1.40323531628829
O        -0.19704400250404   -1.75149352830427    2.52012554467717
N         1.10469784126721   -0.98150458384717    0.09663765863503
C         2.32601638676829   -1.52665855934959    0.34145153571053
C         2.35659736331904   -3.02328006554957    0.24229671843128
C         2.18150569846783   -3.63198807113637   -0.99633994604177
C         2.25262867202719   -5.00690240676692   -1.12153837878047
C         2.50162648797065   -5.78760081936931   -0.00454128845546
C         2.69296976378049   -5.19460551892247    1.23012720029386
C         2.62947154075750   -3.81506482714956    1.34828607244631
I         2.92969179561512   -2.93328656202107    3.24309559306356
O         3.31187108839846   -0.86444102830678    0.56689723709933
H         1.54702098754478   -0.04868487222822   -2.32140793133519
H         3.04237395909149    1.23191828678962   -3.79129099912798
H         4.54982607854171    3.14780957972933   -4.14439956473820
H         5.64819778146213    5.17419283411871   -3.27867340345020
H         5.25355343974731    5.90667608371766   -0.96135043619231
H         3.75952663394907    4.61690212184554    0.51216149144134
H         2.27553981226473    2.69176786893411    0.87017755135867
H         1.01838022921763    0.73833278609336    1.29441512374402
H        -0.63130326981496    1.05815487202848   -1.20406286894285
H        -1.81170594916246    2.96925442209069   -0.78694927246556
H        -3.15934772009801    4.98793114973424   -0.42846016130386
H        -4.51797476774942    6.40130740004752    1.06302671511202
H        -4.85240261315212    5.76038007943209    3.41634403972711
H        -3.83108191691845    3.70022272178757    4.30004477587180
H        -2.45289964151785    1.68482440093410    3.94087661123080
H        -1.11368760153754    0.27701334142458    2.46070575077870
H        -4.49798748125296   -4.71637397420089    0.83331908563444
H        -3.90757837072845   -6.04606219969423   -1.15166707713895
H        -2.57529529459748   -5.03309012216395   -2.96971612478019
H        -1.84660116388931   -2.68056939311664   -2.79207685994518
H        -0.13989674775298   -2.53444903296314   -0.63836778781885
H        -0.94872920813973   -3.96145528836825    2.29066365235059
H         2.00755210117867   -3.01309237514767   -1.86512908679532
H         2.11866827094746   -5.46802740414148   -2.08801402275285
H         2.55628858252033   -6.86177280337801   -0.09335748662518
H         2.89873928250803   -5.80055170358508    2.09914972278632

          :  Hamiltonian                  GFN2-xTB          :
         :: total energy            -124.417996386246 Eh    ::
         :: gradient norm              0.000560606105 Eh/a0 ::
         :: HOMO-LUMO gap              2.594400272994 eV    ::
         :: SCC energy              -126.344163735471 Eh    ::
         :: -> dispersion             -0.115463732867 Eh    ::
         :: repulsion energy           1.923020819250 Eh    ::

    * Orbital Energies and Occupations

         #    Occupation            Energy/Eh            Energy/eV
      -------------------------------------------------------------
         1        2.0000           -0.7871171             -21.4185
       ...           ...                  ...                  ...
       101        2.0000           -0.4172726             -11.3546
       102        2.0000           -0.4153452             -11.3021
       103        2.0000           -0.4142446             -11.2722
       104        2.0000           -0.4120479             -11.2124
       105        2.0000           -0.4103674             -11.1667
       106        2.0000           -0.4095595             -11.1447
       107        2.0000           -0.4090002             -11.1295
       108        2.0000           -0.4062708             -11.0552
       109        2.0000           -0.4037198             -10.9858
       110        2.0000           -0.3996290             -10.8745
       111        2.0000           -0.3950690             -10.7504
       112        2.0000           -0.3814929             -10.3810
       113        2.0000           -0.3753923             -10.2149 (HOMO)
       114                         -0.2800499              -7.6205 (LUMO)
       115                         -0.2682994              -7.3008
       116                         -0.2632724              -7.1640
       117                         -0.2627323              -7.1493
       118                         -0.2622856              -7.1372
       119                         -0.2613805              -7.1125
       120                         -0.2568380              -6.9889
       121                         -0.2435415              -6.6271
       122                         -0.2340099              -6.3677
       123                         -0.2330207              -6.3408
       124                         -0.2268668              -6.1734
       ...                                ...                  ...
       220                          0.7011849              19.0802
      -------------------------------------------------------------
                  HL-Gap            0.0953425 Eh            2.5944 eV

     #   Z          covCN         q      C6AA      Î±(0)
     1   6 C        2.920    -0.031    28.777     8.797
     2   6 C        2.917    -0.033    28.823     8.804
     3   6 C        2.988     0.015    27.677     8.630
     4   6 C        2.918    -0.034    28.838     8.806
     5   6 C        2.916    -0.029    28.714     8.787
     6   6 C        2.916    -0.028    28.701     8.785
     7   6 C        2.918    -0.032    28.804     8.801
     8   6 C        2.987     0.018    27.589     8.616
     9   6 C        2.923    -0.034    28.848     8.808
    10   6 C        2.971     0.010    27.792     8.647
    11   6 C        3.824     0.047    19.773     6.328
    12   6 C        3.824     0.047    19.767     6.327
    13   6 C        2.969     0.004    27.938     8.670
    14   6 C        2.923    -0.033    28.826     8.805
    15   6 C        2.987     0.017    27.624     8.622
    16   6 C        2.918    -0.033    28.818     8.803
    17   6 C        2.916    -0.029    28.727     8.789
    18   6 C        2.916    -0.029    28.725     8.789
    19   6 C        2.918    -0.034    28.837     8.806
    20   6 C        2.987     0.015    27.671     8.629
    21   6 C        2.918    -0.032    28.799     8.800
    22   6 C        2.918    -0.038    28.950     8.823
    23   7 N        2.764    -0.115    23.510     7.201
    24   6 C        2.792     0.278    22.299     7.735
    25   6 C        3.103    -0.023    28.439     8.739
    26   6 C        2.959     0.055    26.758     8.485
    27  53 I        1.247    -0.115   380.447    33.671
    28   6 C        3.048    -0.030    28.705     8.787
    29   6 C        2.923    -0.025    28.631     8.775
    30   6 C        2.918    -0.027    28.684     8.783
    31   6 C        2.926    -0.026    28.654     8.778
    32   8 O        0.859    -0.405    21.777     6.257
    33   6 C        3.752     0.096    19.053     6.225
    34   6 C        2.688     0.350    21.060     7.510
    35   8 O        1.659    -0.379    20.441     6.103
    36   8 O        0.856    -0.355    20.807     6.116
    37   7 N        2.768    -0.118    23.570     7.210
    38   6 C        2.784     0.280    22.268     7.729
    39   6 C        3.097    -0.027    28.550     8.757
    40   6 C        2.926    -0.029    28.728     8.790
    41   6 C        2.918    -0.028    28.711     8.787
    42   6 C        2.922    -0.026    28.643     8.776
    43   6 C        3.056    -0.032    28.736     8.791
    44   6 C        2.958     0.054    26.783     8.489
    45  53 I        1.243    -0.101   379.413    33.625
    46   8 O        0.859    -0.395    21.582     6.229
    47   1 H        0.925     0.021     2.723     2.580
    48   1 H        0.926     0.035     2.516     2.480
    49   1 H        0.926     0.033     2.547     2.496
    50   1 H        0.926     0.033     2.548     2.496
    51   1 H        0.926     0.034     2.534     2.489
    52   1 H        0.926     0.037     2.492     2.469
    53   1 H        0.926     0.040     2.443     2.444
    54   1 H        0.924     0.066     2.125     2.280
    55   1 H        0.923     0.058     2.219     2.330
    56   1 H        0.926     0.037     2.484     2.464
    57   1 H        0.926     0.034     2.533     2.489
    58   1 H        0.926     0.031     2.567     2.506
    59   1 H        0.926     0.031     2.566     2.505
    60   1 H        0.926     0.034     2.526     2.485
    61   1 H        0.926     0.041     2.436     2.441
    62   1 H        0.926     0.054     2.270     2.356
    63   1 H        0.926     0.059     2.211     2.325
    64   1 H        0.926     0.050     2.315     2.379
    65   1 H        0.926     0.048     2.344     2.394
    66   1 H        0.926     0.042     2.427     2.436
    67   1 H        0.923     0.055     2.254     2.348
    68   1 H        0.804     0.351     0.586     1.202
    69   1 H        0.926     0.039     2.466     2.456
    70   1 H        0.926     0.047     2.362     2.403
    71   1 H        0.926     0.050     2.323     2.384
    72   1 H        0.926     0.059     2.211     2.325

Wiberg/Mayer (AO) data.
largest (>0.10) Wiberg bond orders for each atom

     #   Z sym  total        # sym  WBO       # sym  WBO       # sym  WBO
 ---------------------------------------------------------------------------
     1   6 C    3.992 --     2 C    1.566    10 C    1.292    47 H    0.969
     2   6 C    3.992 --     1 C    1.566     3 C    1.275    48 H    0.968
                             9 C    0.114
     3   6 C    3.990 --     4 C    1.283     2 C    1.275     8 C    1.251
     4   6 C    3.992 --     5 C    1.555     3 C    1.283    49 H    0.968
                             7 C    0.118
     5   6 C    3.990 --     4 C    1.555     6 C    1.321    50 H    0.971
     6   6 C    3.992 --     7 C    1.557     5 C    1.321    51 H    0.971
     7   6 C    3.989 --     6 C    1.557     8 C    1.279    52 H    0.968
                             4 C    0.118
     8   6 C    3.990 --     9 C    1.281     7 C    1.279     3 C    1.251
     9   6 C    3.989 --    10 C    1.528     8 C    1.281    53 H    0.965
                             2 C    0.114
    10   6 C    3.984 --     9 C    1.528     1 C    1.292    11 C    0.990
    11   6 C    3.955 --    10 C    0.990    12 C    0.958    54 H    0.952
                            37 N    0.949
    12   6 C    3.953 --    13 C    0.988    11 C    0.958    55 H    0.953
                            23 N    0.943
    13   6 C    3.983 --    14 C    1.526    22 C    1.295    12 C    0.988
    14   6 C    3.989 --    13 C    1.526    15 C    1.282    56 H    0.965
                            21 C    0.115
    15   6 C    3.990 --    14 C    1.282    16 C    1.278    20 C    1.251
    16   6 C    3.990 --    17 C    1.558    15 C    1.278    57 H    0.968
                            19 C    0.118
    17   6 C    3.992 --    16 C    1.558    18 C    1.320    58 H    0.971
    18   6 C    3.990 --    19 C    1.557    17 C    1.320    59 H    0.971
    19   6 C    3.992 --    18 C    1.557    20 C    1.281    60 H    0.968
                            16 C    0.118
    20   6 C    3.990 --    19 C    1.281    21 C    1.278    15 C    1.251
    21   6 C    3.991 --    22 C    1.561    20 C    1.278    61 H    0.968
                            14 C    0.115
    22   6 C    3.990 --    21 C    1.561    13 C    1.295    62 H    0.959
    23   7 N    3.466 --    24 C    1.211    33 C    0.986    12 C    0.943
                            32 O    0.194
    24   6 C    3.949 --    32 O    1.705    23 N    1.211    25 C    0.949
    25   6 C    3.987 --    31 C    1.402    26 C    1.398    24 C    0.949
                            29 C    0.108
    26   6 C    3.957 --    28 C    1.418    25 C    1.398    27 I    0.976
                            30 C    0.103
    27  53 I    1.120 --    26 C    0.976
    28   6 C    3.989 --    29 C    1.439    26 C    1.418    63 H    0.967
                            31 C    0.110
    29   6 C    3.991 --    28 C    1.439    30 C    1.434    64 H    0.968
                            25 C    0.108
    30   6 C    3.991 --    31 C    1.441    29 C    1.434    65 H    0.969
                            26 C    0.103
    31   6 C    3.990 --    30 C    1.441    25 C    1.402    66 H    0.968
                            28 C    0.110
    32   8 O    2.041 --    24 C    1.705    23 N    0.194
    33   6 C    3.974 --    37 N    0.988    23 N    0.986    67 H    0.944
                            34 C    0.904
    34   6 C    3.920 --    36 O    1.795    35 O    1.144    33 C    0.904
    35   8 O    2.208 --    34 C    1.144    68 H    0.850    36 O    0.182
    36   8 O    2.095 --    34 C    1.795    35 O    0.182
    37   7 N    3.454 --    38 C    1.201    33 C    0.988    11 C    0.949
                            46 O    0.190
    38   6 C    3.949 --    46 O    1.712    37 N    1.201    39 C    0.955
    39   6 C    3.987 --    44 C    1.398    40 C    1.395    38 C    0.955
                            42 C    0.107
    40   6 C    3.991 --    41 C    1.446    39 C    1.395    69 H    0.967
                            43 C    0.109
    41   6 C    3.991 --    40 C    1.446    42 C    1.428    70 H    0.969
                            44 C    0.101
    42   6 C    3.990 --    43 C    1.444    41 C    1.428    71 H    0.968
                            39 C    0.107
    43   6 C    3.989 --    42 C    1.444    44 C    1.413    72 H    0.967
                            40 C    0.109
    44   6 C    3.961 --    43 C    1.413    39 C    1.398    45 I    0.986
                            41 C    0.101
    45  53 I    1.136 --    44 C    0.986
    46   8 O    2.053 --    38 C    1.712    37 N    0.190
    47   1 H    0.999 --     1 C    0.969
    48   1 H    0.998 --     2 C    0.968
    49   1 H    0.998 --     4 C    0.968
    50   1 H    0.998 --     5 C    0.971
    51   1 H    0.998 --     6 C    0.971
    52   1 H    0.998 --     7 C    0.968
    53   1 H    0.998 --     9 C    0.965
    54   1 H    0.995 --    11 C    0.952
    55   1 H    0.996 --    12 C    0.953
    56   1 H    0.998 --    14 C    0.965
    57   1 H    0.998 --    16 C    0.968
    58   1 H    0.999 --    17 C    0.971
    59   1 H    0.999 --    18 C    0.971
    60   1 H    0.998 --    19 C    0.968
    61   1 H    0.997 --    21 C    0.968
    62   1 H    0.997 --    22 C    0.959
    63   1 H    0.996 --    28 C    0.967
    64   1 H    0.997 --    29 C    0.968
    65   1 H    0.996 --    30 C    0.969
    66   1 H    0.998 --    31 C    0.968
    67   1 H    0.996 --    33 C    0.944
    68   1 H    0.876 --    35 O    0.850
    69   1 H    0.998 --    40 C    0.967
    70   1 H    0.996 --    41 C    0.969
    71   1 H    0.997 --    42 C    0.968
    72   1 H    0.996 --    43 C    0.967
 ---------------------------------------------------------------------------

molecular dipole:
                 x           y           z       tot (Debye)
 q only:       -0.238      -1.484      -0.874
   full:       -0.226      -2.190      -2.067       7.676

           -------------------------------------------------
          | TOTAL ENERGY             -124.417996386246 Eh   |
          | GRADIENT NORM               0.000560606105 Eh/Î± |
          | HOMO-LUMO GAP               2.594400272994 eV   |
           -------------------------------------------------

 * finished run on 2022/03/16 at 23:18:12.678
