   * xtb version 6.3.3 (4ae9cef) compiled by 'conda@95abc7406d43' on 2020-10-14
          program call               : xtb alk_4.xyz --opt --chrg 0 --uhf 0 --gfn 2
          number of atoms            :                    19
          number of electrons        :                    52
          charge                     :                     0
          spin                       :                   0.0

   ID    Z sym.   atoms
    1    6 C      1-9
    2   35 Br     10
    3    1 H      11-19

          :  Hamiltonian                  GFN2-xTB          :
 * total energy  :   -27.8988544 Eh     change       -0.4548824E-09 Eh
 * total energy  :   -27.9018678 Eh     change       -0.3013404E-02 Eh
 * total energy  :   -27.9022692 Eh     change       -0.4013102E-03 Eh
 * total energy  :   -27.9024177 Eh     change       -0.1485167E-03 Eh
 * total energy  :   -27.9024929 Eh     change       -0.7525921E-04 Eh
 * total energy  :   -27.9025324 Eh     change       -0.3943866E-04 Eh
 * total energy  :   -27.9025696 Eh     change       -0.3725586E-04 Eh
 * total energy  :   -27.9026082 Eh     change       -0.3859649E-04 Eh
 * total energy  :   -27.9026257 Eh     change       -0.1745517E-04 Eh
 * total energy  :   -27.9026377 Eh     change       -0.1197833E-04 Eh
 * total energy  :   -27.9026456 Eh     change       -0.7907348E-05 Eh
 * total energy  :   -27.9026541 Eh     change       -0.8547371E-05 Eh
 * total energy  :   -27.9026636 Eh     change       -0.9452520E-05 Eh
 * total energy  :   -27.9026696 Eh     change       -0.6082155E-05 Eh
 * total energy  :   -27.9026751 Eh     change       -0.5430416E-05 Eh
 * total energy  :   -27.9026768 Eh     change       -0.1740629E-05 Eh
   *** GEOMETRY OPTIMIZATION CONVERGED AFTER 16 ITERATIONS ***

 final structure:
================
19
 xtb: 6.3.3 (4ae9cef)
C        -2.34229160129723   -0.10531207476494    0.92936248888262
C        -2.32169258997022    0.63870046436711   -0.15931592385178
C        -1.14434510436152    0.81735141502712   -1.07874372475298
C         0.12326049233558    0.23593082704410   -0.53098892094009
C         0.86940811327531    0.89014579888129    0.44392286403247
C         2.02655660344023    0.34378422626874    0.97062450553416
C         2.45922018720938   -0.89259571633126    0.52602615124203
C         1.73262014777234   -1.56826071254347   -0.43902766865862
C         0.57986044925301   -1.00572976541923   -0.95747157359564
Br        0.30971479810147    2.59551886929734    1.09818520409753
H        -3.22481322023518   -0.18603644756929    1.53983081098651
H        -1.48212313407046   -0.66333829684160    1.26239736046027
H        -3.20626970134666    1.18015447132719   -0.46565075628107
H        -1.38115249065690    0.34681264838031   -2.03791112382896
H        -1.01489102936033    1.88785392938965   -1.26642357631309
H         2.58078460995190    0.88183051121907    1.72451558906711
H         3.35945181358354   -1.32398821576566    0.93642952266064
H         2.06297230152166   -2.53493595702057   -0.78787130926634
H         0.01372835485401   -1.53788697494581   -1.70789091947449

          :  Hamiltonian                  GFN2-xTB          :
         :: total energy             -27.902676816434 Eh    ::
         :: gradient norm              0.000785666740 Eh/a0 ::
         :: HOMO-LUMO gap              4.099358862116 eV    ::
         :: SCC energy               -28.361653458053 Eh    ::
         :: -> dispersion             -0.018937360637 Eh    ::
         :: repulsion energy           0.458859292939 Eh    ::

    * Orbital Energies and Occupations

         #    Occupation            Energy/Eh            Energy/eV
      -------------------------------------------------------------
         1        2.0000           -0.8323732             -22.6500
       ...           ...                  ...                  ...
        14        2.0000           -0.4972885             -13.5319
        15        2.0000           -0.4935656             -13.4306
        16        2.0000           -0.4905425             -13.3483
        17        2.0000           -0.4837953             -13.1647
        18        2.0000           -0.4662444             -12.6872
        19        2.0000           -0.4501559             -12.2494
        20        2.0000           -0.4424298             -12.0391
        21        2.0000           -0.4406740             -11.9913
        22        2.0000           -0.4330326             -11.7834
        23        2.0000           -0.4168043             -11.3418
        24        2.0000           -0.4056839             -11.0392
        25        2.0000           -0.4054141             -11.0319
        26        2.0000           -0.3951997             -10.7539 (HOMO)
        27                         -0.2445511              -6.6546 (LUMO)
        28                         -0.2414802              -6.5710
        29                         -0.2050066              -5.5785
        30                         -0.2004855              -5.4555
        31                         -0.1176999              -3.2028
        32                          0.0391185               1.0645
        33                          0.0422540               1.1498
        34                          0.0456220               1.2414
        35                          0.0802160               2.1828
        36                          0.0855137               2.3269
        37                          0.1121350               3.0513
       ...                                ...                  ...
        54                          0.6441097              17.5271
      -------------------------------------------------------------
                  HL-Gap            0.1506487 Eh            4.0994 eV

     #   Z          covCN         q      C6AA      Î±(0)
     1   6 C        2.836    -0.088    30.205     9.006
     2   6 C        2.886    -0.021    28.525     8.756
     3   6 C        3.814    -0.057    21.597     6.614
     4   6 C        3.029     0.014    27.664     8.627
     5   6 C        2.922     0.076    26.305     8.411
     6   6 C        3.002    -0.036    28.875     8.815
     7   6 C        2.923    -0.032    28.792     8.799
     8   6 C        2.917    -0.032    28.791     8.799
     9   6 C        2.930    -0.036    28.896     8.816
    10  35 Br       1.069    -0.178   189.974    22.223
    11   1 H        0.926     0.037     2.485     2.465
    12   1 H        0.926     0.032     2.551     2.498
    13   1 H        0.925     0.036     2.504     2.475
    14   1 H        0.924     0.048     2.343     2.394
    15   1 H        0.924     0.062     2.170     2.304
    16   1 H        0.926     0.052     2.298     2.371
    17   1 H        0.926     0.041     2.434     2.439
    18   1 H        0.926     0.040     2.454     2.450
    19   1 H        0.926     0.041     2.439     2.442

Wiberg/Mayer (AO) data.
largest (>0.10) Wiberg bond orders for each atom

     #   Z sym  total        # sym  WBO       # sym  WBO       # sym  WBO
 ---------------------------------------------------------------------------
     1   6 C    3.993 --     2 C    1.980    11 H    0.977    12 H    0.974
     2   6 C    3.990 --     1 C    1.980     3 C    1.005    13 H    0.966
     3   6 C    3.997 --     4 C    1.016     2 C    1.005    14 H    0.955
                            15 H    0.950
     4   6 C    3.988 --     9 C    1.406     5 C    1.381     3 C    1.016
                             7 C    0.107
     5   6 C    3.935 --     6 C    1.418     4 C    1.381    10 Br   0.974
                             8 C    0.100
     6   6 C    3.990 --     7 C    1.437     5 C    1.418    16 H    0.968
                             9 C    0.108
     7   6 C    3.992 --     6 C    1.437     8 C    1.435    17 H    0.969
                             4 C    0.107
     8   6 C    3.992 --     9 C    1.443     7 C    1.435    18 H    0.970
                             5 C    0.100
     9   6 C    3.991 --     8 C    1.443     4 C    1.406    19 H    0.967
                             6 C    0.108
    10  35 Br   1.117 --     5 C    0.974
    11   1 H    0.999 --     1 C    0.977
    12   1 H    0.999 --     1 C    0.974
    13   1 H    0.998 --     2 C    0.966
    14   1 H    0.997 --     3 C    0.955
    15   1 H    0.996 --     3 C    0.950
    16   1 H    0.997 --     6 C    0.968
    17   1 H    0.998 --     7 C    0.969
    18   1 H    0.997 --     8 C    0.970
    19   1 H    0.998 --     9 C    0.967
 ---------------------------------------------------------------------------

molecular dipole:
                 x           y           z       tot (Debye)
 q only:        0.091      -0.685      -0.487
   full:        0.216      -1.152      -0.625       3.376

           -------------------------------------------------
          | TOTAL ENERGY              -27.902676816434 Eh   |
          | GRADIENT NORM               0.000785666740 Eh/Î± |
          | HOMO-LUMO GAP               4.099358862116 eV   |
           -------------------------------------------------

 * finished run on 2022/03/17 at 02:19:36.702
