   * xtb version 6.3.3 (4ae9cef) compiled by 'conda@95abc7406d43' on 2020-10-14
          program call               : xtb acid_27.xyz --opt --chrg 0 --uhf 0 --gfn 2
          number of atoms            :                    84
          number of electrons        :                   226
          charge                     :                     0
          spin                       :                   0.0

   ID    Z sym.   atoms
    1    8 O      1, 16, 17, 30
    2    6 C      2-12, 14, 15, 19-29, 31-44
    3    7 N      13, 18
    4    1 H      45-84

          :  Hamiltonian                  GFN2-xTB          :
 * total energy  :  -123.9063693 Eh     change       -0.1281464E-08 Eh
 * total energy  :  -123.9197192 Eh     change       -0.1334992E-01 Eh
 * total energy  :  -123.9241685 Eh     change       -0.4449328E-02 Eh
 * total energy  :  -123.9262538 Eh     change       -0.2085288E-02 Eh
 * total energy  :  -123.9279097 Eh     change       -0.1655897E-02 Eh
 * total energy  :  -123.9290226 Eh     change       -0.1112905E-02 Eh
 * total energy  :  -123.9298927 Eh     change       -0.8701206E-03 Eh
 * total energy  :  -123.9307567 Eh     change       -0.8639423E-03 Eh
 * total energy  :  -123.9312026 Eh     change       -0.4458934E-03 Eh
 * total energy  :  -123.9321479 Eh     change       -0.9453623E-03 Eh
 * total energy  :  -123.9453403 Eh     change       -0.3110035E-04 Eh
 * total energy  :  -123.9453625 Eh     change       -0.2217026E-04 Eh
 * total energy  :  -123.9453784 Eh     change       -0.1586007E-04 Eh
 * total energy  :  -123.9453910 Eh     change       -0.1259014E-04 Eh
 * total energy  :  -123.9454021 Eh     change       -0.1111949E-04 Eh
 * total energy  :  -123.9454119 Eh     change       -0.9825010E-05 Eh
 * total energy  :  -123.9454203 Eh     change       -0.8387569E-05 Eh
 * total energy  :  -123.9454269 Eh     change       -0.6614717E-05 Eh
 * total energy  :  -123.9454317 Eh     change       -0.4765252E-05 Eh
   *** GEOMETRY OPTIMIZATION CONVERGED AFTER 146 ITERATIONS ***

 final structure:
================
84
 xtb: 6.3.3 (4ae9cef)
O        -2.64394099140537   -1.94754520944864    2.27470002471506
C        -2.03475966953801   -1.32024196558739    1.43655511050271
C        -2.36103363918784    0.08766475460379    1.06653457561735
C        -2.35821951465188    1.08026142231248    2.03429723841139
C        -2.67006972102029    2.38720437227051    1.70179737291798
C        -3.01398763379440    2.73804052157675    0.40208698113038
C        -3.35798170478771    4.16006758772008   -0.01045745045170
C        -4.78776502717426    4.18765345356996   -0.56897463591384
C        -2.36498232763309    4.61556093250707   -1.08936258866915
C        -3.28286161571087    5.14847668012310    1.15612595182113
C        -3.04632873784003    1.72365836713838   -0.55289659508553
C        -2.72514585890505    0.42071413887739   -0.23297718023346
N        -1.01121867427970   -1.87267167081631    0.71639494899882
C         0.01798116079212   -1.12024137340554    0.03744165400663
C         0.74469296995198   -0.20039422542717    1.03989193273137
O         0.52657622127977    1.08465453797483    0.77400455779142
O         1.39097788495205   -0.59115805721882    1.97127372312511
N         0.90632599881218   -2.13018393038292   -0.48125202527518
C         2.03043188565086   -1.87947704025177   -1.20535454691211
C         2.35017831790839   -0.42026580986832   -1.30561784364727
C         3.36769959437957    0.09718412960552   -0.51757200122069
C         3.65798234575979    1.45049624782388   -0.54693654224926
C         2.94985616066914    2.32151928857948   -1.36602518460328
C         3.21190673713280    3.81878937887688   -1.40338062150850
C         3.59721911059841    4.22818879055069   -2.83167866281240
C         1.93216009811208    4.55375368611370   -0.97911856525551
C         4.34390292586795    4.24520496611876   -0.46479577624714
C         1.95741422527076    1.77975521849573   -2.18063162548260
C         1.65995012553867    0.43192612599396   -2.15751092554391
O         2.70987668709963   -2.75933545337232   -1.68409243195090
C         0.50175131927902   -3.47755231870743   -0.10016736619705
C         1.64233284243235   -4.30916182488483    0.42019790694445
C         2.53366112602804   -3.77640772868045    1.34330747964452
C         3.56509600696295   -4.55240864256886    1.83890017255925
C         3.70583781967814   -5.86780931534912    1.42964144739037
C         2.81065725668254   -6.40544358306963    0.52143397493149
C         1.78349147630918   -5.62820194854121    0.01636718223483
C        -0.56612103272666   -3.23417200153769    0.98509122515228
C        -1.68618886543111   -4.23285771225762    0.89581597730239
C        -2.64612655709078   -4.13055941096064   -0.10243763622396
C        -3.65401349514222   -5.07166172731388   -0.20099579773070
C        -3.70210909858579   -6.13262689387006    0.68716044998549
C        -2.73927884792135   -6.24683525997773    1.67482511251253
C        -1.73609910982314   -5.30003105305036    1.78026410007493
H        -2.10307937457078    0.82360493203030    3.05210403069058
H        -2.64464521722703    3.12999522373823    2.48222230233326
H        -4.88385254937443    3.55962872803277   -1.45007623980935
H        -5.06151870749337    5.20386761155300   -0.84445907811097
H        -5.49068048995404    3.83189621635008    0.18129102342718
H        -2.41812087243503    3.98178581517565   -1.97021604001640
H        -2.58470512404723    5.63718925322015   -1.39123286624324
H        -1.34858330696652    4.57973783213993   -0.70249086140780
H        -3.98664941198872    4.88183391544966    1.94090080725197
H        -2.27929692971025    5.18859803443089    1.57332331718474
H        -3.53829079263793    6.14500281741741    0.80199990126471
H        -3.33015569866636    1.94741684460554   -1.57001451063424
H        -2.77990591070645   -0.34842409613619   -0.99074439580872
H        -0.40019359541915   -0.48580048397749   -0.75637657660551
H         0.97370967482764    1.65511345064827    1.42066414038024
H         3.92717401227795   -0.56375368397004    0.12791879020381
H         4.45089873777166    1.81246199376438    0.08680928433312
H         4.47769649272446    3.67738270185083   -3.15479667345946
H         3.82272267785595    5.29174714425016   -2.86802578539432
H         2.79325935225403    4.02767617539988   -3.53393085189064
H         1.10309981426211    4.31565567254685   -1.63946436191021
H         2.09235774217109    5.62939282084707   -1.00540518173437
H         1.65213658849597    4.27130797706671    0.03415190962972
H         5.28110869135366    3.76954864636995   -0.74312040576742
H         4.48201918656512    5.32237485800147   -0.53118579793902
H         4.11334681906298    4.00119846937620    0.56979576900599
H         1.39861267756886    2.41693747154053   -2.84858500370989
H         0.89197763219969    0.03831692664160   -2.80818579725268
H         0.05017720839511   -3.97549036691417   -0.96969039062739
H         2.42258111610290   -2.75228095057831    1.66983875485625
H         4.25910196974396   -4.13005346935498    2.55068264244608
H         4.51220736319919   -6.47238316474139    1.81818049590618
H         2.91654540508042   -7.43047000484383    0.19835578350238
H         1.08956368851858   -6.04577495051391   -0.69867081570402
H        -0.10565275509028   -3.28264119235710    1.98141841057164
H        -2.61042267699756   -3.30283647504112   -0.79648954449658
H        -4.40416727611724   -4.97715563039887   -0.97254302750896
H        -4.49020543940557   -6.86698622452167    0.61038358864181
H        -2.77240257665095   -7.07271837638952    2.36976224009821
H        -0.98749631953706   -5.38643590688919    2.55402491693345

          :  Hamiltonian                  GFN2-xTB          :
         :: total energy            -123.945431678419 Eh    ::
         :: gradient norm              0.000801860868 Eh/a0 ::
         :: HOMO-LUMO gap              3.199619140235 eV    ::
         :: SCC energy              -125.886477609451 Eh    ::
         :: -> dispersion             -0.111842376497 Eh    ::
         :: repulsion energy           1.937778332149 Eh    ::

    * Orbital Energies and Occupations

         #    Occupation            Energy/Eh            Energy/eV
      -------------------------------------------------------------
         1        2.0000           -0.7750609             -21.0905
       ...           ...                  ...                  ...
       101        2.0000           -0.4176107             -11.3638
       102        2.0000           -0.4158660             -11.3163
       103        2.0000           -0.4157350             -11.3127
       104        2.0000           -0.4102017             -11.1622
       105        2.0000           -0.4087457             -11.1225
       106        2.0000           -0.4055254             -11.0349
       107        2.0000           -0.4048842             -11.0175
       108        2.0000           -0.4036136             -10.9829
       109        2.0000           -0.4016196             -10.9286
       110        2.0000           -0.3991929             -10.8626
       111        2.0000           -0.3933792             -10.7044
       112        2.0000           -0.3901155             -10.6156
       113        2.0000           -0.3865914             -10.5197 (HOMO)
       114                         -0.2690076              -7.3201 (LUMO)
       115                         -0.2497187              -6.7952
       116                         -0.2382897              -6.4842
       117                         -0.2335777              -6.3560
       118                         -0.2334486              -6.3525
       119                         -0.2275247              -6.1913
       120                         -0.2224456              -6.0531
       121                         -0.2197541              -5.9798
       122                         -0.2174757              -5.9178
       123                         -0.2102558              -5.7214
       124                         -0.2043938              -5.5618
       ...                                ...                  ...
       216                          0.6718966              18.2832
      -------------------------------------------------------------
                  HL-Gap            0.1175838 Eh            3.1996 eV

     #   Z          covCN         q      C6AA      Î±(0)
     1   8 O        0.859    -0.410    21.875     6.271
     2   6 C        2.763     0.271    22.426     7.755
     3   6 C        2.976    -0.024    28.603     8.773
     4   6 C        2.923    -0.025    28.625     8.774
     5   6 C        2.925    -0.038    28.936     8.821
     6   6 C        2.974     0.014    27.697     8.633
     7   6 C        3.903     0.026    20.089     6.371
     8   6 C        3.762    -0.107    22.594     6.776
     9   6 C        3.762    -0.107    22.593     6.776
    10   6 C        3.761    -0.110    22.644     6.783
    11   6 C        2.927    -0.033    28.813     8.803
    12   6 C        2.921    -0.032    28.788     8.799
    13   7 N        2.766    -0.122    23.648     7.222
    14   6 C        3.756     0.090    19.144     6.238
    15   6 C        2.689     0.349    21.067     7.512
    16   8 O        1.659    -0.369    20.251     6.075
    17   8 O        0.856    -0.384    21.356     6.196
    18   7 N        2.767    -0.116    23.529     7.204
    19   6 C        2.761     0.272    22.402     7.751
    20   6 C        2.978    -0.026    28.650     8.780
    21   6 C        2.923    -0.027    28.672     8.781
    22   6 C        2.925    -0.040    28.989     8.830
    23   6 C        2.973     0.011    27.768     8.644
    24   6 C        3.903     0.025    20.096     6.372
    25   6 C        3.762    -0.108    22.601     6.777
    26   6 C        3.762    -0.106    22.569     6.772
    27   6 C        3.761    -0.109    22.640     6.783
    28   6 C        2.927    -0.032    28.807     8.802
    29   6 C        2.920    -0.032    28.787     8.798
    30   8 O        0.858    -0.412    21.921     6.277
    31   6 C        3.823     0.047    19.772     6.328
    32   6 C        2.974     0.013    27.726     8.637
    33   6 C        2.923    -0.031    28.783     8.798
    34   6 C        2.920    -0.026    28.647     8.777
    35   6 C        2.920    -0.029    28.715     8.788
    36   6 C        2.920    -0.026    28.650     8.777
    37   6 C        2.924    -0.029    28.726     8.789
    38   6 C        3.830     0.047    19.758     6.325
    39   6 C        2.974     0.015    27.677     8.630
    40   6 C        2.924    -0.028    28.708     8.787
    41   6 C        2.920    -0.027    28.666     8.780
    42   6 C        2.920    -0.029    28.713     8.787
    43   6 C        2.920    -0.025    28.628     8.774
    44   6 C        2.924    -0.029    28.714     8.788
    45   1 H        0.926     0.041     2.441     2.443
    46   1 H        0.926     0.045     2.389     2.417
    47   1 H        0.925     0.038     2.475     2.460
    48   1 H        0.925     0.040     2.443     2.444
    49   1 H        0.925     0.037     2.488     2.467
    50   1 H        0.925     0.037     2.495     2.470
    51   1 H        0.925     0.041     2.439     2.442
    52   1 H        0.925     0.035     2.516     2.480
    53   1 H        0.925     0.039     2.465     2.455
    54   1 H        0.925     0.036     2.509     2.477
    55   1 H        0.925     0.040     2.455     2.450
    56   1 H        0.926     0.038     2.481     2.463
    57   1 H        0.926     0.029     2.607     2.525
    58   1 H        0.923     0.066     2.125     2.280
    59   1 H        0.804     0.343     0.605     1.221
    60   1 H        0.926     0.043     2.414     2.430
    61   1 H        0.926     0.045     2.379     2.412
    62   1 H        0.925     0.038     2.478     2.462
    63   1 H        0.925     0.040     2.442     2.444
    64   1 H        0.925     0.039     2.468     2.457
    65   1 H        0.925     0.039     2.463     2.454
    66   1 H        0.925     0.042     2.427     2.436
    67   1 H        0.925     0.028     2.617     2.530
    68   1 H        0.925     0.040     2.451     2.448
    69   1 H        0.925     0.040     2.452     2.449
    70   1 H        0.925     0.034     2.528     2.486
    71   1 H        0.926     0.038     2.472     2.459
    72   1 H        0.926     0.030     2.589     2.516
    73   1 H        0.923     0.052     2.295     2.369
    74   1 H        0.926     0.047     2.361     2.403
    75   1 H        0.926     0.036     2.507     2.476
    76   1 H        0.926     0.034     2.524     2.485
    77   1 H        0.926     0.036     2.506     2.475
    78   1 H        0.926     0.032     2.559     2.502
    79   1 H        0.923     0.058     2.226     2.333
    80   1 H        0.926     0.028     2.621     2.531
    81   1 H        0.926     0.035     2.514     2.479
    82   1 H        0.926     0.036     2.502     2.473
    83   1 H        0.926     0.038     2.473     2.459
    84   1 H        0.926     0.036     2.502     2.474

Wiberg/Mayer (AO) data.
largest (>0.10) Wiberg bond orders for each atom

     #   Z sym  total        # sym  WBO       # sym  WBO       # sym  WBO
 ---------------------------------------------------------------------------
     1   8 O    2.034 --     2 C    1.709    13 N    0.182
     2   6 C    3.943 --     1 O    1.709    13 N    1.180     3 C    0.971
     3   6 C    3.986 --     4 C    1.410    12 C    1.387     2 C    0.971
                             6 C    0.107
     4   6 C    3.990 --     5 C    1.439     3 C    1.410    45 H    0.969
                            11 C    0.108
     5   6 C    3.991 --     4 C    1.439     6 C    1.419    46 H    0.964
                            12 C    0.106
     6   6 C    3.985 --     5 C    1.419    11 C    1.397     7 C    0.986
                             3 C    0.107
     7   6 C    3.992 --    10 C    1.000     8 C    0.986     9 C    0.986
                             6 C    0.986
     8   6 C    3.995 --    49 H    0.987     7 C    0.986    48 H    0.984
                            47 H    0.983
     9   6 C    3.995 --     7 C    0.986    52 H    0.986    51 H    0.984
                            50 H    0.984
    10   6 C    3.996 --     7 C    1.000    54 H    0.985    53 H    0.984
                            55 H    0.984
    11   6 C    3.991 --    12 C    1.462     6 C    1.397    56 H    0.964
                             4 C    0.108
    12   6 C    3.991 --    11 C    1.462     3 C    1.387    57 H    0.968
                             5 C    0.106
    13   7 N    3.438 --     2 C    1.180    14 C    0.982    38 C    0.955
                             1 O    0.182
    14   6 C    3.972 --    18 N    0.988    13 N    0.982    58 H    0.943
                            15 C    0.908
    15   6 C    3.917 --    17 O    1.776    16 O    1.151    14 C    0.908
    16   8 O    2.215 --    15 C    1.151    59 H    0.855    17 O    0.180
    17   8 O    2.064 --    15 C    1.776    16 O    0.180
    18   7 N    3.458 --    19 C    1.201    14 C    0.988    31 C    0.952
                            30 O    0.192
    19   6 C    3.945 --    30 O    1.706    18 N    1.201    20 C    0.955
    20   6 C    3.986 --    21 C    1.407    29 C    1.395    19 C    0.955
                            23 C    0.107
    21   6 C    3.990 --    22 C    1.438    20 C    1.407    60 H    0.969
                            28 C    0.109
    22   6 C    3.991 --    21 C    1.438    23 C    1.420    61 H    0.964
                            29 C    0.107
    23   6 C    3.986 --    22 C    1.420    28 C    1.399    24 C    0.985
                            20 C    0.107
    24   6 C    3.991 --    27 C    1.000    25 C    0.987    26 C    0.986
                            23 C    0.985
    25   6 C    3.995 --    24 C    0.987    62 H    0.987    63 H    0.984
                            64 H    0.983
    26   6 C    3.995 --    67 H    0.987    24 C    0.986    66 H    0.984
                            65 H    0.983
    27   6 C    3.996 --    24 C    1.000    70 H    0.985    68 H    0.984
                            69 H    0.984
    28   6 C    3.991 --    29 C    1.458    23 C    1.399    71 H    0.964
                            21 C    0.109
    29   6 C    3.991 --    28 C    1.458    20 C    1.395    72 H    0.969
                            22 C    0.107
    30   8 O    2.032 --    19 C    1.706    18 N    0.192
    31   6 C    3.961 --    32 C    0.991    73 H    0.954    18 N    0.952
                            38 C    0.952
    32   6 C    3.985 --    37 C    1.416    33 C    1.409    31 C    0.991
                            35 C    0.109
    33   6 C    3.990 --    34 C    1.448    32 C    1.409    74 H    0.964
                            36 C    0.112
    34   6 C    3.992 --    33 C    1.448    35 C    1.436    75 H    0.971
                            37 C    0.110
    35   6 C    3.991 --    36 C    1.441    34 C    1.436    76 H    0.971
                            32 C    0.109
    36   6 C    3.992 --    37 C    1.441    35 C    1.441    77 H    0.971
                            33 C    0.112
    37   6 C    3.990 --    36 C    1.441    32 C    1.416    78 H    0.969
                            34 C    0.110
    38   6 C    3.962 --    39 C    0.992    13 N    0.955    79 H    0.952
                            31 C    0.952
    39   6 C    3.985 --    44 C    1.414    40 C    1.410    38 C    0.992
                            42 C    0.109
    40   6 C    3.991 --    41 C    1.448    39 C    1.410    80 H    0.969
                            43 C    0.111
    41   6 C    3.992 --    40 C    1.448    42 C    1.436    81 H    0.971
                            44 C    0.111
    42   6 C    3.991 --    43 C    1.441    41 C    1.436    82 H    0.971
                            39 C    0.109
    43   6 C    3.992 --    44 C    1.443    42 C    1.441    83 H    0.971
                            40 C    0.111
    44   6 C    3.990 --    43 C    1.443    39 C    1.414    84 H    0.969
                            41 C    0.111
    45   1 H    0.998 --     4 C    0.969
    46   1 H    0.998 --     5 C    0.964
    47   1 H    0.999 --     8 C    0.983
    48   1 H    0.997 --     8 C    0.984
    49   1 H    0.999 --     8 C    0.987
    50   1 H    0.999 --     9 C    0.984
    51   1 H    0.997 --     9 C    0.984
    52   1 H    0.999 --     9 C    0.986
    53   1 H    0.998 --    10 C    0.984
    54   1 H    0.999 --    10 C    0.985
    55   1 H    0.998 --    10 C    0.984
    56   1 H    0.998 --    11 C    0.964
    57   1 H    0.999 --    12 C    0.968
    58   1 H    0.995 --    14 C    0.943
    59   1 H    0.882 --    16 O    0.855
    60   1 H    0.998 --    21 C    0.969
    61   1 H    0.998 --    22 C    0.964
    62   1 H    0.999 --    25 C    0.987
    63   1 H    0.997 --    25 C    0.984
    64   1 H    0.999 --    25 C    0.983
    65   1 H    0.998 --    26 C    0.983
    66   1 H    0.997 --    26 C    0.984
    67   1 H    0.999 --    26 C    0.987
    68   1 H    0.998 --    27 C    0.984
    69   1 H    0.998 --    27 C    0.984
    70   1 H    0.999 --    27 C    0.985
    71   1 H    0.998 --    28 C    0.964
    72   1 H    0.999 --    29 C    0.969
    73   1 H    0.997 --    31 C    0.954
    74   1 H    0.998 --    33 C    0.964
    75   1 H    0.998 --    34 C    0.971
    76   1 H    0.998 --    35 C    0.971
    77   1 H    0.998 --    36 C    0.971
    78   1 H    0.999 --    37 C    0.969
    79   1 H    0.996 --    38 C    0.952
    80   1 H    0.999 --    40 C    0.969
    81   1 H    0.998 --    41 C    0.971
    82   1 H    0.998 --    42 C    0.971
    83   1 H    0.998 --    43 C    0.971
    84   1 H    0.999 --    44 C    0.969
 ---------------------------------------------------------------------------

molecular dipole:
                 x           y           z       tot (Debye)
 q only:       -0.301       1.966      -0.499
   full:       -0.295       2.386      -0.530       6.257

           -------------------------------------------------
          | TOTAL ENERGY             -123.945431678419 Eh   |
          | GRADIENT NORM               0.000801860868 Eh/Î± |
          | HOMO-LUMO GAP               3.199619140235 eV   |
           -------------------------------------------------

 * finished run on 2022/03/16 at 23:12:34.455
