   * xtb version 6.3.3 (4ae9cef) compiled by 'conda@95abc7406d43' on 2020-10-14
          program call               : xtb acid_80.xyz --opt --chrg 0 --uhf 0 --gfn 2
          number of atoms            :                    88
          number of electrons        :                   262
          charge                     :                     0
          spin                       :                   0.0

   ID    Z sym.   atoms
    1    6 C      1, 3-16, 18, 20-23, 25-32, 34, 35, 39-42, 44-51
    2    8 O      2, 17, 24, 33, 36, 37, 43, 52
    3    7 N      19, 38
    4    1 H      53-88

          :  Hamiltonian                  GFN2-xTB          :
 * total energy  :  -146.6642918 Eh     change       -0.2734112E-08 Eh
 * total energy  :  -146.6826681 Eh     change       -0.1837626E-01 Eh
 * total energy  :  -146.6881525 Eh     change       -0.5484405E-02 Eh
 * total energy  :  -146.6911624 Eh     change       -0.3009860E-02 Eh
 * total energy  :  -146.6932147 Eh     change       -0.2052298E-02 Eh
 * total energy  :  -146.6950134 Eh     change       -0.1798696E-02 Eh
 * total energy  :  -146.6965767 Eh     change       -0.1563370E-02 Eh
 * total energy  :  -146.6983363 Eh     change       -0.1759562E-02 Eh
 * total energy  :  -146.7001666 Eh     change       -0.1830306E-02 Eh
 * total energy  :  -146.7016472 Eh     change       -0.1480596E-02 Eh
 * total energy  :  -146.7326721 Eh     change       -0.9995788E-05 Eh
 * total energy  :  -146.7326778 Eh     change       -0.5665165E-05 Eh
 * total energy  :  -146.7326713 Eh     change        0.6455087E-05 Eh
 * total energy  :  -146.7326800 Eh     change       -0.8694231E-05 Eh
 * total energy  :  -146.7326861 Eh     change       -0.6105583E-05 Eh
 * total energy  :  -146.7326797 Eh     change        0.6375765E-05 Eh
 * total energy  :  -146.7326886 Eh     change       -0.8812681E-05 Eh
 * total energy  :  -146.7326946 Eh     change       -0.6058209E-05 Eh
 * total energy  :  -146.7326985 Eh     change       -0.3929882E-05 Eh
   *** GEOMETRY OPTIMIZATION CONVERGED AFTER 139 ITERATIONS ***

 final structure:
================
88
 xtb: 6.3.3 (4ae9cef)
C         2.83719299365737   -1.90731822056482    0.34806593152974
O         2.84776633344812   -2.15137049280493   -0.99269170507649
C         3.90217361671557   -2.91316887236676   -1.53170301197708
C         3.82590377638635   -2.33539399017916    1.22640997704308
C         3.73683229387480   -2.04306914708198    2.57589928035661
C         2.66061464796575   -1.32993027487697    3.06938382232426
C         1.67660939495143   -0.89713725007540    2.19928180111202
C         1.75561265922528   -1.16159140042531    0.84071796226945
C         0.67092506890679   -0.71181255228134   -0.09658357348883
C        -0.66526569713306   -1.40482318210800    0.27755031544934
C        -0.91313931941388   -2.68368348975621   -0.47875824025870
C        -0.91110973895421   -3.87936528289575    0.22169182736117
C        -1.13022733467882   -5.08938824287989   -0.41283364132747
C        -1.36066595536943   -5.10800934569818   -1.77432747882662
C        -1.36669980131008   -3.92750217695867   -2.49666970523034
C        -1.14084819243178   -2.71122889081905   -1.86335120842130
O        -1.12010540706942   -1.51310163646154   -2.51777149091099
C        -1.46250119392105   -1.47219383847349   -3.88310336739440
N        -1.68519401011573   -0.38057169843681    0.06727443572920
C        -2.79049979629703   -0.42986674632968    0.87228336156518
C        -3.85002260961399    0.55644333298741    0.59599096605217
C        -4.59021356201808    0.65523713972239   -0.55662973702891
C        -4.46740089183585   -0.05308773034876   -1.85453519090281
O        -5.55021542485659    1.57663995640055   -0.40608440974729
C        -5.45332806346260    2.09041679674077    0.84732356190910
C        -6.37928193979929    3.12723159901194    1.25387727765496
C        -6.33556218431276    3.66636063010131    2.54059487441738
C        -7.22387033402724    4.65602978313742    2.91263434463889
C        -8.16841330373892    5.12478521021668    2.01341782435055
C        -8.21861785498729    4.59624666420136    0.73388444660851
C        -7.33344823194189    3.60664191210478    0.35452893551317
C        -4.42706708996437    1.47219678464680    1.51280489577951
O        -2.91068073814523   -1.30461271869019    1.70842697646106
C        -1.04958083918524    0.75386326546095   -0.57829669418662
C        -1.88319514044372    2.06792151636089   -0.60873404814991
O        -1.88765923802759    2.84624057415896    0.43693945969495
O        -2.49127303453901    2.30199511478034   -1.62042608601256
N         0.31501049377861    0.70866862319999   -0.03470534684771
C         1.02598616246862    1.66280273324007    0.59735547195664
C         2.48035533289990    1.47934215738102    0.60429205636857
C         3.35419904442810    1.83733777700119    1.60569258205246
C         3.10956668562532    2.42043356373221    2.94558331226363
O         4.60703081896558    1.52622735822511    1.24833660732990
C         4.57400809344891    0.99412814672659   -0.00291419604075
C         5.80758637935358    0.53636479728640   -0.60882776534104
C         6.98624029922730    0.49955490796329    0.13783552419050
C         8.15757569621641    0.03463881035152   -0.42747012005303
C         8.17325530880332   -0.40132483910521   -1.74255723397169
C         7.00825071626121   -0.36522509179218   -2.49259085988548
C         5.83323559154849    0.09984581467612   -1.93478129804835
C         3.28027606364840    0.95115718163673   -0.44480130150957
O         0.51762434198631    2.66275130875271    1.11505491623542
H         3.69062804101365   -2.98891420601092   -2.59733945815043
H         3.93192146204754   -3.91750137957204   -1.09905255952511
H         4.86863299200176   -2.41866282167192   -1.38938179404502
H         4.67517712174714   -2.89277401490799    0.86581987235536
H         4.51652450508683   -2.38078304330286    3.24165155195079
H         2.58453103276762   -1.11380092172517    4.12365394816898
H         0.84057060699247   -0.32822906476404    2.57967454557517
H         0.93889016364379   -0.97244775844499   -1.12478434020688
H        -0.67307115144697   -1.65491755325693    1.34600926336399
H        -0.74446430829354   -3.85646194410571    1.28790565846215
H        -1.12796907189622   -6.00692236488904    0.15443179816205
H        -1.54000204420931   -6.04175991630186   -2.28592537136643
H        -1.54781622400020   -3.96479801919281   -3.55900355001158
H        -2.45966301736258   -1.88499453280322   -4.06062298525453
H        -0.72989879723263   -2.00563725040682   -4.49754115241595
H        -1.46019425552959   -0.41720100879701   -4.15440430443392
H        -5.45402777852139   -0.29044879087158   -2.24685861031239
H        -3.89163605614859   -0.96489744191488   -1.72248756612688
H        -3.95535595360600    0.59377926973498   -2.56783090525763
H        -5.60268019179235    3.30695130846264    3.24542195829618
H        -7.18083052375403    5.06683727737948    3.91100450568609
H        -8.86092844539596    5.89931454030691    2.30866717321770
H        -8.95187365134604    4.95952515221736    0.02831960170589
H        -7.36751108354874    3.19545446989090   -0.64265289107005
H        -4.09364226509825    1.64822453173897    2.51392935260689
H        -0.93743549254477    0.49498134310756   -1.64533393799717
H        -0.99962095791370    2.79411006074638    0.93619885756343
H         3.19921594391676    1.65120148916128    3.71325443772541
H         3.84427010683885    3.19513231928156    3.15472985294592
H         2.11160903177028    2.84628700661130    2.97642990947342
H         6.96889267247036    0.83641446138237    1.16296043079311
H         9.06363735724811    0.01069573915269    0.15983620453600
H         9.08943605717291   -0.76543866767937   -2.18276551606113
H         7.01771823251296   -0.70058258694641   -3.51949015812116
H         4.93134727035086    0.13329125014900   -2.52560010584293
H         2.92787578599620    0.59825071946896   -1.39080675406618

          :  Hamiltonian                  GFN2-xTB          :
         :: total energy            -146.732698548926 Eh    ::
         :: gradient norm              0.000535054291 Eh/a0 ::
         :: HOMO-LUMO gap              2.480704114101 eV    ::
         :: SCC energy              -148.856081490467 Eh    ::
         :: -> dispersion             -0.126279069317 Eh    ::
         :: repulsion energy           2.119144586934 Eh    ::

    * Orbital Energies and Occupations

         #    Occupation            Energy/Eh            Energy/eV
      -------------------------------------------------------------
         1        2.0000           -0.7540353             -20.5183
       ...           ...                  ...                  ...
       119        2.0000           -0.4168307             -11.3425
       120        2.0000           -0.4154839             -11.3059
       121        2.0000           -0.4137851             -11.2597
       122        2.0000           -0.4095135             -11.1434
       123        2.0000           -0.4093341             -11.1385
       124        2.0000           -0.4048740             -11.0172
       125        2.0000           -0.3974576             -10.8154
       126        2.0000           -0.3933396             -10.7033
       127        2.0000           -0.3929035             -10.6914
       128        2.0000           -0.3904710             -10.6253
       129        2.0000           -0.3869398             -10.5292
       130        2.0000           -0.3852990             -10.4845
       131        2.0000           -0.3569307              -9.7126 (HOMO)
       132                         -0.2657665              -7.2319 (LUMO)
       133                         -0.2632828              -7.1643
       134                         -0.2467368              -6.7140
       135                         -0.2396755              -6.5219
       136                         -0.2370027              -6.4492
       137                         -0.2368220              -6.4443
       138                         -0.2331086              -6.3432
       139                         -0.2320156              -6.3135
       140                         -0.2231055              -6.0710
       141                         -0.2206478              -6.0041
       142                         -0.2104671              -5.7271
       ...                                ...                  ...
       244                          0.7277480              19.8030
      -------------------------------------------------------------
                  HL-Gap            0.0911642 Eh            2.4807 eV

     #   Z          covCN         q      C6AA      Î±(0)
     1   6 C        2.868     0.138    24.982     8.193
     2   8 O        1.705    -0.274    18.540     5.813
     3   6 C        3.643     0.035    20.318     6.480
     4   6 C        2.917    -0.065    29.627     8.926
     5   6 C        2.921    -0.030    28.752     8.793
     6   6 C        2.917    -0.041    29.011     8.832
     7   6 C        2.924    -0.036    28.893     8.815
     8   6 C        2.972    -0.021    28.524     8.761
     9   6 C        3.848     0.036    19.933     6.351
    10   6 C        3.846     0.044    19.803     6.330
    11   6 C        2.968    -0.017    28.434     8.747
    12   6 C        2.927    -0.031    28.769     8.796
    13   6 C        2.917    -0.039    28.971     8.826
    14   6 C        2.921    -0.031    28.773     8.796
    15   6 C        2.918    -0.067    29.662     8.931
    16   6 C        2.865     0.139    24.958     8.189
    17   8 O        1.705    -0.276    18.579     5.820
    18   6 C        3.641     0.036    20.317     6.481
    19   7 N        2.756    -0.127    23.756     7.239
    20   6 C        2.762     0.274    22.365     7.745
    21   6 C        3.063    -0.066    29.582     8.919
    22   6 C        3.082     0.126    25.145     8.221
    23   6 C        3.753    -0.118    22.822     6.812
    24   8 O        1.731    -0.183    17.057     5.576
    25   6 C        3.091     0.107    25.529     8.282
    26   6 C        2.970     0.009    27.813     8.651
    27   6 C        2.924    -0.036    28.889     8.814
    28   6 C        2.919    -0.028    28.706     8.786
    29   6 C        2.920    -0.032    28.795     8.800
    30   6 C        2.918    -0.029    28.719     8.788
    31   6 C        2.926    -0.030    28.756     8.794
    32   6 C        3.008    -0.059    29.451     8.902
    33   8 O        0.859    -0.429    22.270     6.327
    34   6 C        3.791     0.063    19.528     6.293
    35   6 C        2.683     0.361    20.877     7.477
    36   8 O        1.649    -0.386    20.582     6.124
    37   8 O        0.857    -0.392    21.514     6.219
    38   7 N        2.761    -0.118    23.559     7.209
    39   6 C        2.753     0.274    22.365     7.744
    40   6 C        3.066    -0.058    29.373     8.887
    41   6 C        3.075     0.135    24.977     8.194
    42   6 C        3.753    -0.122    22.902     6.824
    43   8 O        1.731    -0.189    17.148     5.591
    44   6 C        3.088     0.105    25.588     8.292
    45   6 C        2.971     0.005    27.902     8.664
    46   6 C        2.925    -0.031    28.767     8.796
    47   6 C        2.918    -0.028    28.695     8.784
    48   6 C        2.920    -0.031    28.765     8.795
    49   6 C        2.918    -0.029    28.736     8.791
    50   6 C        2.924    -0.038    28.942     8.822
    51   6 C        3.004    -0.069    29.710     8.941
    52   8 O        0.869    -0.457    22.849     6.409
    53   1 H        0.925     0.064     2.155     2.296
    54   1 H        0.924     0.045     2.386     2.416
    55   1 H        0.924     0.045     2.382     2.413
    56   1 H        0.926     0.042     2.422     2.434
    57   1 H        0.926     0.043     2.415     2.430
    58   1 H        0.926     0.041     2.429     2.437
    59   1 H        0.926     0.043     2.408     2.426
    60   1 H        0.924     0.072     2.060     2.245
    61   1 H        0.924     0.072     2.059     2.244
    62   1 H        0.926     0.047     2.357     2.401
    63   1 H        0.926     0.041     2.434     2.440
    64   1 H        0.926     0.039     2.459     2.452
    65   1 H        0.926     0.040     2.447     2.446
    66   1 H        0.924     0.045     2.384     2.414
    67   1 H        0.924     0.041     2.433     2.440
    68   1 H        0.925     0.065     2.137     2.286
    69   1 H        0.925     0.063     2.158     2.298
    70   1 H        0.925     0.052     2.301     2.372
    71   1 H        0.924     0.083     1.945     2.181
    72   1 H        0.926     0.036     2.505     2.475
    73   1 H        0.926     0.031     2.571     2.507
    74   1 H        0.926     0.029     2.596     2.520
    75   1 H        0.926     0.031     2.579     2.511
    76   1 H        0.926     0.045     2.386     2.416
    77   1 H        0.927     0.045     2.387     2.416
    78   1 H        0.923     0.086     1.920     2.167
    79   1 H        0.804     0.377     0.529     1.143
    80   1 H        0.924     0.067     2.114     2.274
    81   1 H        0.925     0.072     2.059     2.244
    82   1 H        0.925     0.082     1.958     2.188
    83   1 H        0.926     0.046     2.376     2.410
    84   1 H        0.926     0.036     2.501     2.473
    85   1 H        0.926     0.035     2.514     2.480
    86   1 H        0.926     0.035     2.521     2.483
    87   1 H        0.926     0.037     2.487     2.466
    88   1 H        0.927     0.047     2.358     2.401

Wiberg/Mayer (AO) data.
largest (>0.10) Wiberg bond orders for each atom

     #   Z sym  total        # sym  WBO       # sym  WBO       # sym  WBO
 ---------------------------------------------------------------------------
     1   6 C    3.935 --     4 C    1.377     8 C    1.325     2 O    1.061
     2   8 O    2.231 --     1 C    1.061     3 C    0.980
     3   6 C    3.942 --     2 O    0.980    53 H    0.979    54 H    0.977
                            55 H    0.973
     4   6 C    3.987 --     5 C    1.439     1 C    1.377    56 H    0.965
                             7 C    0.102
     5   6 C    3.990 --     4 C    1.439     6 C    1.437    57 H    0.971
                             8 C    0.106
     6   6 C    3.991 --     5 C    1.437     7 C    1.432    58 H    0.970
     7   6 C    3.990 --     6 C    1.432     8 C    1.429    59 H    0.966
                             4 C    0.102
     8   6 C    3.983 --     7 C    1.429     1 C    1.325     9 C    1.001
                             5 C    0.106
     9   6 C    3.962 --     8 C    1.001    38 N    0.952    60 H    0.951
                            10 C    0.941
    10   6 C    3.966 --    11 C    0.993    19 N    0.959    61 H    0.948
                             9 C    0.941
    11   6 C    3.983 --    12 C    1.434    16 C    1.328    10 C    0.993
                            14 C    0.107
    12   6 C    3.988 --    11 C    1.434    13 C    1.428    62 H    0.966
                            15 C    0.103
    13   6 C    3.991 --    14 C    1.443    12 C    1.428    63 H    0.970
    14   6 C    3.990 --    13 C    1.443    15 C    1.435    64 H    0.971
                            11 C    0.107
    15   6 C    3.987 --    14 C    1.435    16 C    1.383    65 H    0.965
                            12 C    0.103
    16   6 C    3.934 --    15 C    1.383    11 C    1.328    17 O    1.053
    17   8 O    2.229 --    16 C    1.053    18 C    0.981
    18   6 C    3.943 --    17 O    0.981    68 H    0.978    66 H    0.976
                            67 H    0.976
    19   7 N    3.441 --    20 C    1.186    34 C    0.975    10 C    0.959
                            33 O    0.182
    20   6 C    3.944 --    33 O    1.684    19 N    1.186    21 C    0.992
    21   6 C    3.971 --    22 C    1.490    32 C    1.268    20 C    0.992
    22   6 C    3.911 --    21 C    1.490    24 O    1.147    23 C    1.032
                            25 C    0.116
    23   6 C    3.992 --    22 C    1.032    70 H    0.981    69 H    0.975
                            71 H    0.955
    24   8 O    2.441 --    22 C    1.147    25 C    1.086
    25   6 C    3.905 --    32 C    1.527    26 C    1.091    24 O    1.086
                            22 C    0.116
    26   6 C    3.988 --    31 C    1.369    27 C    1.367    25 C    1.091
    27   6 C    3.990 --    28 C    1.462    26 C    1.367    72 H    0.968
                            30 C    0.105
    28   6 C    3.992 --    27 C    1.462    29 C    1.428    73 H    0.971
                            31 C    0.105
    29   6 C    3.979 --    30 C    1.431    28 C    1.428    74 H    0.972
    30   6 C    3.992 --    31 C    1.459    29 C    1.431    75 H    0.971
                            27 C    0.105
    31   6 C    3.990 --    30 C    1.459    26 C    1.369    76 H    0.969
                            28 C    0.105
    32   6 C    3.982 --    25 C    1.527    21 C    1.268    77 H    0.973
    33   8 O    2.014 --    20 C    1.684    19 N    0.182
    34   6 C    3.943 --    19 N    0.975    38 N    0.954    78 H    0.934
                            35 C    0.904
    35   6 C    3.936 --    37 O    1.748    36 O    1.229    34 C    0.904
    36   8 O    2.207 --    35 C    1.229    79 H    0.697    37 O    0.176
    37   8 O    2.046 --    35 C    1.748    36 O    0.176
    38   7 N    3.481 --    39 C    1.262    34 C    0.954     9 C    0.952
                            52 O    0.171
    39   6 C    3.945 --    52 O    1.557    38 N    1.262    40 C    1.026
    40   6 C    3.971 --    41 C    1.479    51 C    1.251    39 C    1.026
    41   6 C    3.908 --    40 C    1.479    43 O    1.149    42 C    1.037
                            44 C    0.108
    42   6 C    3.988 --    41 C    1.037    82 H    0.976    81 H    0.969
                            80 H    0.958
    43   8 O    2.436 --    41 C    1.149    44 C    1.079
    44   6 C    3.905 --    51 C    1.540    45 C    1.089    43 O    1.079
                            41 C    0.108
    45   6 C    3.988 --    46 C    1.371    50 C    1.366    44 C    1.089
    46   6 C    3.989 --    47 C    1.458    45 C    1.371    83 H    0.969
                            49 C    0.105
    47   6 C    3.992 --    46 C    1.458    48 C    1.432    84 H    0.971
                            50 C    0.105
    48   6 C    3.979 --    47 C    1.432    49 C    1.428    85 H    0.971
    49   6 C    3.992 --    50 C    1.461    48 C    1.428    86 H    0.971
                            46 C    0.105
    50   6 C    3.989 --    49 C    1.461    45 C    1.366    87 H    0.968
                            47 C    0.105
    51   6 C    3.983 --    44 C    1.540    40 C    1.251    88 H    0.971
    52   8 O    2.048 --    39 C    1.557    38 N    0.171    79 H    0.133
    53   1 H    0.995 --     3 C    0.979
    54   1 H    0.998 --     3 C    0.977
    55   1 H    0.998 --     3 C    0.973
    56   1 H    0.998 --     4 C    0.965
    57   1 H    0.998 --     5 C    0.971
    58   1 H    0.998 --     6 C    0.970
    59   1 H    0.997 --     7 C    0.966
    60   1 H    0.994 --     9 C    0.951
    61   1 H    0.994 --    10 C    0.948
    62   1 H    0.997 --    12 C    0.966
    63   1 H    0.998 --    13 C    0.970
    64   1 H    0.998 --    14 C    0.971
    65   1 H    0.998 --    15 C    0.965
    66   1 H    0.998 --    18 C    0.976
    67   1 H    0.998 --    18 C    0.976
    68   1 H    0.995 --    18 C    0.978
    69   1 H    0.995 --    23 C    0.975
    70   1 H    0.997 --    23 C    0.981
    71   1 H    0.991 --    23 C    0.955
    72   1 H    0.999 --    27 C    0.968
    73   1 H    0.999 --    28 C    0.971
    74   1 H    0.999 --    29 C    0.972
    75   1 H    0.999 --    30 C    0.971
    76   1 H    0.998 --    31 C    0.969
    77   1 H    0.998 --    32 C    0.973
    78   1 H    0.991 --    34 C    0.934
    79   1 H    0.858 --    36 O    0.697    52 O    0.133
    80   1 H    0.993 --    42 C    0.958
    81   1 H    0.993 --    42 C    0.969
    82   1 H    0.993 --    42 C    0.976
    83   1 H    0.998 --    46 C    0.969
    84   1 H    0.998 --    47 C    0.971
    85   1 H    0.998 --    48 C    0.971
    86   1 H    0.998 --    49 C    0.971
    87   1 H    0.999 --    50 C    0.968
    88   1 H    0.998 --    51 C    0.971
 ---------------------------------------------------------------------------

molecular dipole:
                 x           y           z       tot (Debye)
 q only:        2.841      -1.739      -0.917
   full:        3.234      -1.997      -1.057      10.028

           -------------------------------------------------
          | TOTAL ENERGY             -146.732698548926 Eh   |
          | GRADIENT NORM               0.000535054291 Eh/Î± |
          | HOMO-LUMO GAP               2.480704114101 eV   |
           -------------------------------------------------

 * finished run on 2022/03/17 at 02:07:32.195
