   * xtb version 6.3.3 (4ae9cef) compiled by 'conda@95abc7406d43' on 2020-10-14
          program call               : xtb acid_64.xyz --opt --chrg 0 --uhf 0 --gfn 2
          number of atoms            :                    72
          number of electrons        :                   226
          charge                     :                     0
          spin                       :                   0.0

   ID    Z sym.   atoms
    1    6 C      1-22, 24-29, 31, 33, 34, 38-41, 43-45
    2    7 N      23, 37
    3   53 I      30, 42
    4    8 O      32, 35, 36, 46
    5    1 H      47-72

          :  Hamiltonian                  GFN2-xTB          :
 * total energy  :  -124.3797101 Eh     change       -0.7006804E-09 Eh
 * total energy  :  -124.3976554 Eh     change       -0.1794527E-01 Eh
 * total energy  :  -124.4031847 Eh     change       -0.5529312E-02 Eh
 * total energy  :  -124.4049074 Eh     change       -0.1722774E-02 Eh
 * total energy  :  -124.4060782 Eh     change       -0.1170710E-02 Eh
 * total energy  :  -124.4067399 Eh     change       -0.6617519E-03 Eh
 * total energy  :  -124.4073220 Eh     change       -0.5820654E-03 Eh
 * total energy  :  -124.4079690 Eh     change       -0.6470470E-03 Eh
 * total energy  :  -124.4086528 Eh     change       -0.6837803E-03 Eh
 * total energy  :  -124.4092477 Eh     change       -0.5949421E-03 Eh
 * total energy  :  -124.4242056 Eh     change       -0.7861346E-05 Eh
 * total energy  :  -124.4242135 Eh     change       -0.7877497E-05 Eh
 * total energy  :  -124.4242245 Eh     change       -0.1099236E-04 Eh
 * total energy  :  -124.4242370 Eh     change       -0.1251872E-04 Eh
 * total energy  :  -124.4242479 Eh     change       -0.1089368E-04 Eh
 * total energy  :  -124.4242576 Eh     change       -0.9707409E-05 Eh
 * total energy  :  -124.4242662 Eh     change       -0.8621201E-05 Eh
 * total energy  :  -124.4242727 Eh     change       -0.6450037E-05 Eh
 * total energy  :  -124.4242733 Eh     change       -0.6494486E-06 Eh
   *** GEOMETRY OPTIMIZATION CONVERGED AFTER 151 ITERATIONS ***

 final structure:
================
72
 xtb: 6.3.3 (4ae9cef)
C        -4.78290426367689    0.99407934073025    1.57045847678181
C        -5.07287108881354    1.67434970944093    0.42318137574696
C        -4.09074960609180    1.81834847825543   -0.56692407067717
C        -2.85496019218857    1.25582050910522   -0.40961829592813
C        -2.52192974201866    0.53126074018888    0.75618965890386
C        -3.50800857702671    0.42497903423900    1.77624086331676
C        -3.20155648440014   -0.23711537665342    2.98211050667945
C        -1.96031560774054   -0.76716650881542    3.18967436143354
C        -0.99634751882601   -0.69550859731688    2.17872454332571
C        -1.26174459830750   -0.08886878702460    0.97434869728366
C        -0.18642507000840   -0.13902937218458   -0.08359253814696
C         1.11733277476797    0.59776088151450    0.34079338669810
C         1.43936032046833    1.73911865901240   -0.60013953246206
C         2.45588950643898    1.63589845582429   -1.51331553396828
C         2.72414888158848    2.66425385739784   -2.42787458516588
C         1.95916759576966    3.79373544779374   -2.43268991729063
C         0.91305635237641    3.95250978220482   -1.50002767774415
C         0.65286238915899    2.92352872028540   -0.55371047979399
C        -0.37407249929842    3.13703190642897    0.39165679412108
C        -1.12322930398336    4.28078872255299    0.37710762711381
C        -0.88300186610374    5.27960010126843   -0.57645133988398
C         0.12141827680364    5.12010857389312   -1.48809474335365
N         2.12969419192389   -0.44515054402440    0.35470900672645
C         3.27683848408556   -0.29899936318140    1.07185430312077
C         4.21957846318467   -1.45793737656280    0.97505463663884
C         4.02464957932643   -2.60782105763233    1.73001922533294
C         4.92048920239440   -3.65769447193390    1.62917042610393
C         6.00685435893251   -3.57110336577694    0.77592545151662
C         6.19480381864869   -2.41618392740244    0.03924274060673
I         7.85388063337669   -2.26674443074008   -1.25709618973254
C         5.31856331105360   -1.35296429852275    0.13447383937870
O         3.50392267231320    0.70250573902545    1.71279614979110
C         1.68226103818487   -1.60714720024308   -0.36422532909677
C         2.20046873661034   -1.60674790475918   -1.81917604752771
O         1.24262752703592   -1.33152752432517   -2.69698469982321
O         3.34176841536542   -1.82328383533489   -2.11362691878508
N         0.24781353786665   -1.51209184672456   -0.30697230082904
C        -0.50741742650938   -2.63870452369342   -0.33808000622426
C        -1.98673034077724   -2.42831203963111   -0.36450086399578
C        -2.57162872034520   -1.78655833139477   -1.44850805609912
C        -3.94468899893165   -1.64085979926174   -1.48121011216291
I        -4.83665605214517   -0.67754784788447   -3.13534527476308
C        -4.74294603931456   -2.10819375025985   -0.45429098264183
C        -4.15288984053445   -2.76999526268371    0.60925214749757
C        -2.78261690254548   -2.94833897433158    0.64868384592261
O        -0.00002573274660   -3.74197724961229   -0.36324085104034
H        -5.52353606519075    0.88754410572910    2.35001487030715
H        -6.04897948758350    2.11027372046250    0.27262895459222
H        -4.31796308907073    2.37545608220810   -1.46315366265927
H        -2.12409511197458    1.39448389910137   -1.19089583397536
H        -3.96475605199191   -0.30582052476305    3.74349891129803
H        -1.71663792732955   -1.25460347040076    4.12148221201128
H        -0.02834915331383   -1.14730435205307    2.34520602397127
H        -0.53615566024658    0.28369630531074   -1.03017539913056
H         1.04531752481451    0.98992227383856    1.36199633835572
H         3.08059075684956    0.75591277008970   -1.53544778835010
H         3.53709370231976    2.54497670633220   -3.12833160726823
H         2.14695893647409    4.58561871097609   -3.14292646524194
H        -0.57236711553804    2.39423907577649    1.14715969766547
H        -1.90648635457860    4.41845123621719    1.10788673692080
H        -1.48671377492431    6.17483360881053   -0.57551263764832
H         0.33055894822951    5.88978132206920   -2.21712233616740
H         3.18015194263026   -2.67782150793015    2.40043042913202
H         4.77200068650452   -4.55271179574463    2.21392011339878
H         6.70049252980344   -4.39355482579200    0.69319496604671
H         5.47368074037826   -0.45277050970574   -0.43896004766646
H         2.02662078108464   -2.54527405323564    0.09413386769544
H         1.58880139492326   -1.35226790887805   -3.60501926632533
H        -1.95603877103928   -1.42302522187248   -2.25736815559182
H        -5.81254424348908   -1.97076230870931   -0.48570388636438
H        -4.77127571856491   -3.15349082522253    1.40615850681774
H        -2.32010701451105   -3.47788760420538    1.46693274178327

          :  Hamiltonian                  GFN2-xTB          :
         :: total energy            -124.424273346447 Eh    ::
         :: gradient norm              0.000906576233 Eh/a0 ::
         :: HOMO-LUMO gap              2.842530026668 eV    ::
         :: SCC energy              -126.350821197437 Eh    ::
         :: -> dispersion             -0.123979097286 Eh    ::
         :: repulsion energy           1.921799725168 Eh    ::

    * Orbital Energies and Occupations

         #    Occupation            Energy/Eh            Energy/eV
      -------------------------------------------------------------
         1        2.0000           -0.7826929             -21.2982
       ...           ...                  ...                  ...
       101        2.0000           -0.4294365             -11.6856
       102        2.0000           -0.4244904             -11.5510
       103        2.0000           -0.4225490             -11.4981
       104        2.0000           -0.4188244             -11.3968
       105        2.0000           -0.4161674             -11.3245
       106        2.0000           -0.4141638             -11.2700
       107        2.0000           -0.4121275             -11.2146
       108        2.0000           -0.4112830             -11.1916
       109        2.0000           -0.4101175             -11.1599
       110        2.0000           -0.4054459             -11.0327
       111        2.0000           -0.4000974             -10.8872
       112        2.0000           -0.3989480             -10.8559
       113        2.0000           -0.3910275             -10.6404 (HOMO)
       114                         -0.2865665              -7.7979 (LUMO)
       115                         -0.2741459              -7.4599
       116                         -0.2728958              -7.4259
       117                         -0.2695049              -7.3336
       118                         -0.2609610              -7.1011
       119                         -0.2546802              -6.9302
       120                         -0.2513992              -6.8409
       121                         -0.2499428              -6.8013
       122                         -0.2419727              -6.5844
       123                         -0.2384372              -6.4882
       124                         -0.2326658              -6.3312
       ...                                ...                  ...
       220                          0.6794414              18.4885
      -------------------------------------------------------------
                  HL-Gap            0.1044611 Eh            2.8425 eV

     #   Z          covCN         q      C6AA      Î±(0)
     1   6 C        2.921    -0.034    28.843     8.807
     2   6 C        2.915    -0.027    28.664     8.779
     3   6 C        2.917    -0.024    28.614     8.772
     4   6 C        2.917    -0.034    28.845     8.807
     5   6 C        2.983     0.006    27.888     8.663
     6   6 C        2.988     0.013    27.718     8.636
     7   6 C        2.921    -0.035    28.875     8.812
     8   6 C        2.913    -0.030    28.755     8.793
     9   6 C        2.924    -0.035    28.868     8.811
    10   6 C        2.968    -0.011    28.275     8.722
    11   6 C        3.818     0.039    19.912     6.351
    12   6 C        3.824     0.045    19.808     6.333
    13   6 C        2.966    -0.004    28.125     8.699
    14   6 C        2.920    -0.031    28.784     8.798
    15   6 C        2.914    -0.029    28.728     8.789
    16   6 C        2.920    -0.035    28.865     8.810
    17   6 C        2.988     0.016    27.644     8.625
    18   6 C        2.985     0.007    27.854     8.657
    19   6 C        2.917    -0.036    28.904     8.816
    20   6 C        2.917    -0.027    28.671     8.781
    21   6 C        2.915    -0.028    28.691     8.784
    22   6 C        2.921    -0.033    28.821     8.804
    23   7 N        2.765    -0.117    23.551     7.208
    24   6 C        2.762     0.274    22.362     7.744
    25   6 C        2.981    -0.013    28.339     8.732
    26   6 C        2.921    -0.030    28.740     8.791
    27   6 C        2.923    -0.024    28.604     8.771
    28   6 C        3.053    -0.030    28.690     8.784
    29   6 C        2.959     0.067    26.508     8.445
    30  53 I        1.236    -0.117   380.648    33.680
    31   6 C        3.063    -0.019    28.409     8.740
    32   8 O        0.859    -0.410    21.879     6.271
    33   6 C        3.768     0.094    19.058     6.222
    34   6 C        2.687     0.356    20.958     7.492
    35   8 O        1.659    -0.355    20.003     6.038
    36   8 O        0.856    -0.387    21.415     6.204
    37   7 N        2.766    -0.110    23.396     7.184
    38   6 C        2.766     0.273    22.395     7.750
    39   6 C        2.980    -0.008    28.223     8.714
    40   6 C        3.061    -0.032    28.732     8.790
    41   6 C        2.959     0.059    26.673     8.471
    42  53 I        1.236    -0.123   381.092    33.699
    43   6 C        3.053    -0.031    28.716     8.788
    44   6 C        2.923    -0.024    28.607     8.771
    45   6 C        2.922    -0.021    28.537     8.760
    46   8 O        0.859    -0.428    22.255     6.325
    47   1 H        0.926     0.038     2.481     2.463
    48   1 H        0.926     0.041     2.438     2.442
    49   1 H        0.926     0.045     2.378     2.412
    50   1 H        0.926     0.029     2.595     2.519
    51   1 H        0.926     0.040     2.445     2.445
    52   1 H        0.926     0.040     2.446     2.446
    53   1 H        0.926     0.032     2.563     2.504
    54   1 H        0.924     0.055     2.258     2.350
    55   1 H        0.924     0.076     2.026     2.226
    56   1 H        0.926     0.027     2.630     2.536
    57   1 H        0.926     0.039     2.460     2.453
    58   1 H        0.926     0.040     2.452     2.449
    59   1 H        0.926     0.027     2.624     2.533
    60   1 H        0.926     0.032     2.559     2.501
    61   1 H        0.926     0.036     2.500     2.473
    62   1 H        0.926     0.038     2.475     2.460
    63   1 H        0.926     0.039     2.466     2.456
    64   1 H        0.926     0.050     2.317     2.380
    65   1 H        0.926     0.057     2.235     2.338
    66   1 H        0.926     0.059     2.213     2.327
    67   1 H        0.923     0.091     1.873     2.140
    68   1 H        0.804     0.346     0.598     1.215
    69   1 H        0.926     0.052     2.300     2.372
    70   1 H        0.926     0.055     2.259     2.350
    71   1 H        0.926     0.050     2.314     2.379
    72   1 H        0.926     0.052     2.300     2.372

Wiberg/Mayer (AO) data.
largest (>0.10) Wiberg bond orders for each atom

     #   Z sym  total        # sym  WBO       # sym  WBO       # sym  WBO
 ---------------------------------------------------------------------------
     1   6 C    3.991 --     2 C    1.559     6 C    1.277    47 H    0.968
                             4 C    0.118
     2   6 C    3.992 --     1 C    1.559     3 C    1.320    48 H    0.970
     3   6 C    3.989 --     4 C    1.553     2 C    1.320    49 H    0.969
     4   6 C    3.992 --     3 C    1.553     5 C    1.282    50 H    0.960
                             1 C    0.118
     5   6 C    3.988 --     4 C    1.282    10 C    1.252     6 C    1.251
     6   6 C    3.990 --     7 C    1.282     1 C    1.277     5 C    1.251
     7   6 C    3.989 --     8 C    1.547     6 C    1.282    51 H    0.968
                            10 C    0.115
     8   6 C    3.991 --     7 C    1.547     9 C    1.333    52 H    0.970
     9   6 C    3.991 --    10 C    1.516     8 C    1.333    53 H    0.968
    10   6 C    3.983 --     9 C    1.516     5 C    1.252    11 C    0.991
                             7 C    0.115
    11   6 C    3.963 --    10 C    0.991    37 N    0.959    54 H    0.948
                            12 C    0.947
    12   6 C    3.959 --    13 C    0.985    23 N    0.965    11 C    0.947
                            55 H    0.945
    13   6 C    3.984 --    14 C    1.533    18 C    1.247    12 C    0.985
                            16 C    0.114
    14   6 C    3.990 --    13 C    1.533    15 C    1.319    56 H    0.964
    15   6 C    3.992 --    16 C    1.559    14 C    1.319    57 H    0.970
    16   6 C    3.990 --    15 C    1.559    17 C    1.276    58 H    0.968
                            13 C    0.114
    17   6 C    3.990 --    22 C    1.281    16 C    1.276    18 C    1.255
    18   6 C    3.989 --    19 C    1.285    17 C    1.255    13 C    1.247
    19   6 C    3.992 --    20 C    1.551    18 C    1.285    59 H    0.962
                            22 C    0.118
    20   6 C    3.992 --    19 C    1.551    21 C    1.325    60 H    0.971
    21   6 C    3.992 --    22 C    1.555    20 C    1.325    61 H    0.971
    22   6 C    3.991 --    21 C    1.555    17 C    1.281    62 H    0.968
                            19 C    0.118
    23   7 N    3.466 --    24 C    1.198    33 C    0.985    12 C    0.965
                            32 O    0.191
    24   6 C    3.942 --    32 O    1.706    23 N    1.198    25 C    0.955
    25   6 C    3.988 --    31 C    1.405    26 C    1.404    24 C    0.955
                            28 C    0.108
    26   6 C    3.991 --    27 C    1.439    25 C    1.404    63 H    0.969
                            29 C    0.102
    27   6 C    3.991 --    26 C    1.439    28 C    1.435    64 H    0.967
                            31 C    0.110
    28   6 C    3.990 --    27 C    1.435    29 C    1.424    65 H    0.969
                            25 C    0.108
    29   6 C    3.956 --    31 C    1.426    28 C    1.424    30 I    0.969
                            26 C    0.102
    30  53 I    1.078 --    29 C    0.969
    31   6 C    3.989 --    29 C    1.426    25 C    1.405    66 H    0.967
                            27 C    0.110
    32   8 O    2.030 --    24 C    1.706    23 N    0.191
    33   6 C    3.967 --    37 N    0.989    23 N    0.985    67 H    0.931
                            34 C    0.907
    34   6 C    3.919 --    36 O    1.779    35 O    1.162    33 C    0.907
    35   8 O    2.227 --    34 C    1.162    68 H    0.854    36 O    0.184
    36   8 O    2.062 --    34 C    1.779    35 O    0.184
    37   7 N    3.472 --    38 C    1.215    33 C    0.989    11 C    0.959
                            46 O    0.192
    38   6 C    3.944 --    46 O    1.682    37 N    1.215    39 C    0.964
    39   6 C    3.987 --    45 C    1.401    40 C    1.398    38 C    0.964
                            43 C    0.107
    40   6 C    3.990 --    41 C    1.428    39 C    1.398    69 H    0.967
                            44 C    0.108
    41   6 C    3.955 --    40 C    1.428    43 C    1.423    42 I    0.966
                            45 C    0.101
    42  53 I    1.081 --    41 C    0.966
    43   6 C    3.990 --    44 C    1.431    41 C    1.423    70 H    0.969
                            39 C    0.107
    44   6 C    3.991 --    45 C    1.444    43 C    1.431    71 H    0.967
                            40 C    0.108
    45   6 C    3.990 --    44 C    1.444    39 C    1.401    72 H    0.968
                            41 C    0.101
    46   8 O    2.012 --    38 C    1.682    37 N    0.192
    47   1 H    0.998 --     1 C    0.968
    48   1 H    0.997 --     2 C    0.970
    49   1 H    0.997 --     3 C    0.969
    50   1 H    0.999 --     4 C    0.960
    51   1 H    0.997 --     7 C    0.968
    52   1 H    0.997 --     8 C    0.970
    53   1 H    0.998 --     9 C    0.968
    54   1 H    0.996 --    11 C    0.948
    55   1 H    0.994 --    12 C    0.945
    56   1 H    0.999 --    14 C    0.964
    57   1 H    0.997 --    15 C    0.970
    58   1 H    0.997 --    16 C    0.968
    59   1 H    0.999 --    19 C    0.962
    60   1 H    0.999 --    20 C    0.971
    61   1 H    0.998 --    21 C    0.971
    62   1 H    0.998 --    22 C    0.968
    63   1 H    0.997 --    26 C    0.969
    64   1 H    0.997 --    27 C    0.967
    65   1 H    0.996 --    28 C    0.969
    66   1 H    0.997 --    31 C    0.967
    67   1 H    0.991 --    33 C    0.931
    68   1 H    0.880 --    35 O    0.854
    69   1 H    0.997 --    40 C    0.967
    70   1 H    0.997 --    43 C    0.969
    71   1 H    0.997 --    44 C    0.967
    72   1 H    0.996 --    45 C    0.968
 ---------------------------------------------------------------------------

molecular dipole:
                 x           y           z       tot (Debye)
 q only:       -2.257       0.849       0.227
   full:       -2.575       0.364       1.031       7.111

           -------------------------------------------------
          | TOTAL ENERGY             -124.424273346447 Eh   |
          | GRADIENT NORM               0.000906576233 Eh/Î± |
          | HOMO-LUMO GAP               2.842530026668 eV   |
           -------------------------------------------------

 * finished run on 2022/03/17 at 01:57:35.144
