   * xtb version 6.3.3 (4ae9cef) compiled by 'conda@95abc7406d43' on 2020-10-14
          program call               : xtb acid_119.xyz --opt --chrg 0 --uhf 0 --gfn 2
          number of atoms            :                    84
          number of electrons        :                   250
          charge                     :                     0
          spin                       :                   0.0

   ID    Z sym.   atoms
    1    6 C      1-22, 24-34, 36, 37, 41-51
    2    7 N      23, 40
    3    8 O      35, 38, 39, 52
    4    1 H      53-84

          :  Hamiltonian                  GFN2-xTB          :
 * total energy  :  -136.9493671 Eh     change       -0.4537441E-08 Eh
 * total energy  :  -136.9713467 Eh     change       -0.2197963E-01 Eh
 * total energy  :  -136.9782146 Eh     change       -0.6867940E-02 Eh
 * total energy  :  -136.9801404 Eh     change       -0.1925728E-02 Eh
 * total energy  :  -136.9815389 Eh     change       -0.1398502E-02 Eh
 * total energy  :  -136.9823259 Eh     change       -0.7870135E-03 Eh
 * total energy  :  -136.9830338 Eh     change       -0.7078980E-03 Eh
 * total energy  :  -136.9837828 Eh     change       -0.7490357E-03 Eh
 * total energy  :  -136.9845455 Eh     change       -0.7626602E-03 Eh
 * total energy  :  -136.9852302 Eh     change       -0.6847126E-03 Eh
 * total energy  :  -136.9941901 Eh     change       -0.6184831E-05 Eh
 * total energy  :  -136.9941979 Eh     change       -0.7825750E-05 Eh
 * total energy  :  -136.9942073 Eh     change       -0.9364914E-05 Eh
 * total energy  :  -136.9942149 Eh     change       -0.7597212E-05 Eh
 * total energy  :  -136.9942207 Eh     change       -0.5820058E-05 Eh
 * total energy  :  -136.9942268 Eh     change       -0.6170120E-05 Eh
 * total energy  :  -136.9942339 Eh     change       -0.7075337E-05 Eh
 * total energy  :  -136.9942409 Eh     change       -0.6973256E-05 Eh
 * total energy  :  -136.9942451 Eh     change       -0.4176348E-05 Eh
   *** GEOMETRY OPTIMIZATION CONVERGED AFTER 79 ITERATIONS ***

 final structure:
================
84
 xtb: 6.3.3 (4ae9cef)
C        -3.09467253722911    5.35625098575991   -1.31709817429290
C        -2.29367888335638    5.62320803006416   -2.38934712440257
C        -1.35466712837576    4.67100318145447   -2.80841575418618
C        -1.22488638863208    3.48181434663429   -2.14806303091694
C        -2.01757357620680    3.17844358907377   -1.01882754453424
C        -2.97983597048585    4.14228339510893   -0.60751336770612
C        -3.79368531806261    3.88544698935549    0.51432356295582
C        -3.64741476651513    2.73137637992460    1.22820997685618
C        -2.67746716922059    1.79506286453284    0.85213670735157
C        -1.88659188802661    1.98901034939595   -0.25222387901797
C        -0.80042590415788    0.99060155715307   -0.55780745773942
C         0.45980788396065    1.29715384166467    0.27724096926414
C         1.40923651705332    2.17323753150712   -0.49546253561428
C         2.24070450325758    1.60031485621909   -1.42409228050481
C         3.08766054470044    2.37286105274892   -2.22645397270082
C         3.06673436154535    3.73352335827411   -2.12247048684862
C         2.20240930207271    4.36922235018439   -1.20825635840595
C         1.36598718823225    3.58778023393118   -0.36327963547213
C         0.51464726993227    4.27164309928786    0.53278898407743
C         0.47330976380987    5.63681034181794    0.57140713553326
C         1.28931210641849    6.40167062416213   -0.27319000971609
C         2.14177687235509    5.77697447078760   -1.13656535971176
N         0.98922600635810   -0.02492560302540    0.59125158814585
C         2.13203781430331   -0.14761435271029    1.33351773705970
C         2.40854517731729   -1.53369176394808    1.81960742139138
C         2.62144937318843   -2.62331231219940    0.93796979472071
C         2.73662509590221   -2.46168347027809   -0.45877905208140
C         2.92947323342768   -3.53904635616326   -1.27691185987624
C         3.00900325914971   -4.83199490519229   -0.73894965153395
C         2.92429746107992   -5.01926714675264    0.61132309626732
C         2.74603746267243   -3.92641741338415    1.48526565362361
C         2.70491787379707   -4.09408366192417    2.88444388489849
C         2.57832389378970   -3.01603805204543    3.71376810446581
C         2.43102650972678   -1.73008600660420    3.17868834762310
O         2.82447024902784    0.81001653880415    1.59996930418810
C        -0.03251847445146   -1.04170991141303    0.48148760231966
C        -0.45310427079884   -1.58750306347202    1.86168187713423
O        -0.92328474891283   -0.61954205519431    2.64603512278505
O        -0.36436022358651   -2.73407706998631    2.20160849751810
N        -1.13077596414862   -0.37481413053882   -0.17743258879763
C        -2.27488474038072   -0.97984568034257   -0.60520789156250
C        -2.45936244712941   -2.35068197629236   -0.03138172395657
C        -3.32550203472192   -2.50274776053269    1.02186400883402
C        -3.46356649650886   -3.74563279986415    1.65492808516724
C        -2.72727503328781   -4.81693311492345    1.23485996736233
C        -1.85609744897554   -4.70678382271440    0.13182259781098
C        -1.73707285403647   -3.46014386149133   -0.53363330913614
C        -0.90282204005736   -3.36624932725596   -1.66831572237201
C        -0.19593205424329   -4.45134043658093   -2.10450574780318
C        -0.28397726696458   -5.67515633525805   -1.42405694668218
C        -1.09975939520019   -5.80142600979453   -0.33576358666975
O        -3.07748103139182   -0.41619659801690   -1.31484881223313
H        -3.83045038392609    6.07609014063481   -0.98735879081144
H        -2.38067342445870    6.55849697409078   -2.92222394616009
H        -0.72811290521503    4.88257691552309   -3.66228377180410
H        -0.49108611689980    2.77563526000907   -2.50232517103366
H        -4.52733164058501    4.62428167429185    0.80324021772184
H        -4.26538305230092    2.53604789724993    2.09232834751691
H        -2.54962479762774    0.90445138431255    1.44975224249141
H        -0.56035970135545    0.99790013959726   -1.62762797373626
H         0.17450314468689    1.77767992118558    1.22023382721625
H         2.24503815168047    0.52674279024089   -1.54388372992852
H         3.74270060914953    1.88255668352015   -2.93145417512468
H         3.70329227697391    4.34459783660951   -2.74605599871910
H        -0.12955335756944    3.71986700664403    1.19856370642510
H        -0.19491236439300    6.13485707157299    1.25828789354765
H         1.24147602469174    7.47960266798711   -0.23009970863939
H         2.78404204151767    6.35215792720522   -1.78834960450853
H         2.70132546946478   -1.46387696172819   -0.87037213075360
H         3.02986521133868   -3.39935812267974   -2.34327157110503
H         3.15438840562277   -5.67323095924150   -1.40020225556159
H         3.00604533853609   -6.00982045981806    1.03487262088441
H         2.78844508734979   -5.09227755513360    3.28891899533136
H         2.57241387789563   -3.14561327296031    4.78573282776935
H         2.30680935439502   -0.88219688690271    3.83723529567943
H         0.33083435441540   -1.90444492758576   -0.10190983749948
H        -1.17320573305304   -0.97037647628716    3.51679033492198
H        -3.89181086001913   -1.65212099710361    1.37424370336132
H        -4.14354920421417   -3.84020088471713    2.48868219639732
H        -2.80630215541253   -5.76898615239551    1.73910057618640
H        -0.85361428772049   -2.42708162588505   -2.20248390997233
H         0.43200664053052   -4.37499255919646   -2.97957357897054
H         0.28920570911243   -6.51946093591998   -1.77718608818919
H        -1.18476538067528   -6.74626848308611    0.18133229415932

          :  Hamiltonian                  GFN2-xTB          :
         :: total energy            -136.994245068358 Eh    ::
         :: gradient norm              0.000344945324 Eh/a0 ::
         :: HOMO-LUMO gap              2.678892933179 eV    ::
         :: SCC energy              -139.318791599423 Eh    ::
         :: -> dispersion             -0.141029628666 Eh    ::
         :: repulsion energy           2.318176030844 Eh    ::

    * Orbital Energies and Occupations

         #    Occupation            Energy/Eh            Energy/eV
      -------------------------------------------------------------
         1        2.0000           -0.7773367             -21.1524
       ...           ...                  ...                  ...
       113        2.0000           -0.4184788             -11.3874
       114        2.0000           -0.4118130             -11.2060
       115        2.0000           -0.4083557             -11.1119
       116        2.0000           -0.4041374             -10.9971
       117        2.0000           -0.4016658             -10.9299
       118        2.0000           -0.4010492             -10.9131
       119        2.0000           -0.3999025             -10.8819
       120        2.0000           -0.3967212             -10.7953
       121        2.0000           -0.3939279             -10.7193
       122        2.0000           -0.3884481             -10.5702
       123        2.0000           -0.3866501             -10.5213
       124        2.0000           -0.3792427             -10.3197
       125        2.0000           -0.3742705             -10.1844 (HOMO)
       126                         -0.2758230              -7.5055 (LUMO)
       127                         -0.2737730              -7.4497
       128                         -0.2659308              -7.2363
       129                         -0.2629684              -7.1557
       130                         -0.2588926              -7.0448
       131                         -0.2393348              -6.5126
       132                         -0.2366461              -6.4395
       133                         -0.2297677              -6.2523
       134                         -0.2285421              -6.2189
       135                         -0.2246414              -6.1128
       136                         -0.2197573              -5.9799
       ...                                ...                  ...
       240                          0.6962023              18.9446
      -------------------------------------------------------------
                  HL-Gap            0.0984475 Eh            2.6789 eV

     #   Z          covCN         q      C6AA      Î±(0)
     1   6 C        2.921    -0.034    28.842     8.807
     2   6 C        2.915    -0.029    28.720     8.788
     3   6 C        2.917    -0.028    28.702     8.785
     4   6 C        2.917    -0.032    28.805     8.801
     5   6 C        2.984     0.012    27.729     8.638
     6   6 C        2.989     0.017    27.629     8.622
     7   6 C        2.921    -0.035    28.874     8.812
     8   6 C        2.914    -0.029    28.723     8.788
     9   6 C        2.922    -0.031    28.763     8.795
    10   6 C        2.969     0.007    27.851     8.656
    11   6 C        3.825     0.051    19.702     6.316
    12   6 C        3.829     0.051    19.698     6.315
    13   6 C        2.968     0.009    27.825     8.652
    14   6 C        2.923    -0.029    28.722     8.789
    15   6 C        2.914    -0.029    28.720     8.788
    16   6 C        2.921    -0.035    28.867     8.811
    17   6 C        2.989     0.017    27.622     8.621
    18   6 C        2.984     0.013    27.716     8.636
    19   6 C        2.917    -0.032    28.796     8.800
    20   6 C        2.917    -0.028    28.700     8.785
    21   6 C        2.915    -0.029    28.717     8.788
    22   6 C        2.921    -0.034    28.840     8.807
    23   7 N        2.762    -0.124    23.696     7.230
    24   6 C        2.765     0.272    22.402     7.751
    25   6 C        2.973    -0.030    28.738     8.793
    26   6 C        2.987     0.012    27.742     8.640
    27   6 C        2.918    -0.038    28.940     8.822
    28   6 C        2.916    -0.027    28.683     8.782
    29   6 C        2.916    -0.028    28.698     8.785
    30   6 C        2.920    -0.031    28.778     8.797
    31   6 C        2.987     0.020    27.545     8.609
    32   6 C        2.919    -0.027    28.666     8.780
    33   6 C        2.915    -0.026    28.641     8.776
    34   6 C        2.924    -0.023    28.573     8.766
    35   8 O        0.859    -0.412    21.923     6.278
    36   6 C        3.753     0.091    19.128     6.237
    37   6 C        2.687     0.349    21.074     7.513
    38   8 O        1.659    -0.357    20.042     6.044
    39   8 O        0.856    -0.394    21.553     6.224
    40   7 N        2.765    -0.121    23.618     7.218
    41   6 C        2.763     0.273    22.383     7.748
    42   6 C        2.976    -0.029    28.724     8.791
    43   6 C        2.922    -0.026    28.658     8.779
    44   6 C        2.915    -0.027    28.686     8.783
    45   6 C        2.919    -0.027    28.672     8.781
    46   6 C        2.987     0.022    27.510     8.604
    47   6 C        2.988     0.013    27.722     8.637
    48   6 C        2.917    -0.037    28.910     8.817
    49   6 C        2.916    -0.027    28.677     8.781
    50   6 C        2.916    -0.028    28.690     8.783
    51   6 C        2.919    -0.030    28.760     8.794
    52   8 O        0.859    -0.412    21.927     6.278
    53   1 H        0.926     0.035     2.515     2.480
    54   1 H        0.926     0.033     2.539     2.492
    55   1 H        0.926     0.032     2.562     2.503
    56   1 H        0.926     0.026     2.637     2.539
    57   1 H        0.926     0.036     2.501     2.473
    58   1 H        0.926     0.033     2.541     2.493
    59   1 H        0.926     0.033     2.538     2.492
    60   1 H        0.924     0.052     2.289     2.366
    61   1 H        0.924     0.055     2.256     2.349
    62   1 H        0.926     0.027     2.634     2.538
    63   1 H        0.926     0.035     2.514     2.479
    64   1 H        0.926     0.037     2.493     2.469
    65   1 H        0.926     0.027     2.624     2.533
    66   1 H        0.926     0.032     2.562     2.503
    67   1 H        0.926     0.034     2.537     2.491
    68   1 H        0.926     0.035     2.511     2.478
    69   1 H        0.926     0.030     2.592     2.518
    70   1 H        0.926     0.035     2.522     2.483
    71   1 H        0.926     0.035     2.510     2.477
    72   1 H        0.926     0.038     2.475     2.460
    73   1 H        0.926     0.042     2.425     2.435
    74   1 H        0.926     0.040     2.449     2.447
    75   1 H        0.926     0.040     2.454     2.450
    76   1 H        0.923     0.064     2.149     2.292
    77   1 H        0.804     0.342     0.608     1.225
    78   1 H        0.926     0.036     2.503     2.474
    79   1 H        0.926     0.038     2.469     2.457
    80   1 H        0.926     0.042     2.425     2.435
    81   1 H        0.925     0.029     2.603     2.523
    82   1 H        0.926     0.035     2.513     2.479
    83   1 H        0.926     0.036     2.509     2.477
    84   1 H        0.926     0.039     2.467     2.456

Wiberg/Mayer (AO) data.
largest (>0.10) Wiberg bond orders for each atom

     #   Z sym  total        # sym  WBO       # sym  WBO       # sym  WBO
 ---------------------------------------------------------------------------
     1   6 C    3.991 --     2 C    1.558     6 C    1.279    53 H    0.968
                             4 C    0.118
     2   6 C    3.992 --     1 C    1.558     3 C    1.321    54 H    0.971
     3   6 C    3.992 --     4 C    1.555     2 C    1.321    55 H    0.971
     4   6 C    3.992 --     3 C    1.555     5 C    1.282    56 H    0.961
                             1 C    0.118
     5   6 C    3.989 --     4 C    1.282    10 C    1.253     6 C    1.252
     6   6 C    3.990 --     7 C    1.281     1 C    1.279     5 C    1.252
     7   6 C    3.990 --     8 C    1.551     6 C    1.281    57 H    0.968
                            10 C    0.115
     8   6 C    3.992 --     7 C    1.551     9 C    1.328    58 H    0.970
     9   6 C    3.990 --    10 C    1.522     8 C    1.328    59 H    0.965
    10   6 C    3.984 --     9 C    1.522     5 C    1.253    11 C    0.992
                             7 C    0.115
    11   6 C    3.961 --    10 C    0.992    40 N    0.956    12 C    0.947
                            60 H    0.947
    12   6 C    3.961 --    13 C    0.993    23 N    0.954    11 C    0.947
                            61 H    0.946
    13   6 C    3.983 --    14 C    1.521    18 C    1.252    12 C    0.993
                            16 C    0.115
    14   6 C    3.990 --    13 C    1.521    15 C    1.328    62 H    0.962
    15   6 C    3.992 --    16 C    1.551    14 C    1.328    63 H    0.970
    16   6 C    3.990 --    15 C    1.551    17 C    1.281    64 H    0.968
                            13 C    0.115
    17   6 C    3.990 --    16 C    1.281    22 C    1.279    18 C    1.253
    18   6 C    3.988 --    19 C    1.282    17 C    1.253    13 C    1.252
    19   6 C    3.992 --    20 C    1.556    18 C    1.282    65 H    0.961
                            22 C    0.118
    20   6 C    3.992 --    19 C    1.556    21 C    1.321    66 H    0.971
    21   6 C    3.992 --    22 C    1.558    20 C    1.321    67 H    0.971
    22   6 C    3.991 --    21 C    1.558    17 C    1.279    68 H    0.968
                            19 C    0.118
    23   7 N    3.436 --    24 C    1.181    36 C    0.985    12 C    0.954
                            35 O    0.184
    24   6 C    3.944 --    35 O    1.707    23 N    1.181    25 C    0.968
    25   6 C    3.986 --    34 C    1.509    26 C    1.245    24 C    0.968
                            32 C    0.114
    26   6 C    3.989 --    27 C    1.280    31 C    1.255    25 C    1.245
    27   6 C    3.992 --    28 C    1.553    26 C    1.280    69 H    0.961
                            30 C    0.117
    28   6 C    3.992 --    27 C    1.553    29 C    1.321    70 H    0.970
    29   6 C    3.992 --    30 C    1.558    28 C    1.321    71 H    0.970
    30   6 C    3.990 --    29 C    1.558    31 C    1.278    72 H    0.968
                            27 C    0.117
    31   6 C    3.990 --    30 C    1.278    32 C    1.278    26 C    1.255
    32   6 C    3.991 --    33 C    1.552    31 C    1.278    73 H    0.968
                            25 C    0.114
    33   6 C    3.991 --    32 C    1.552    34 C    1.327    74 H    0.969
    34   6 C    3.990 --    25 C    1.509    33 C    1.327    75 H    0.969
    35   8 O    2.030 --    24 C    1.707    23 N    0.184
    36   6 C    3.971 --    40 N    0.986    23 N    0.985    76 H    0.934
                            37 C    0.909
    37   6 C    3.919 --    39 O    1.775    38 O    1.152    36 C    0.909
    38   8 O    2.221 --    37 C    1.152    77 H    0.857    39 O    0.180
    39   8 O    2.058 --    37 C    1.775    38 O    0.180
    40   7 N    3.451 --    41 C    1.194    36 C    0.986    11 C    0.956
                            52 O    0.191
    41   6 C    3.944 --    52 O    1.706    40 N    1.194    42 C    0.955
    42   6 C    3.986 --    43 C    1.514    47 C    1.249    41 C    0.955
                            45 C    0.115
    43   6 C    3.991 --    42 C    1.514    44 C    1.325    78 H    0.969
    44   6 C    3.991 --    45 C    1.553    43 C    1.325    79 H    0.970
    45   6 C    3.991 --    44 C    1.553    46 C    1.278    80 H    0.968
                            42 C    0.115
    46   6 C    3.990 --    51 C    1.278    45 C    1.278    47 C    1.255
    47   6 C    3.989 --    48 C    1.278    46 C    1.255    42 C    1.249
    48   6 C    3.992 --    49 C    1.554    47 C    1.278    81 H    0.966
                            51 C    0.118
    49   6 C    3.992 --    48 C    1.554    50 C    1.320    82 H    0.970
    50   6 C    3.992 --    51 C    1.559    49 C    1.320    83 H    0.970
    51   6 C    3.991 --    50 C    1.559    46 C    1.278    84 H    0.968
                            48 C    0.118
    52   8 O    2.031 --    41 C    1.706    40 N    0.191
    53   1 H    0.998 --     1 C    0.968
    54   1 H    0.998 --     2 C    0.971
    55   1 H    0.999 --     3 C    0.971
    56   1 H    0.999 --     4 C    0.961
    57   1 H    0.998 --     7 C    0.968
    58   1 H    0.998 --     8 C    0.970
    59   1 H    0.998 --     9 C    0.965
    60   1 H    0.996 --    11 C    0.947
    61   1 H    0.996 --    12 C    0.946
    62   1 H    0.999 --    14 C    0.962
    63   1 H    0.998 --    15 C    0.970
    64   1 H    0.998 --    16 C    0.968
    65   1 H    0.999 --    19 C    0.961
    66   1 H    0.999 --    20 C    0.971
    67   1 H    0.998 --    21 C    0.971
    68   1 H    0.998 --    22 C    0.968
    69   1 H    0.999 --    27 C    0.961
    70   1 H    0.998 --    28 C    0.970
    71   1 H    0.998 --    29 C    0.970
    72   1 H    0.998 --    30 C    0.968
    73   1 H    0.997 --    32 C    0.968
    74   1 H    0.997 --    33 C    0.969
    75   1 H    0.998 --    34 C    0.969
    76   1 H    0.996 --    36 C    0.934
    77   1 H    0.883 --    38 O    0.857
    78   1 H    0.998 --    43 C    0.969
    79   1 H    0.997 --    44 C    0.970
    80   1 H    0.997 --    45 C    0.968
    81   1 H    0.999 --    48 C    0.966
    82   1 H    0.998 --    49 C    0.970
    83   1 H    0.998 --    50 C    0.970
    84   1 H    0.998 --    51 C    0.968
 ---------------------------------------------------------------------------

molecular dipole:
                 x           y           z       tot (Debye)
 q only:        0.011      -0.395       0.365
   full:       -0.025      -0.733       0.639       2.473

           -------------------------------------------------
          | TOTAL ENERGY             -136.994245068358 Eh   |
          | GRADIENT NORM               0.000344945324 Eh/Î± |
          | HOMO-LUMO GAP               2.678892933179 eV   |
           -------------------------------------------------

 * finished run on 2022/03/16 at 21:31:03.466
