   * xtb version 6.3.3 (4ae9cef) compiled by 'conda@95abc7406d43' on 2020-10-14
          program call               : xtb acid_32.xyz --opt --chrg 0 --uhf 0 --gfn 2
          number of atoms            :                    78
          number of electrons        :                   242
          charge                     :                     0
          spin                       :                   0.0

   ID    Z sym.   atoms
    1    6 C      1-22, 24-26, 28-33, 35, 36, 40-42, 44-49
    2    7 N      23, 39
    3    8 O      27, 34, 37, 38, 43, 50
    4    1 H      51-78

          :  Hamiltonian                  GFN2-xTB          :
 * total energy  :  -134.4752005 Eh     change       -0.7128961E-08 Eh
 * total energy  :  -134.4933509 Eh     change       -0.1815034E-01 Eh
 * total energy  :  -134.4984578 Eh     change       -0.5106916E-02 Eh
 * total energy  :  -134.5003516 Eh     change       -0.1893820E-02 Eh
 * total energy  :  -134.5018808 Eh     change       -0.1529157E-02 Eh
 * total energy  :  -134.5028043 Eh     change       -0.9235687E-03 Eh
 * total energy  :  -134.5035353 Eh     change       -0.7309699E-03 Eh
 * total energy  :  -134.5041947 Eh     change       -0.6594428E-03 Eh
 * total energy  :  -134.5046351 Eh     change       -0.4403626E-03 Eh
 * total energy  :  -134.5051156 Eh     change       -0.4804650E-03 Eh
 * total energy  :  -134.5117174 Eh     change       -0.4217379E-04 Eh
 * total energy  :  -134.5117492 Eh     change       -0.3183223E-04 Eh
 * total energy  :  -134.5117867 Eh     change       -0.3745148E-04 Eh
 * total energy  :  -134.5118120 Eh     change       -0.2533931E-04 Eh
 * total energy  :  -134.5118338 Eh     change       -0.2183055E-04 Eh
 * total energy  :  -134.5118565 Eh     change       -0.2267468E-04 Eh
 * total energy  :  -134.5118699 Eh     change       -0.1342667E-04 Eh
 * total energy  :  -134.5118773 Eh     change       -0.7383492E-05 Eh
 * total energy  :  -134.5118814 Eh     change       -0.4064473E-05 Eh
   *** GEOMETRY OPTIMIZATION CONVERGED AFTER 62 ITERATIONS ***

 final structure:
================
78
 xtb: 6.3.3 (4ae9cef)
C        -4.72141533096738   -4.13204286309354    1.39897055120207
C        -4.20397792687370   -4.57364581051078    2.58214669983356
C        -3.02051465949398   -4.00649752074210    3.07395091693247
C        -2.36474560436504   -3.03722466782011    2.36750267478783
C        -2.85079353607465   -2.57356159253307    1.12425833710501
C        -4.07520584361111   -3.12469763739468    0.65156158512737
C        -4.64307611281885   -2.65016910563700   -0.54776462320199
C        -4.03688591109388   -1.65169612126363   -1.25308517130412
C        -2.81873895710309   -1.12349692343039   -0.81072713553594
C        -2.21012583357485   -1.58090803472262    0.33293009103505
C        -0.87576005816541   -0.99124601733386    0.70657315715466
C         0.22821663067260   -1.16734524584785   -0.35699030334004
C         0.93299756027165   -2.49017869308733   -0.47033457875574
C         0.57208651412027   -3.57017952308870    0.29088962089259
C         1.24576670660645   -4.79467281830631    0.17711219655082
C         2.28653730112881   -4.93217614046510   -0.69316516738453
C         2.67131875176255   -3.85672295397220   -1.52030654212871
C         1.97308671049483   -2.62313731339117   -1.43425849195075
C         2.35079193220946   -1.58696606933677   -2.31544470995119
C         3.38137221604611   -1.74740351429428   -3.20016219995997
C         4.09027650128877   -2.95491329194512   -3.25675970269163
C         3.73310274964810   -3.98888528567908   -2.43914087708433
N         1.11819403483672   -0.03318213216043   -0.04125248458429
C         2.20584179983710   -0.19103200128727    0.79381390388023
C         2.84868629955249    1.10454259071839    1.14341293168163
C         2.96156374139264    1.68881449929843    2.36519627502267
O         3.61140994585295    2.87002829236914    2.31522314143189
C         3.96441353741839    3.06639966285493    1.02392090275944
C         3.52168594650191    1.98789059037762    0.23127308211058
C         3.81971282527570    1.95386040488491   -1.13216953613958
C         4.51409009892777    3.01967684688416   -1.66538470069966
C         4.91703131407509    4.09728216758744   -0.87372731328056
C         4.66032700301249    4.13649610900980    0.48214949370272
O         2.65035106669169   -1.25709801170231    1.13767340572340
C         0.20194370964120    1.07545450282364    0.13511272266650
C        -0.16907213260016    1.68001497643820   -1.24493533785997
O         0.86282516813194    2.19910030114698   -1.90412027271616
O        -1.27762827783829    1.68355352338553   -1.68653633351136
N        -0.93577875125191    0.47395329418305    0.79784743034672
C        -1.82596535941261    1.10834444188758    1.60478754727693
C        -1.72096089755402    2.59110579906887    1.55810503415983
C        -0.93808647861832    3.41763964041291    2.29638958383687
O        -1.12232689647350    4.72262991099655    1.98615503951413
C        -2.06849262398220    4.75567142022746    1.01510622468806
C        -2.48988320350723    3.44961697430229    0.70116807223668
C        -3.46496586608744    3.24044517507747   -0.26989604083388
C        -3.98430109113950    4.34775584670044   -0.90255270123476
C        -3.55491231086966    5.63905143576061   -0.58680081598150
C        -2.59244831659352    5.86854389049307    0.37547084943963
O        -2.64028527265086    0.51110781899884    2.27045182554133
H        -5.64533959132987   -4.54166784985734    1.01573312394713
H        -4.70518212438673   -5.34322861554326    3.15045670202045
H        -2.62971735007993   -4.33657504906515    4.02548076909523
H        -1.47551838543230   -2.60600143984398    2.80082284891135
H        -5.57482639988676   -3.08032133154585   -0.88621736095516
H        -4.48161763653685   -1.26494956730889   -2.15787871067723
H        -2.36867731332327   -0.32441740467791   -1.38097042700755
H        -0.51674963029394   -1.37270661866032    1.66745702697935
H        -0.21553604229731   -0.93688034066347   -1.33662578579941
H        -0.23978488500285   -3.50014043983810    0.99498913060988
H         0.93583127273560   -5.62034138863845    0.80004663191352
H         2.82748417328460   -5.86440304103789   -0.76802977622043
H         1.80873970564569   -0.65339137529597   -2.30872578532359
H         3.65162259235935   -0.94239089426033   -3.86906205932729
H         4.90658749583499   -3.06214760743684   -3.95571028662280
H         4.25930910019938   -4.93170490382486   -2.48457720530771
H         2.60906237067994    1.36786456612823    3.32633423443056
H         3.56591551796064    1.09231399409445   -1.73281005947325
H         4.76078643516043    3.02023332066850   -2.71573256502389
H         5.45726189987384    4.91085587897827   -1.33186502191482
H         4.99040447143823    4.95293843368446    1.10317569824040
H         0.64383675948049    1.87537253653845    0.74576309080526
H         1.72434726354793    2.09925573417021   -1.45530196581323
H        -0.22535623768241    3.20808520641841    3.07161935416648
H        -3.79114588120139    2.24168393049517   -0.50959328100128
H        -4.74122631130222    4.22116918806460   -1.66149842331510
H        -3.98868799052267    6.47908615138667   -1.10787436909857
H        -2.25910309160192    6.86250810003271    0.62695821524122

          :  Hamiltonian                  GFN2-xTB          :
         :: total energy            -134.511881393262 Eh    ::
         :: gradient norm              0.000570695907 Eh/a0 ::
         :: HOMO-LUMO gap              2.569603511688 eV    ::
         :: SCC energy              -136.623119410327 Eh    ::
         :: -> dispersion             -0.119127701153 Eh    ::
         :: repulsion energy           2.107214727767 Eh    ::

    * Orbital Energies and Occupations

         #    Occupation            Energy/Eh            Energy/eV
      -------------------------------------------------------------
         1        2.0000           -0.7760545             -21.1175
       ...           ...                  ...                  ...
       109        2.0000           -0.4205070             -11.4426
       110        2.0000           -0.4189985             -11.4015
       111        2.0000           -0.4159948             -11.3198
       112        2.0000           -0.4140354             -11.2665
       113        2.0000           -0.4125594             -11.2263
       114        2.0000           -0.4044889             -11.0067
       115        2.0000           -0.4040609             -10.9951
       116        2.0000           -0.4031711             -10.9708
       117        2.0000           -0.4004648             -10.8972
       118        2.0000           -0.3974844             -10.8161
       119        2.0000           -0.3917150             -10.6591
       120        2.0000           -0.3807940             -10.3619
       121        2.0000           -0.3748157             -10.1993 (HOMO)
       122                         -0.2803845              -7.6297 (LUMO)
       123                         -0.2690928              -7.3224
       124                         -0.2640192              -7.1843
       125                         -0.2598517              -7.0709
       126                         -0.2532466              -6.8912
       127                         -0.2504191              -6.8143
       128                         -0.2465346              -6.7085
       129                         -0.2319243              -6.3110
       130                         -0.2257401              -6.1427
       131                         -0.2212388              -6.0202
       132                         -0.2177525              -5.9253
       ...                                ...                  ...
       228                          0.7103980              19.3309
      -------------------------------------------------------------
                  HL-Gap            0.0944312 Eh            2.5696 eV

     #   Z          covCN         q      C6AA      Î±(0)
     1   6 C        2.922    -0.033    28.824     8.804
     2   6 C        2.915    -0.029    28.728     8.789
     3   6 C        2.917    -0.028    28.704     8.786
     4   6 C        2.917    -0.030    28.740     8.791
     5   6 C        2.982     0.017    27.628     8.622
     6   6 C        2.989     0.016    27.638     8.624
     7   6 C        2.921    -0.034    28.858     8.809
     8   6 C        2.914    -0.029    28.715     8.787
     9   6 C        2.924    -0.037    28.920     8.819
    10   6 C        2.966     0.004    27.934     8.669
    11   6 C        3.826     0.047    19.760     6.325
    12   6 C        3.867     0.048    19.733     6.317
    13   6 C        2.965     0.009    27.803     8.649
    14   6 C        2.920    -0.033    28.824     8.804
    15   6 C        2.915    -0.026    28.649     8.777
    16   6 C        2.919    -0.033    28.821     8.804
    17   6 C        2.989     0.019    27.574     8.614
    18   6 C        2.986     0.014    27.692     8.632
    19   6 C        2.918    -0.037    28.923     8.819
    20   6 C        2.917    -0.030    28.758     8.794
    21   6 C        2.915    -0.030    28.746     8.792
    22   6 C        2.921    -0.032    28.795     8.800
    23   7 N        2.767    -0.151    24.271     7.317
    24   6 C        2.757     0.283    22.212     7.718
    25   6 C        3.037    -0.063    29.539     8.915
    26   6 C        3.057     0.087    26.014     8.364
    27   8 O        1.721    -0.186    17.105     5.584
    28   6 C        3.117     0.125    25.099     8.206
    29   6 C        3.091    -0.022    28.456     8.744
    30   6 C        2.910    -0.053    29.304     8.877
    31   6 C        2.921    -0.032    28.807     8.802
    32   6 C        2.926    -0.030    28.747     8.793
    33   6 C        2.908    -0.045    29.124     8.849
    34   8 O        0.858    -0.385    21.377     6.199
    35   6 C        3.796     0.080    19.263     6.250
    36   6 C        2.686     0.349    21.080     7.514
    37   8 O        1.658    -0.360    20.094     6.051
    38   8 O        0.856    -0.342    20.563     6.080
    39   7 N        2.773    -0.130    23.818     7.248
    40   6 C        2.755     0.279    22.273     7.728
    41   6 C        3.038    -0.059    29.434     8.899
    42   6 C        3.055     0.074    26.304     8.411
    43   8 O        1.720    -0.201    17.352     5.624
    44   6 C        3.117     0.122    25.172     8.218
    45   6 C        3.094    -0.009    28.117     8.691
    46   6 C        2.911    -0.024    28.615     8.772
    47   6 C        2.923    -0.032    28.810     8.802
    48   6 C        2.927    -0.031    28.782     8.798
    49   6 C        2.908    -0.051    29.265     8.871
    50   8 O        0.859    -0.408    21.840     6.266
    51   1 H        0.926     0.034     2.536     2.490
    52   1 H        0.926     0.032     2.559     2.501
    53   1 H        0.926     0.032     2.552     2.498
    54   1 H        0.926     0.031     2.567     2.506
    55   1 H        0.926     0.036     2.507     2.476
    56   1 H        0.926     0.037     2.495     2.470
    57   1 H        0.926     0.048     2.344     2.394
    58   1 H        0.924     0.052     2.293     2.368
    59   1 H        0.923     0.055     2.259     2.350
    60   1 H        0.926     0.042     2.425     2.435
    61   1 H        0.926     0.038     2.474     2.460
    62   1 H        0.926     0.038     2.475     2.460
    63   1 H        0.926     0.021     2.725     2.581
    64   1 H        0.926     0.028     2.611     2.527
    65   1 H        0.926     0.033     2.548     2.496
    66   1 H        0.926     0.036     2.504     2.475
    67   1 H        0.926     0.065     2.147     2.291
    68   1 H        0.926     0.048     2.348     2.396
    69   1 H        0.926     0.051     2.310     2.377
    70   1 H        0.926     0.053     2.288     2.365
    71   1 H        0.926     0.059     2.206     2.323
    72   1 H        0.923     0.046     2.372     2.409
    73   1 H        0.803     0.333     0.630     1.247
    74   1 H        0.926     0.046     2.370     2.408
    75   1 H        0.926     0.056     2.251     2.346
    76   1 H        0.926     0.045     2.381     2.413
    77   1 H        0.926     0.044     2.397     2.421
    78   1 H        0.926     0.049     2.338     2.391

Wiberg/Mayer (AO) data.
largest (>0.10) Wiberg bond orders for each atom

     #   Z sym  total        # sym  WBO       # sym  WBO       # sym  WBO
 ---------------------------------------------------------------------------
     1   6 C    3.991 --     2 C    1.557     6 C    1.279    51 H    0.968
                             4 C    0.118
     2   6 C    3.992 --     1 C    1.557     3 C    1.322    52 H    0.971
     3   6 C    3.990 --     4 C    1.554     2 C    1.322    53 H    0.971
     4   6 C    3.992 --     3 C    1.554     5 C    1.282    54 H    0.958
                             1 C    0.118
     5   6 C    3.988 --     4 C    1.282    10 C    1.254     6 C    1.251
     6   6 C    3.990 --     7 C    1.281     1 C    1.279     5 C    1.251
     7   6 C    3.990 --     8 C    1.551     6 C    1.281    55 H    0.968
                            10 C    0.115
     8   6 C    3.992 --     7 C    1.551     9 C    1.329    56 H    0.970
     9   6 C    3.990 --    10 C    1.521     8 C    1.329    57 H    0.960
    10   6 C    3.983 --     9 C    1.521     5 C    1.254    11 C    0.993
                             7 C    0.115
    11   6 C    3.958 --    10 C    0.993    12 C    0.961    58 H    0.947
                            39 N    0.943
    12   6 C    3.956 --    13 C    0.998    11 C    0.961    59 H    0.942
                            23 N    0.941
    13   6 C    3.983 --    14 C    1.532    18 C    1.242    12 C    0.998
                            16 C    0.114
    14   6 C    3.990 --    13 C    1.532    15 C    1.318    60 H    0.961
    15   6 C    3.992 --    16 C    1.561    14 C    1.318    61 H    0.970
    16   6 C    3.991 --    15 C    1.561    17 C    1.273    62 H    0.968
                            13 C    0.114
    17   6 C    3.990 --    22 C    1.282    16 C    1.273    18 C    1.258
    18   6 C    3.989 --    19 C    1.288    17 C    1.258    13 C    1.242
    19   6 C    3.993 --    20 C    1.551    18 C    1.288    63 H    0.964
                            22 C    0.118
    20   6 C    3.992 --    19 C    1.551    21 C    1.325    64 H    0.971
    21   6 C    3.992 --    22 C    1.555    20 C    1.325    65 H    0.971
    22   6 C    3.991 --    21 C    1.555    17 C    1.282    66 H    0.968
                            19 C    0.118
    23   7 N    3.393 --    24 C    1.155    35 C    0.981    12 C    0.941
                            34 O    0.176
    24   6 C    3.947 --    34 O    1.744    23 N    1.155    25 C    0.969
    25   6 C    3.977 --    26 C    1.615    29 C    1.164    24 C    0.969
    26   6 C    3.918 --    25 C    1.615    27 O    1.122    67 H    0.964
    27   8 O    2.424 --    26 C    1.122    28 C    1.085
    28   6 C    3.921 --    33 C    1.353    29 C    1.277    27 O    1.085
    29   6 C    3.983 --    30 C    1.324    28 C    1.277    25 C    1.164
    30   6 C    3.991 --    31 C    1.490    29 C    1.324    68 H    0.960
                            33 C    0.115
    31   6 C    3.990 --    30 C    1.490    32 C    1.385    69 H    0.970
    32   6 C    3.990 --    33 C    1.484    31 C    1.385    70 H    0.970
    33   6 C    3.987 --    32 C    1.484    28 C    1.353    71 H    0.966
                            30 C    0.115
    34   8 O    2.066 --    24 C    1.744    23 N    0.176
    35   6 C    3.971 --    39 N    0.984    23 N    0.981    72 H    0.936
                            36 C    0.903
    36   6 C    3.926 --    38 O    1.804    37 O    1.156    35 C    0.903
    37   8 O    2.227 --    36 C    1.156    73 H    0.831    38 O    0.174
    38   8 O    2.098 --    36 C    1.804    37 O    0.174
    39   7 N    3.453 --    40 C    1.204    35 C    0.984    11 C    0.943
                            50 O    0.194
    40   6 C    3.949 --    50 O    1.706    39 N    1.204    41 C    0.962
    41   6 C    3.978 --    42 C    1.631    45 C    1.163    40 C    0.962
    42   6 C    3.917 --    41 C    1.631    43 O    1.107    74 H    0.966
    43   8 O    2.403 --    42 C    1.107    44 C    1.078
    44   6 C    3.919 --    49 C    1.351    45 C    1.284    43 O    1.078
    45   6 C    3.984 --    46 C    1.334    44 C    1.284    41 C    1.163
    46   6 C    3.990 --    47 C    1.500    45 C    1.334    75 H    0.967
                            49 C    0.118
    47   6 C    3.991 --    46 C    1.500    48 C    1.383    76 H    0.970
    48   6 C    3.991 --    49 C    1.484    47 C    1.383    77 H    0.971
    49   6 C    3.987 --    48 C    1.484    44 C    1.351    78 H    0.967
                            46 C    0.118
    50   8 O    2.035 --    40 C    1.706    39 N    0.194
    51   1 H    0.998 --     1 C    0.968
    52   1 H    0.998 --     2 C    0.971
    53   1 H    0.998 --     3 C    0.971
    54   1 H    0.999 --     4 C    0.958
    55   1 H    0.998 --     7 C    0.968
    56   1 H    0.998 --     8 C    0.970
    57   1 H    0.997 --     9 C    0.960
    58   1 H    0.997 --    11 C    0.947
    59   1 H    0.996 --    12 C    0.942
    60   1 H    0.998 --    14 C    0.961
    61   1 H    0.998 --    15 C    0.970
    62   1 H    0.997 --    16 C    0.968
    63   1 H    0.999 --    19 C    0.964
    64   1 H    0.999 --    20 C    0.971
    65   1 H    0.998 --    21 C    0.971
    66   1 H    0.998 --    22 C    0.968
    67   1 H    0.995 --    26 C    0.964
    68   1 H    0.998 --    30 C    0.960
    69   1 H    0.997 --    31 C    0.970
    70   1 H    0.997 --    32 C    0.970
    71   1 H    0.996 --    33 C    0.966
    72   1 H    0.997 --    35 C    0.936
    73   1 H    0.889 --    37 O    0.831
    74   1 H    0.997 --    42 C    0.966
    75   1 H    0.997 --    46 C    0.967
    76   1 H    0.998 --    47 C    0.970
    77   1 H    0.998 --    48 C    0.971
    78   1 H    0.997 --    49 C    0.967
 ---------------------------------------------------------------------------

molecular dipole:
                 x           y           z       tot (Debye)
 q only:        1.227       0.319      -1.118
   full:        1.670       0.675      -0.640       4.859

           -------------------------------------------------
          | TOTAL ENERGY             -134.511881393262 Eh   |
          | GRADIENT NORM               0.000570695907 Eh/Î± |
          | HOMO-LUMO GAP               2.569603511688 eV   |
           -------------------------------------------------

 * finished run on 2022/03/16 at 23:48:02.289
