   * xtb version 6.3.3 (4ae9cef) compiled by 'conda@95abc7406d43' on 2020-10-14
          program call               : xtb acid_373.xyz --opt --chrg 0 --uhf 0 --gfn 2
          number of atoms            :                    72
          number of electrons        :                   274
          charge                     :                     0
          spin                       :                   0.0

   ID    Z sym.   atoms
    1    6 C      1, 2, 6-15, 19-22, 24-29, 33, 34, 36, 37, 41-46, 50, 51
    2    9 F      3-5, 16-18, 30-32, 47-49
    3    7 N      23, 40
    4    8 O      35, 38, 39, 52
    5    1 H      53-72

          :  Hamiltonian                  GFN2-xTB          :
 * total energy  :  -161.9545180 Eh     change       -0.1254080E-08 Eh
 * total energy  :  -161.9736282 Eh     change       -0.1911016E-01 Eh
 * total energy  :  -161.9797365 Eh     change       -0.6108392E-02 Eh
 * total energy  :  -161.9815926 Eh     change       -0.1856103E-02 Eh
 * total energy  :  -161.9826790 Eh     change       -0.1086388E-02 Eh
 * total energy  :  -161.9834668 Eh     change       -0.7877667E-03 Eh
 * total energy  :  -161.9841207 Eh     change       -0.6539372E-03 Eh
 * total energy  :  -161.9848179 Eh     change       -0.6971974E-03 Eh
 * total energy  :  -161.9855447 Eh     change       -0.7267373E-03 Eh
 * total energy  :  -161.9862788 Eh     change       -0.7341341E-03 Eh
 * total energy  :  -162.0111991 Eh     change       -0.1771780E-04 Eh
 * total energy  :  -162.0111963 Eh     change        0.2797518E-05 Eh
 * total energy  :  -162.0112091 Eh     change       -0.1278001E-04 Eh
 * total energy  :  -162.0112253 Eh     change       -0.1623232E-04 Eh
 * total energy  :  -162.0112341 Eh     change       -0.8751448E-05 Eh
 * total energy  :  -162.0112508 Eh     change       -0.1670408E-04 Eh
 * total energy  :  -162.0112479 Eh     change        0.2831388E-05 Eh
 * total energy  :  -162.0112554 Eh     change       -0.7434888E-05 Eh
 * total energy  :  -162.0112601 Eh     change       -0.4754656E-05 Eh
   *** GEOMETRY OPTIMIZATION CONVERGED AFTER 135 ITERATIONS ***

 final structure:
================
72
 xtb: 6.3.3 (4ae9cef)
C         2.16170929947819   -0.71501939561101    1.29029633884408
C         1.89925268457326   -2.18239550548676    1.07491347801403
F         0.58705250461518   -2.47933848981717    1.20117676126162
F         2.53792645490528   -2.95875908780992    1.95271745988661
F         2.25207435388267   -2.63323602190940   -0.14257085587577
C         3.01959844159148   -0.34675716665322    2.32180647172881
C         3.22688224506146    0.98781618191311    2.61431843643482
C         2.55611106093580    1.96166686002503    1.89388751057542
C         1.71757307722923    1.59890679197730    0.85733292699563
C         1.52707216374370    0.26181135875290    0.51953663844170
C         0.62905643693043   -0.05476694620114   -0.65515553111958
C        -0.85156765682891    0.26002978362502   -0.30115779207024
C        -1.70119836929133   -0.95204234900285    0.01677681957441
C        -2.19299992929981   -1.87866729135454   -0.90863507850375
C        -1.93959024985720   -1.78846596089104   -2.39282893515111
F        -2.63283709023962   -0.79120296764590   -2.97417522981546
F        -2.29919751311291   -2.90318489949147   -3.04122511599306
F        -0.65032928343515   -1.58874640761988   -2.71726347796576
C        -3.00309082691638   -2.92773510663035   -0.48241565775308
C        -3.32123286575135   -3.08332265333405    0.85233463917312
C        -2.82052988100216   -2.18882142073004    1.78021768934892
C        -2.02496322480091   -1.14248420353638    1.35791825003175
N        -1.33037314803810    1.07146027312756   -1.40442622990010
C        -2.49182935910243    1.77942172619568   -1.39646133441274
C        -3.44023339644079    1.37838931213141   -0.30352250751132
C        -4.46133195520042    0.47927125623761   -0.58391406615444
C        -5.31685828079064    0.06665870749877    0.42031609866878
C        -5.15974112847882    0.57509084749178    1.70215875162357
C        -6.02333689828065    0.07176388741658    2.82384987401822
F        -6.32760594719793    1.02245696739409    3.71791244754070
F        -5.39576959592360   -0.90401803220894    3.51983862183294
F        -7.17995893572541   -0.45609172570829    2.40827136849327
C        -4.17673244067107    1.51646027239327    1.97742102131625
C        -3.31998562234748    1.91999812884287    0.97013572257823
O        -2.73776732012201    2.63325455362320   -2.21428569796370
C        -0.30170917166001    1.35301968402691   -2.38303668810496
C        -0.19003434301165    2.86603682238131   -2.68428989114506
O         0.04431332924204    3.55131327542452   -1.55447832621694
O        -0.33017049887483    3.35730421610912   -3.75799097672990
N         0.90411473191471    0.82084644610036   -1.78396604667743
C         2.10796456565671    1.30608029862989   -2.18176973508608
C         3.31582806872582    0.62150535930024   -1.62895565935627
C         3.53653361183249   -0.72867345715400   -1.86545114352756
C         4.66595438459465   -1.34515081054172   -1.35593219838168
C         5.57033502326940   -0.60296485186980   -0.61139861393438
C         6.75333102942246   -1.25947066427855    0.04191414216989
F         6.98090801469646   -2.50471310097455   -0.38534784938020
F         7.89222975997388   -0.57304222806218   -0.13875314887631
F         6.58158605390803   -1.34253689356121    1.38041569668462
C         5.38426649891429    0.76135787872197   -0.41851114464043
C         4.26554066058719    1.37387762503788   -0.94508454452370
O         2.18845838792323    2.23874498933144   -2.95286062307212
H         3.52352093137623   -1.10872545378550    2.89500390991767
H         3.90014223986507    1.26114026051098    3.41077019931437
H         2.69086973770650    3.00487514165136    2.13427901863369
H         1.21319813170821    2.36155058435628    0.28161523271927
H         0.73462737404325   -1.09968621864753   -0.95681034505454
H        -0.85019257064597    0.87955055131972    0.60729134963026
H        -3.38400750142920   -3.63036499733263   -1.20691419072094
H        -3.95288286709785   -3.90007900206238    1.16244380908546
H        -3.05674675022076   -2.29695703535248    2.82667087666014
H        -1.64093259527588   -0.44687788774357    2.08870223531591
H        -4.57937911905045    0.10348532673802   -1.58752446971542
H        -6.10325201907918   -0.64184809711660    0.21241322405726
H        -4.08728965747118    1.92655452312717    2.97167936252321
H        -2.55986210152154    2.65940753638274    1.17369095487189
H        -0.51991177142419    0.86098567763431   -3.34433373732759
H         0.09601013035464    4.49705243702250   -1.76504221265289
H         2.82960842684251   -1.30093652457944   -2.44521289944391
H         4.83435559747623   -2.39675097330537   -1.52604338204338
H         6.11530463148852    1.33065747519050    0.13451033240856
H         4.11212184111861    2.43403281034509   -0.81990433360612

          :  Hamiltonian                  GFN2-xTB          :
         :: total energy            -162.011260134080 Eh    ::
         :: gradient norm              0.000482265164 Eh/a0 ::
         :: HOMO-LUMO gap              3.151479883135 eV    ::
         :: SCC energy              -163.684635805006 Eh    ::
         :: -> dispersion             -0.115173862348 Eh    ::
         :: repulsion energy           1.668092163646 Eh    ::

    * Orbital Energies and Occupations

         #    Occupation            Energy/Eh            Energy/eV
      -------------------------------------------------------------
         1        2.0000           -0.9056383             -24.6437
       ...           ...                  ...                  ...
       125        2.0000           -0.4710304             -12.8174
       126        2.0000           -0.4699788             -12.7888
       127        2.0000           -0.4671640             -12.7122
       128        2.0000           -0.4634471             -12.6110
       129        2.0000           -0.4591518             -12.4942
       130        2.0000           -0.4549065             -12.3786
       131        2.0000           -0.4543426             -12.3633
       132        2.0000           -0.4533271             -12.3357
       133        2.0000           -0.4490617             -12.2196
       134        2.0000           -0.4382212             -11.9246
       135        2.0000           -0.4282530             -11.6534
       136        2.0000           -0.4252183             -11.5708
       137        2.0000           -0.4166597             -11.3379 (HOMO)
       138                         -0.3008450              -8.1864 (LUMO)
       139                         -0.2937232              -7.9926
       140                         -0.2894356              -7.8759
       141                         -0.2880555              -7.8384
       142                         -0.2864333              -7.7942
       143                         -0.2800958              -7.6218
       144                         -0.2772332              -7.5439
       145                         -0.2724652              -7.4142
       146                         -0.2504945              -6.8163
       147                         -0.2431748              -6.6171
       148                         -0.2373133              -6.4576
       ...                                ...                  ...
       228                          0.6709465              18.2574
      -------------------------------------------------------------
                  HL-Gap            0.1158148 Eh            3.1515 eV

     #   Z          covCN         q      C6AA      Î±(0)
     1   6 C        2.975    -0.037    28.904     8.819
     2   6 C        3.335     0.484    17.329     6.594
     3   9 F        0.791    -0.218    11.420     3.992
     4   9 F        0.792    -0.193    11.162     3.946
     5   9 F        0.791    -0.210    11.338     3.977
     6   6 C        2.923    -0.024    28.595     8.769
     7   6 C        2.920    -0.023    28.571     8.765
     8   6 C        2.918    -0.020    28.509     8.756
     9   6 C        2.926    -0.035    28.865     8.811
    10   6 C        2.971     0.004    27.937     8.670
    11   6 C        3.811     0.038    19.922     6.353
    12   6 C        3.817     0.040    19.888     6.347
    13   6 C        2.964     0.004    27.934     8.669
    14   6 C        2.974    -0.030    28.735     8.793
    15   6 C        3.336     0.487    17.268     6.581
    16   9 F        0.791    -0.210    11.334     3.977
    17   9 F        0.793    -0.198    11.214     3.956
    18   9 F        0.791    -0.211    11.354     3.980
    19   6 C        2.926    -0.023    28.578     8.767
    20   6 C        2.920    -0.020    28.502     8.755
    21   6 C        2.918    -0.017    28.430     8.744
    22   6 C        2.931    -0.029    28.730     8.790
    23   7 N        2.759    -0.115    23.495     7.199
    24   6 C        2.764     0.275    22.342     7.741
    25   6 C        2.977    -0.002    28.080     8.692
    26   6 C        2.924    -0.021    28.524     8.758
    27   6 C        2.920    -0.022    28.552     8.763
    28   6 C        2.978    -0.023    28.579     8.769
    29   6 C        3.336     0.485    17.293     6.585
    30   9 F        0.791    -0.201    11.245     3.961
    31   9 F        0.791    -0.215    11.387     3.986
    32   9 F        0.791    -0.200    11.235     3.959
    33   6 C        2.921    -0.022    28.560     8.764
    34   6 C        2.923    -0.024    28.602     8.770
    35   8 O        0.859    -0.390    21.481     6.214
    36   6 C        3.762     0.097    19.025     6.218
    37   6 C        2.686     0.377    20.616     7.430
    38   8 O        1.659    -0.382    20.507     6.113
    39   8 O        0.856    -0.346    20.624     6.089
    40   7 N        2.761    -0.106    23.314     7.171
    41   6 C        2.767     0.273    22.390     7.749
    42   6 C        2.976    -0.005    28.140     8.701
    43   6 C        2.923    -0.024    28.597     8.770
    44   6 C        2.920    -0.020    28.518     8.757
    45   6 C        2.978    -0.023    28.566     8.767
    46   6 C        3.336     0.486    17.282     6.583
    47   9 F        0.791    -0.198    11.218     3.956
    48   9 F        0.791    -0.203    11.265     3.965
    49   9 F        0.791    -0.214    11.378     3.985
    50   6 C        2.921    -0.023    28.575     8.766
    51   6 C        2.925    -0.019    28.480     8.752
    52   8 O        0.860    -0.401    21.698     6.245
    53   1 H        0.926     0.078     2.003     2.213
    54   1 H        0.926     0.067     2.113     2.273
    55   1 H        0.926     0.064     2.155     2.295
    56   1 H        0.926     0.071     2.072     2.251
    57   1 H        0.924     0.072     2.067     2.248
    58   1 H        0.923     0.057     2.236     2.339
    59   1 H        0.926     0.076     2.018     2.222
    60   1 H        0.926     0.069     2.094     2.263
    61   1 H        0.926     0.072     2.059     2.244
    62   1 H        0.926     0.048     2.348     2.396
    63   1 H        0.926     0.069     2.094     2.263
    64   1 H        0.926     0.070     2.086     2.259
    65   1 H        0.926     0.068     2.112     2.273
    66   1 H        0.926     0.056     2.251     2.346
    67   1 H        0.923     0.087     1.907     2.160
    68   1 H        0.804     0.343     0.604     1.220
    69   1 H        0.926     0.068     2.110     2.272
    70   1 H        0.926     0.078     2.003     2.213
    71   1 H        0.926     0.066     2.131     2.283
    72   1 H        0.926     0.064     2.149     2.292

Wiberg/Mayer (AO) data.
largest (>0.10) Wiberg bond orders for each atom

     #   Z sym  total        # sym  WBO       # sym  WBO       # sym  WBO
 ---------------------------------------------------------------------------
     1   6 C    3.969 --     6 C    1.411    10 C    1.387     2 C    0.949
                             8 C    0.103
     2   6 C    3.823 --     4 F    0.963     1 C    0.949     5 F    0.940
                             3 F    0.933
     3   9 F    1.061 --     2 C    0.933
     4   9 F    1.087 --     2 C    0.963
     5   9 F    1.071 --     2 C    0.940
     6   6 C    3.985 --     7 C    1.444     1 C    1.411    53 H    0.964
                             9 C    0.109
     7   6 C    3.987 --     6 C    1.444     8 C    1.431    54 H    0.967
                            10 C    0.109
     8   6 C    3.989 --     9 C    1.449     7 C    1.431    55 H    0.968
                             1 C    0.103
     9   6 C    3.987 --     8 C    1.449    10 C    1.406    56 H    0.961
                             6 C    0.109
    10   6 C    3.986 --     9 C    1.406     1 C    1.387    11 C    0.992
                             7 C    0.109
    11   6 C    3.971 --    10 C    0.992    40 N    0.969    57 H    0.952
                            12 C    0.946
    12   6 C    3.972 --    13 C    0.990    23 N    0.970    58 H    0.949
                            11 C    0.946
    13   6 C    3.986 --    22 C    1.408    14 C    1.386    12 C    0.990
                            20 C    0.109
    14   6 C    3.971 --    19 C    1.412    13 C    1.386    15 C    0.949
                            21 C    0.105
    15   6 C    3.824 --    17 F    0.957    14 C    0.949    18 F    0.941
                            16 F    0.940
    16   9 F    1.071 --    15 C    0.940
    17   9 F    1.080 --    15 C    0.957
    18   9 F    1.070 --    15 C    0.941
    19   6 C    3.986 --    20 C    1.444    14 C    1.412    59 H    0.964
                            22 C    0.107
    20   6 C    3.987 --    19 C    1.444    21 C    1.432    60 H    0.967
                            13 C    0.109
    21   6 C    3.987 --    22 C    1.448    20 C    1.432    61 H    0.966
                            14 C    0.105
    22   6 C    3.989 --    21 C    1.448    13 C    1.408    62 H    0.965
                            19 C    0.107
    23   7 N    3.457 --    24 C    1.202    36 C    0.974    12 C    0.970
                            35 O    0.195
    24   6 C    3.949 --    35 O    1.715    23 N    1.202    25 C    0.950
    25   6 C    3.988 --    34 C    1.408    26 C    1.407    24 C    0.950
                            28 C    0.106
    26   6 C    3.988 --    27 C    1.444    25 C    1.407    63 H    0.966
                            33 C    0.111
    27   6 C    3.988 --    26 C    1.444    28 C    1.413    64 H    0.965
                            34 C    0.109
    28   6 C    3.975 --    27 C    1.413    33 C    1.411    29 C    0.951
                            25 C    0.106
    29   6 C    3.828 --    32 F    0.956    30 F    0.953    28 C    0.951
                            31 F    0.931
    30   9 F    1.078 --    29 C    0.953
    31   9 F    1.062 --    29 C    0.931
    32   9 F    1.080 --    29 C    0.956
    33   6 C    3.988 --    34 C    1.445    28 C    1.411    65 H    0.966
                            26 C    0.111
    34   6 C    3.990 --    33 C    1.445    25 C    1.408    66 H    0.967
                            27 C    0.109
    35   8 O    2.065 --    24 C    1.715    23 N    0.195
    36   6 C    3.951 --    40 N    0.976    23 N    0.974    67 H    0.940
                            37 C    0.906
    37   6 C    3.929 --    39 O    1.816    38 O    1.117    36 C    0.906
    38   8 O    2.182 --    37 C    1.117    68 H    0.858    39 O    0.172
    39   8 O    2.105 --    37 C    1.816    38 O    0.172
    40   7 N    3.467 --    41 C    1.212    36 C    0.976    11 C    0.969
                            52 O    0.192
    41   6 C    3.948 --    52 O    1.685    40 N    1.212    42 C    0.966
    42   6 C    3.988 --    43 C    1.409    51 C    1.395    41 C    0.966
                            45 C    0.104
    43   6 C    3.989 --    44 C    1.438    42 C    1.409    69 H    0.966
                            50 C    0.110
    44   6 C    3.987 --    43 C    1.438    45 C    1.420    70 H    0.964
                            51 C    0.110
    45   6 C    3.976 --    44 C    1.420    50 C    1.403    46 C    0.951
                            42 C    0.104
    46   6 C    3.828 --    47 F    0.958    45 C    0.951    48 F    0.949
                            49 F    0.933
    47   9 F    1.082 --    46 C    0.958
    48   9 F    1.075 --    46 C    0.949
    49   9 F    1.062 --    46 C    0.933
    50   6 C    3.988 --    51 C    1.455    45 C    1.403    71 H    0.966
                            43 C    0.110
    51   6 C    3.988 --    50 C    1.455    42 C    1.395    72 H    0.966
                            44 C    0.110
    52   8 O    2.060 --    41 C    1.685    40 N    0.192
    53   1 H    0.993 --     6 C    0.964
    54   1 H    0.995 --     7 C    0.967
    55   1 H    0.995 --     8 C    0.968
    56   1 H    0.995 --     9 C    0.961
    57   1 H    0.994 --    11 C    0.952
    58   1 H    0.996 --    12 C    0.949
    59   1 H    0.994 --    19 C    0.964
    60   1 H    0.994 --    20 C    0.967
    61   1 H    0.994 --    21 C    0.966
    62   1 H    0.997 --    22 C    0.965
    63   1 H    0.995 --    26 C    0.966
    64   1 H    0.995 --    27 C    0.965
    65   1 H    0.995 --    33 C    0.966
    66   1 H    0.997 --    34 C    0.967
    67   1 H    0.991 --    36 C    0.940
    68   1 H    0.882 --    38 O    0.858
    69   1 H    0.995 --    43 C    0.966
    70   1 H    0.993 --    44 C    0.964
    71   1 H    0.995 --    50 C    0.966
    72   1 H    0.995 --    51 C    0.966
 ---------------------------------------------------------------------------

molecular dipole:
                 x           y           z       tot (Debye)
 q only:       -0.070       0.243       2.549
   full:       -0.008       0.101       2.728       6.940

           -------------------------------------------------
          | TOTAL ENERGY             -162.011260134080 Eh   |
          | GRADIENT NORM               0.000482265164 Eh/Î± |
          | HOMO-LUMO GAP               3.151479883135 eV   |
           -------------------------------------------------

 * finished run on 2022/03/17 at 00:24:11.092
