   * xtb version 6.3.3 (4ae9cef) compiled by 'conda@95abc7406d43' on 2020-10-14
          program call               : xtb acid_345.xyz --opt --chrg 0 --uhf 0 --gfn 2
          number of atoms            :                    68
          number of electrons        :                   206
          charge                     :                     0
          spin                       :                   0.0

   ID    Z sym.   atoms
    1    6 C      1, 3-16, 18, 20-22, 24-26, 28, 29, 33-35, 37-39
    2    8 O      2, 17, 23, 27, 30, 31, 36, 40
    3    7 N      19, 32
    4    1 H      41-68

          :  Hamiltonian                  GFN2-xTB          :
 * total energy  :  -116.8960792 Eh     change       -0.2503583E-08 Eh
 * total energy  :  -116.9132419 Eh     change       -0.1716271E-01 Eh
 * total energy  :  -116.9179072 Eh     change       -0.4665283E-02 Eh
 * total energy  :  -116.9200155 Eh     change       -0.2108244E-02 Eh
 * total energy  :  -116.9210772 Eh     change       -0.1061725E-02 Eh
 * total energy  :  -116.9218833 Eh     change       -0.8061359E-03 Eh
 * total energy  :  -116.9224368 Eh     change       -0.5535243E-03 Eh
 * total energy  :  -116.9230156 Eh     change       -0.5787119E-03 Eh
 * total energy  :  -116.9235710 Eh     change       -0.5554540E-03 Eh
 * total energy  :  -116.9240098 Eh     change       -0.4387807E-03 Eh
 * total energy  :  -116.9377063 Eh     change       -0.2393766E-04 Eh
 * total energy  :  -116.9377228 Eh     change       -0.1650729E-04 Eh
 * total energy  :  -116.9377360 Eh     change       -0.1322724E-04 Eh
 * total energy  :  -116.9377498 Eh     change       -0.1373881E-04 Eh
 * total energy  :  -116.9377607 Eh     change       -0.1096961E-04 Eh
 * total energy  :  -116.9377593 Eh     change        0.1422914E-05 Eh
 * total energy  :  -116.9377690 Eh     change       -0.9687510E-05 Eh
 * total energy  :  -116.9377751 Eh     change       -0.6068837E-05 Eh
 * total energy  :  -116.9377795 Eh     change       -0.4449968E-05 Eh
   *** GEOMETRY OPTIMIZATION CONVERGED AFTER 70 ITERATIONS ***

 final structure:
================
68
 xtb: 6.3.3 (4ae9cef)
C        -3.34068747112434    1.23527679647555    0.91709872326904
O        -2.54599929829146    1.70283618816960    1.92203663957023
C        -3.00662759310844    2.79320580328480    2.68336265773193
C        -4.66599102347421    1.59646177770296    0.72979333565233
C        -5.39378486808257    1.04538722673994   -0.31213684728564
C        -4.80838405071082    0.13658201612810   -1.16945108997920
C        -3.47981206794977   -0.21955120075920   -0.99493804430677
C        -2.73600931126659    0.32152444219715    0.03585961068103
C        -1.30211867242906   -0.02753041870822    0.30992877569156
C        -0.66919446189984   -1.19966807094073   -0.44979636847389
C        -1.02398919324077   -2.54817753387593    0.11174191426137
C        -0.62302345286284   -2.89965004887861    1.38950111334881
C        -0.92373120829424   -4.14278440918413    1.91635877324112
C        -1.63116745323162   -5.04882657161243    1.15016580764687
C        -2.03483380089743   -4.72015756674461   -0.13198134797891
C        -1.73642440259005   -3.47199483229174   -0.66539976846426
O        -2.10076028886744   -3.06813927022898   -1.91445273090590
C        -2.68750208382669   -4.00738380841848   -2.78364010385782
N         0.75739806284080   -0.90981183903813   -0.27570920008915
C         1.70379802516330   -1.79338573740911   -0.70957673713757
C         3.09699478726396   -1.42065028077810   -0.39026951905880
C         3.64558847653454   -1.15857264322958    0.83275781354820
O         4.95669101990928   -0.91366894431362    0.71850809811260
C         5.27799208947001   -1.00581149880278   -0.58944283473230
C         6.68216640641461   -0.74094994926753   -0.99494146415897
C         4.17435197144325   -1.33318779998127   -1.31656888414962
O         1.39988081679856   -2.80831990194527   -1.29907796043683
C         0.98191701013804    0.47070125590747    0.13500862559738
C         1.96103257843935    1.14693172906031   -0.85474745725549
O         1.53727010318608    1.13113880022310   -2.11774084490010
O         3.02211594739141    1.59687629828426   -0.53902675310573
N        -0.34051014148426    1.04930556201097    0.05505181158567
C        -0.61639350558673    2.34317308528572   -0.28549556977588
C         0.51790446903720    3.26636030820690   -0.07113447573307
C         0.97942620837486    4.21928892365868   -0.93568689396507
O         1.98434664402305    4.90681572285292   -0.38541822442065
C         2.17643802987574    4.42825407220069    0.86267732854472
C         3.25823013873948    5.02014068508521    1.69028906983564
C         1.29794501178595    3.41926418723275    1.11271983376775
O        -1.68701005944442    2.70942864489191   -0.72072444984790
H        -2.17534280870727    3.07525017518887    3.32850386435279
H        -3.26890939922177    3.63834083944419    2.04063512836456
H        -3.86653323799038    2.51929006972845    3.30357467509343
H        -5.14153894433900    2.30720677424528    1.38659726110061
H        -6.42525736017201    1.33536973066180   -0.44699030005248
H        -5.37690477753707   -0.29285926740189   -1.97998051121286
H        -3.03344366243091   -0.93153753080983   -1.66911733572299
H        -1.23013004677669   -0.24685183797209    1.38793370226007
H        -0.92152034731271   -1.17923056374944   -1.51595986175289
H        -0.04965181547544   -2.19424686817095    1.97387695643470
H        -0.60098193170677   -4.40284953348423    2.91261806809281
H        -1.86881309149528   -6.02528285860171    1.54508469305544
H        -2.57721206914220   -5.44920154243471   -0.71244110110083
H        -2.03798475243242   -4.87488884137215   -2.92991624125549
H        -3.66636390483841   -4.33533745064781   -2.41894596312092
H        -2.81462459127416   -3.48890385129368   -3.73312705757908
H         3.22835932194605   -1.15515309185782    1.82013409915713
H         7.37010204769208   -1.30243766497588   -0.36557727628194
H         6.82467168230212   -1.02666414148642   -2.03220532845488
H         6.90969863515120    0.31874944781111   -0.88500379760540
H         4.10961458012195   -1.47927041529757   -2.37436422816976
H         1.40901579391225    0.52227875724587    1.14975081240616
H         0.65403439051267    0.74214470722606   -2.21325931528695
H         0.69290984477346    4.46004528623928   -1.93959339268593
H         3.14718460962018    4.70721595690753    2.72364494187479
H         3.22656570306367    6.10581645579663    1.63259543993972
H         4.22853235791213    4.68809884663694    1.32387064151118
H         1.19698738573247    2.86417521322421    2.02216406453814

          :  Hamiltonian                  GFN2-xTB          :
         :: total energy            -116.937779532764 Eh    ::
         :: gradient norm              0.000868493757 Eh/a0 ::
         :: HOMO-LUMO gap              3.081048817743 eV    ::
         :: SCC energy              -118.480295402998 Eh    ::
         :: -> dispersion             -0.091565337447 Eh    ::
         :: repulsion energy           1.540040701802 Eh    ::

    * Orbital Energies and Occupations

         #    Occupation            Energy/Eh            Energy/eV
      -------------------------------------------------------------
         1        2.0000           -0.7649835             -20.8163
       ...           ...                  ...                  ...
        91        2.0000           -0.4280922             -11.6490
        92        2.0000           -0.4240644             -11.5394
        93        2.0000           -0.4214658             -11.4687
        94        2.0000           -0.4135983             -11.2546
        95        2.0000           -0.4124981             -11.2246
        96        2.0000           -0.4026322             -10.9562
        97        2.0000           -0.4004875             -10.8978
        98        2.0000           -0.3970610             -10.8046
        99        2.0000           -0.3951608             -10.7529
       100        2.0000           -0.3895675             -10.6007
       101        2.0000           -0.3846958             -10.4681
       102        2.0000           -0.3811651             -10.3720
       103        2.0000           -0.3752946             -10.2123 (HOMO)
       104                         -0.2620681              -7.1312 (LUMO)
       105                         -0.2419067              -6.5826
       106                         -0.2345063              -6.3812
       107                         -0.2284444              -6.2163
       108                         -0.2250309              -6.1234
       109                         -0.2174005              -5.9158
       110                         -0.2130668              -5.7978
       111                         -0.2048973              -5.5755
       112                         -0.2010040              -5.4696
       113                         -0.1518391              -4.1318
       114                         -0.1474039              -4.0111
       ...                                ...                  ...
       188                          0.6947668              18.9056
      -------------------------------------------------------------
                  HL-Gap            0.1132265 Eh            3.0810 eV

     #   Z          covCN         q      C6AA      Î±(0)
     1   6 C        2.873     0.151    24.723     8.151
     2   8 O        1.705    -0.276    18.580     5.820
     3   6 C        3.645     0.040    20.231     6.465
     4   6 C        2.917    -0.061    29.523     8.910
     5   6 C        2.921    -0.029    28.727     8.789
     6   6 C        2.919    -0.039    28.973     8.827
     7   6 C        2.922    -0.038    28.938     8.822
     8   6 C        2.970    -0.008    28.222     8.714
     9   6 C        3.846     0.047    19.757     6.323
    10   6 C        3.825     0.045    19.800     6.332
    11   6 C        2.973    -0.010    28.251     8.719
    12   6 C        2.925    -0.033    28.821     8.804
    13   6 C        2.917    -0.040    28.990     8.829
    14   6 C        2.921    -0.030    28.747     8.792
    15   6 C        2.918    -0.063    29.569     8.917
    16   6 C        2.868     0.147    24.798     8.163
    17   8 O        1.705    -0.269    18.454     5.800
    18   6 C        3.644     0.037    20.289     6.475
    19   7 N        2.775    -0.144    24.108     7.292
    20   6 C        2.756     0.272    22.405     7.751
    21   6 C        3.067    -0.056    29.320     8.879
    22   6 C        3.061     0.066    26.470     8.437
    23   8 O        1.732    -0.172    16.892     5.549
    24   6 C        3.102     0.121    25.216     8.229
    25   6 C        3.753    -0.119    22.833     6.814
    26   6 C        3.020    -0.068    29.660     8.933
    27   8 O        0.859    -0.416    22.008     6.290
    28   6 C        3.764     0.073    19.400     6.278
    29   6 C        2.687     0.352    21.021     7.503
    30   8 O        1.659    -0.352    19.945     6.029
    31   8 O        0.856    -0.358    20.863     6.124
    32   7 N        2.771    -0.130    23.808     7.247
    33   6 C        2.752     0.275    22.345     7.740
    34   6 C        3.069    -0.060    29.420     8.894
    35   6 C        3.060     0.079    26.181     8.391
    36   8 O        1.732    -0.168    16.838     5.541
    37   6 C        3.101     0.123    25.187     8.224
    38   6 C        3.753    -0.119    22.845     6.816
    39   6 C        3.018    -0.077    29.909     8.971
    40   8 O        0.858    -0.420    22.090     6.301
    41   1 H        0.925     0.058     2.228     2.334
    42   1 H        0.924     0.049     2.332     2.388
    43   1 H        0.924     0.039     2.460     2.453
    44   1 H        0.926     0.040     2.447     2.446
    45   1 H        0.926     0.038     2.470     2.458
    46   1 H        0.926     0.038     2.482     2.464
    47   1 H        0.926     0.054     2.275     2.359
    48   1 H        0.923     0.061     2.185     2.312
    49   1 H        0.924     0.061     2.183     2.310
    50   1 H        0.926     0.032     2.559     2.501
    51   1 H        0.926     0.038     2.476     2.461
    52   1 H        0.926     0.040     2.452     2.449
    53   1 H        0.926     0.042     2.418     2.432
    54   1 H        0.924     0.049     2.339     2.392
    55   1 H        0.924     0.041     2.438     2.442
    56   1 H        0.925     0.063     2.167     2.302
    57   1 H        0.926     0.045     2.383     2.414
    58   1 H        0.925     0.065     2.145     2.290
    59   1 H        0.925     0.060     2.194     2.316
    60   1 H        0.925     0.069     2.095     2.264
    61   1 H        0.927     0.049     2.330     2.387
    62   1 H        0.923     0.059     2.207     2.323
    63   1 H        0.804     0.339     0.614     1.231
    64   1 H        0.926     0.063     2.167     2.302
    65   1 H        0.925     0.059     2.211     2.325
    66   1 H        0.925     0.066     2.128     2.281
    67   1 H        0.925     0.073     2.057     2.243
    68   1 H        0.927     0.037     2.487     2.466

Wiberg/Mayer (AO) data.
largest (>0.10) Wiberg bond orders for each atom

     #   Z sym  total        # sym  WBO       # sym  WBO       # sym  WBO
 ---------------------------------------------------------------------------
     1   6 C    3.935 --     4 C    1.392     8 C    1.312     2 O    1.060
     2   8 O    2.225 --     1 C    1.060     3 C    0.982
     3   6 C    3.945 --     2 O    0.982    41 H    0.980    42 H    0.977
                            43 H    0.976
     4   6 C    3.987 --     5 C    1.427     1 C    1.392    44 H    0.966
                             7 C    0.100
     5   6 C    3.991 --     6 C    1.452     4 C    1.427    45 H    0.971
                             8 C    0.106
     6   6 C    3.991 --     5 C    1.452     7 C    1.415    46 H    0.971
     7   6 C    3.988 --     8 C    1.448     6 C    1.415    47 H    0.960
                             4 C    0.100
     8   6 C    3.980 --     7 C    1.448     1 C    1.312     9 C    0.998
                             5 C    0.106
     9   6 C    3.962 --     8 C    0.998    10 C    0.965    32 N    0.943
                            48 H    0.941
    10   6 C    3.963 --    11 C    0.994     9 C    0.965    49 H    0.949
                            19 N    0.947
    11   6 C    3.982 --    12 C    1.434    16 C    1.326    10 C    0.994
                            14 C    0.106
    12   6 C    3.991 --    11 C    1.434    13 C    1.429    50 H    0.967
                            15 C    0.102
    13   6 C    3.991 --    14 C    1.440    12 C    1.429    51 H    0.971
    14   6 C    3.990 --    13 C    1.440    15 C    1.438    52 H    0.971
                            11 C    0.106
    15   6 C    3.987 --    14 C    1.438    16 C    1.379    53 H    0.965
                            12 C    0.102
    16   6 C    3.936 --    15 C    1.379    11 C    1.326    17 O    1.062
    17   8 O    2.237 --    16 C    1.062    18 C    0.981
    18   6 C    3.943 --    17 O    0.981    56 H    0.979    54 H    0.977
                            55 H    0.976
    19   7 N    3.433 --    20 C    1.186    28 C    0.970    10 C    0.947
                            27 O    0.186
    20   6 C    3.948 --    27 O    1.694    19 N    1.186    21 C    0.988
    21   6 C    3.978 --    22 C    1.554    26 C    1.249    20 C    0.988
    22   6 C    3.911 --    21 C    1.554    23 O    1.146    57 H    0.966
                            24 C    0.136
    23   8 O    2.454 --    22 C    1.146    24 C    1.116
    24   6 C    3.911 --    26 C    1.586    23 O    1.116    25 C    1.030
                            22 C    0.136
    25   6 C    3.992 --    24 C    1.030    59 H    0.983    58 H    0.972
                            60 H    0.965
    26   6 C    3.979 --    24 C    1.586    21 C    1.249    61 H    0.974
    27   8 O    2.026 --    20 C    1.694    19 N    0.186
    28   6 C    3.967 --    32 N    0.988    19 N    0.970    62 H    0.945
                            29 C    0.910
    29   6 C    3.925 --    31 O    1.792    30 O    1.150    28 C    0.910
    30   8 O    2.229 --    29 C    1.150    63 H    0.858    31 O    0.169
    31   8 O    2.082 --    29 C    1.792    30 O    0.169
    32   7 N    3.437 --    33 C    1.183    28 C    0.988     9 C    0.943
                            40 O    0.182
    33   6 C    3.948 --    40 O    1.690    32 N    1.183    34 C    0.990
    34   6 C    3.976 --    35 C    1.548    39 C    1.238    33 C    0.990
    35   6 C    3.914 --    34 C    1.548    36 O    1.156    64 H    0.965
                            37 C    0.129
    36   8 O    2.459 --    35 C    1.156    37 C    1.114
    37   6 C    3.912 --    39 C    1.591    36 O    1.114    38 C    1.030
                            35 C    0.129
    38   6 C    3.992 --    37 C    1.030    65 H    0.983    66 H    0.973
                            67 H    0.964
    39   6 C    3.978 --    37 C    1.591    34 C    1.238    68 H    0.974
    40   8 O    2.025 --    33 C    1.690    32 N    0.182
    41   1 H    0.996 --     3 C    0.980
    42   1 H    0.998 --     3 C    0.977
    43   1 H    0.998 --     3 C    0.976
    44   1 H    0.998 --     4 C    0.966
    45   1 H    0.998 --     5 C    0.971
    46   1 H    0.998 --     6 C    0.971
    47   1 H    0.996 --     7 C    0.960
    48   1 H    0.995 --     9 C    0.941
    49   1 H    0.996 --    10 C    0.949
    50   1 H    0.998 --    12 C    0.967
    51   1 H    0.998 --    13 C    0.971
    52   1 H    0.998 --    14 C    0.971
    53   1 H    0.998 --    15 C    0.965
    54   1 H    0.998 --    18 C    0.977
    55   1 H    0.998 --    18 C    0.976
    56   1 H    0.996 --    18 C    0.979
    57   1 H    0.998 --    22 C    0.966
    58   1 H    0.995 --    25 C    0.972
    59   1 H    0.996 --    25 C    0.983
    60   1 H    0.995 --    25 C    0.965
    61   1 H    0.998 --    26 C    0.974
    62   1 H    0.996 --    28 C    0.945
    63   1 H    0.885 --    30 O    0.858
    64   1 H    0.996 --    35 C    0.965
    65   1 H    0.996 --    38 C    0.983
    66   1 H    0.995 --    38 C    0.973
    67   1 H    0.994 --    38 C    0.964
    68   1 H    0.999 --    39 C    0.974
 ---------------------------------------------------------------------------

molecular dipole:
                 x           y           z       tot (Debye)
 q only:       -0.413      -0.090       0.920
   full:       -0.605      -0.113       1.134       3.278

           -------------------------------------------------
          | TOTAL ENERGY             -116.937779532764 Eh   |
          | GRADIENT NORM               0.000868493757 Eh/Î± |
          | HOMO-LUMO GAP               3.081048817743 eV   |
           -------------------------------------------------

 * finished run on 2022/03/17 at 00:05:49.195
