   * xtb version 6.3.3 (4ae9cef) compiled by 'conda@95abc7406d43' on 2020-10-14
          program call               : xtb acid_127.xyz --opt --chrg 0 --uhf 0 --gfn 2
          number of atoms            :                    66
          number of electrons        :                   218
          charge                     :                     0
          spin                       :                   0.0

   ID    Z sym.   atoms
    1    6 C      1-22, 24-26, 28, 29, 32, 33, 37-39, 41, 42
    2    7 N      23, 36
    3   16 S      27, 40
    4   35 Br     30, 43
    5    8 O      31, 34, 35, 44
    6    1 H      45-66

          :  Hamiltonian                  GFN2-xTB          :
 * total energy  :  -120.8124831 Eh     change       -0.1401744E-08 Eh
 * total energy  :  -120.8281370 Eh     change       -0.1565384E-01 Eh
 * total energy  :  -120.8333916 Eh     change       -0.5254645E-02 Eh
 * total energy  :  -120.8348006 Eh     change       -0.1409010E-02 Eh
 * total energy  :  -120.8354779 Eh     change       -0.6773212E-03 Eh
 * total energy  :  -120.8358056 Eh     change       -0.3277190E-03 Eh
 * total energy  :  -120.8361879 Eh     change       -0.3822475E-03 Eh
 * total energy  :  -120.8365961 Eh     change       -0.4081658E-03 Eh
 * total energy  :  -120.8370668 Eh     change       -0.4707762E-03 Eh
 * total energy  :  -120.8374572 Eh     change       -0.3903630E-03 Eh
 * total energy  :  -120.8399451 Eh     change       -0.1450887E-04 Eh
 * total energy  :  -120.8399583 Eh     change       -0.1328619E-04 Eh
 * total energy  :  -120.8399704 Eh     change       -0.1205877E-04 Eh
 * total energy  :  -120.8399807 Eh     change       -0.1027068E-04 Eh
 * total energy  :  -120.8399895 Eh     change       -0.8871140E-05 Eh
 * total energy  :  -120.8399976 Eh     change       -0.8066775E-05 Eh
 * total energy  :  -120.8400046 Eh     change       -0.6968110E-05 Eh
 * total energy  :  -120.8400104 Eh     change       -0.5857286E-05 Eh
 * total energy  :  -120.8400126 Eh     change       -0.2114490E-05 Eh
   *** GEOMETRY OPTIMIZATION CONVERGED AFTER 68 ITERATIONS ***

 final structure:
================
66
 xtb: 6.3.3 (4ae9cef)
C        -2.57872934675231   -0.08142776486045    0.93148455016455
C        -3.85560092124203    0.08105605865149    1.38268860952348
C        -4.66098780276906    1.13379818650412    0.90050858361668
C        -5.98558711140166    1.32962475742477    1.34222254870848
C        -6.74128821006141    2.35558259119636    0.84779578240415
C        -6.20753176137376    3.23165683165118   -0.11060530632940
C        -4.92610360112352    3.06957529867777   -0.55703949335206
C        -4.11999663677480    2.02142233143606   -0.06612905733256
C        -2.79639624761438    1.82695428713932   -0.51001331109337
C        -2.03452471631243    0.79939029068769   -0.02375190862032
C        -0.61949788065351    0.58798265749072   -0.49662573314802
C         0.41795946105918    0.68019149938529    0.65097640036022
C         1.62067653732789    1.52651239437257    0.31082837351675
C         2.89525012774725    1.08882572443482    0.55467112343791
C         4.01564786058540    1.87933672959258    0.22717820837288
C         5.33443890437013    1.43524824508798    0.45661680850842
C         6.40221921594979    2.22180065454629    0.12596846192297
C         6.20052158343325    3.48638829297707   -0.44892094245177
C         4.93398158969878    3.94505848315782   -0.68177407986607
C         3.81200555622848    3.15832502599383   -0.35077572208391
C         2.48893688369852    3.60229499412194   -0.55639666294809
C         1.42426122583375    2.81212782448180   -0.23285376814038
N         0.77393263375450   -0.71163309706440    0.89910550482788
C         0.64565224209215   -1.23210332395335    2.15701317812183
C         0.69779122742317   -2.71422253790399    2.26431517170123
C         1.66613012058481   -3.53512081933751    1.76812497098123
S         1.40711681760279   -5.18318665302094    2.17482672281921
C        -0.03019576379148   -4.78803993183066    3.02416526989183
C        -0.27402398197796   -3.45217776475648    3.00051890991161
Br       -1.78438909474813   -2.67443981975747    3.80888134669148
O         0.51046753636297   -0.52296580647471    3.12727695961769
C         0.65637345567010   -1.42288429486137   -0.34156179601868
C         1.92990403193294   -1.26977946369657   -1.20405098242316
O         2.98744964487233   -1.84522899335167   -0.63507232585149
O         1.95381622819905   -0.73680142733591   -2.27486545062054
N        -0.45201068761636   -0.77601752061043   -0.99734448321725
C        -1.01127796866045   -1.14325556414719   -2.17723432026520
C        -0.70046373000158   -2.54358694950234   -2.60053197148950
C        -0.07425669143444   -2.85147443312575   -3.76726112171884
S         0.07385095112571   -4.54483507946246   -4.01467513352325
C        -0.74093083388577   -4.87059996981201   -2.54017146028733
C        -1.08845571576980   -3.72154720558232   -1.90296305561835
Br       -2.01118876581704   -3.70997810001065   -0.25078033936616
O        -1.73510224775289   -0.41725710878520   -2.81789771707786
H        -1.97942327464536   -0.89674031936480    1.30585045610616
H        -4.26143123682510   -0.60006152584108    2.11614649588396
H        -6.39077390209266    0.65133710937932    2.07941215590382
H        -7.75579482680443    2.50007888448883    1.18975589127271
H        -6.82041277545960    4.03533669448856   -0.49220539231354
H        -4.51167631384255    3.74011630365131   -1.29630217235882
H        -2.39450207402910    2.49794725094081   -1.25580594214252
H        -0.38959649916607    1.28721817675345   -1.30777859732700
H        -0.04532491494620    1.07176489131346    1.56551298511862
H         3.06470810239761    0.12921193498498    1.02210596028897
H         5.48453648044038    0.46286996414650    0.90524631557291
H         7.40990413540067    1.87703254032856    0.30648847903946
H         7.05639946932645    4.09369985993584   -0.70399556355034
H         4.77338903297773    4.91847606118645   -1.12251472661046
H         2.33069966524787    4.58698471598072   -0.97167342302333
H         0.41717125666305    3.17459427300643   -0.37538890675442
H         2.53419641691705   -3.25604720215073    1.20496984317602
H        -0.61581081069641   -5.55294089565896    3.49191411654762
H         0.49618013650344   -2.49313041088357   -0.16825701574145
H         3.78354248300631   -1.71142075784379   -1.17721205440826
H         0.31988892323792   -2.16311348940693   -4.48707153510251
H        -0.92571559163538   -5.87780258922291   -2.22506871185101

          :  Hamiltonian                  GFN2-xTB          :
         :: total energy            -120.840012551680 Eh    ::
         :: gradient norm              0.000422487697 Eh/a0 ::
         :: HOMO-LUMO gap              2.533542864304 eV    ::
         :: SCC energy              -122.558688462902 Eh    ::
         :: -> dispersion             -0.111262510028 Eh    ::
         :: repulsion energy           1.715598542026 Eh    ::

    * Orbital Energies and Occupations

         #    Occupation            Energy/Eh            Energy/eV
      -------------------------------------------------------------
         1        2.0000           -0.8554718             -23.2786
       ...           ...                  ...                  ...
        97        2.0000           -0.4227857             -11.5046
        98        2.0000           -0.4221389             -11.4870
        99        2.0000           -0.4161958             -11.3253
       100        2.0000           -0.4138096             -11.2603
       101        2.0000           -0.4131064             -11.2412
       102        2.0000           -0.4129717             -11.2375
       103        2.0000           -0.4104475             -11.1688
       104        2.0000           -0.4088222             -11.1246
       105        2.0000           -0.4071090             -11.0780
       106        2.0000           -0.4013333             -10.9208
       107        2.0000           -0.3954358             -10.7604
       108        2.0000           -0.3901169             -10.6156
       109        2.0000           -0.3757816             -10.2255 (HOMO)
       110                         -0.2826756              -7.6920 (LUMO)
       111                         -0.2810432              -7.6476
       112                         -0.2809820              -7.6459
       113                         -0.2708338              -7.3698
       114                         -0.2571746              -6.9981
       115                         -0.2493947              -6.7864
       116                         -0.2463330              -6.7031
       117                         -0.2417092              -6.5772
       118                         -0.2406127              -6.5474
       119                         -0.2378632              -6.4726
       120                         -0.2273582              -6.1867
       ...                                ...                  ...
       218                          0.7003715              19.0581
      -------------------------------------------------------------
                  HL-Gap            0.0931060 Eh            2.5335 eV

     #   Z          covCN         q      C6AA      Î±(0)
     1   6 C        2.920    -0.031    28.774     8.796
     2   6 C        2.917    -0.031    28.776     8.797
     3   6 C        2.988     0.015    27.668     8.628
     4   6 C        2.918    -0.033    28.829     8.805
     5   6 C        2.916    -0.029    28.725     8.789
     6   6 C        2.916    -0.029    28.725     8.789
     7   6 C        2.918    -0.033    28.830     8.805
     8   6 C        2.987     0.016    27.636     8.623
     9   6 C        2.922    -0.035    28.876     8.812
    10   6 C        2.970     0.003    27.951     8.672
    11   6 C        3.827     0.042    19.848     6.339
    12   6 C        3.843     0.037    19.930     6.351
    13   6 C        2.967     0.001    28.013     8.681
    14   6 C        2.923    -0.044    29.081     8.844
    15   6 C        2.987     0.014    27.696     8.633
    16   6 C        2.919    -0.037    28.911     8.817
    17   6 C        2.916    -0.029    28.720     8.788
    18   6 C        2.916    -0.029    28.720     8.788
    19   6 C        2.918    -0.033    28.812     8.802
    20   6 C        2.987     0.014    27.690     8.632
    21   6 C        2.917    -0.031    28.781     8.797
    22   6 C        2.920    -0.036    28.898     8.815
    23   7 N        2.767    -0.115    23.514     7.202
    24   6 C        2.760     0.282    22.224     7.720
    25   6 C        3.194    -0.035    28.344     8.681
    26   6 C        2.946    -0.036    28.893     8.816
    27  16 S        2.309     0.034   139.677    19.891
    28   6 C        3.003    -0.033    28.819     8.806
    29   6 C        3.127     0.078    26.079     8.362
    30  35 Br       1.032    -0.125   188.482    22.136
    31   8 O        0.859    -0.393    21.547     6.224
    32   6 C        3.777     0.091    19.097     6.226
    33   6 C        2.688     0.350    21.064     7.511
    34   8 O        1.659    -0.367    20.224     6.071
    35   8 O        0.856    -0.378    21.251     6.181
    36   7 N        2.770    -0.113    23.467     7.195
    37   6 C        2.760     0.284    22.183     7.713
    38   6 C        3.191    -0.039    28.455     8.700
    39   6 C        2.951    -0.020    28.503     8.756
    40  16 S        2.313     0.037   139.569    19.884
    41   6 C        2.998    -0.038    28.922     8.822
    42   6 C        3.133     0.058    26.488     8.425
    43  35 Br       1.024    -0.153   189.270    22.182
    44   8 O        0.859    -0.403    21.748     6.252
    45   1 H        0.926     0.034     2.527     2.486
    46   1 H        0.926     0.045     2.378     2.411
    47   1 H        0.926     0.036     2.509     2.477
    48   1 H        0.926     0.032     2.565     2.504
    49   1 H        0.926     0.031     2.567     2.506
    50   1 H        0.926     0.034     2.534     2.489
    51   1 H        0.926     0.038     2.482     2.464
    52   1 H        0.924     0.066     2.130     2.283
    53   1 H        0.924     0.090     1.882     2.146
    54   1 H        0.926     0.032     2.564     2.504
    55   1 H        0.925     0.029     2.602     2.523
    56   1 H        0.926     0.033     2.547     2.495
    57   1 H        0.926     0.034     2.526     2.486
    58   1 H        0.926     0.036     2.501     2.473
    59   1 H        0.926     0.041     2.434     2.440
    60   1 H        0.926     0.038     2.482     2.464
    61   1 H        0.926     0.068     2.112     2.273
    62   1 H        0.927     0.073     2.050     2.239
    63   1 H        0.924     0.074     2.041     2.234
    64   1 H        0.804     0.347     0.595     1.212
    65   1 H        0.926     0.076     2.025     2.225
    66   1 H        0.926     0.070     2.082     2.256

Wiberg/Mayer (AO) data.
largest (>0.10) Wiberg bond orders for each atom

     #   Z sym  total        # sym  WBO       # sym  WBO       # sym  WBO
 ---------------------------------------------------------------------------
     1   6 C    3.992 --     2 C    1.565    10 C    1.294    45 H    0.965
     2   6 C    3.991 --     1 C    1.565     3 C    1.276    46 H    0.967
                             9 C    0.115
     3   6 C    3.990 --     4 C    1.282     2 C    1.276     8 C    1.252
     4   6 C    3.992 --     5 C    1.556     3 C    1.282    47 H    0.968
                             7 C    0.118
     5   6 C    3.990 --     4 C    1.556     6 C    1.321    48 H    0.971
     6   6 C    3.992 --     7 C    1.557     5 C    1.321    49 H    0.971
     7   6 C    3.990 --     6 C    1.557     8 C    1.279    50 H    0.968
                             4 C    0.118
     8   6 C    3.990 --     9 C    1.280     7 C    1.279     3 C    1.252
     9   6 C    3.989 --    10 C    1.529     8 C    1.280    51 H    0.965
                             2 C    0.115
    10   6 C    3.984 --     9 C    1.529     1 C    1.294    11 C    0.988
    11   6 C    3.955 --    10 C    0.988    12 C    0.954    52 H    0.952
                            36 N    0.948
    12   6 C    3.954 --    13 C    0.989    23 N    0.961    11 C    0.954
                            53 H    0.939
    13   6 C    3.985 --    14 C    1.528    22 C    1.289    12 C    0.989
    14   6 C    3.990 --    13 C    1.528    15 C    1.278    54 H    0.964
                            21 C    0.113
    15   6 C    3.990 --    16 C    1.280    14 C    1.278    20 C    1.253
    16   6 C    3.990 --    17 C    1.556    15 C    1.280    55 H    0.968
                            19 C    0.118
    17   6 C    3.992 --    16 C    1.556    18 C    1.322    56 H    0.971
    18   6 C    3.990 --    19 C    1.555    17 C    1.322    57 H    0.971
    19   6 C    3.991 --    18 C    1.555    20 C    1.283    58 H    0.968
                            16 C    0.118
    20   6 C    3.990 --    19 C    1.283    21 C    1.274    15 C    1.253
    21   6 C    3.991 --    22 C    1.567    20 C    1.274    59 H    0.967
                            14 C    0.113
    22   6 C    3.991 --    21 C    1.567    13 C    1.289    60 H    0.966
    23   7 N    3.455 --    24 C    1.179    32 C    0.995    12 C    0.961
                            31 O    0.186
    24   6 C    3.950 --    31 O    1.707    23 N    1.179    25 C    0.977
    25   6 C    3.982 --    26 C    1.572    29 C    1.211    24 C    0.977
    26   6 C    3.953 --    25 C    1.572    27 S    1.211    61 H    0.963
                            28 C    0.106
    27  16 S    2.676 --    26 C    1.211    28 C    1.194
    28   6 C    3.948 --    29 C    1.591    27 S    1.194    62 H    0.967
                            26 C    0.106
    29   6 C    3.942 --    28 C    1.591    25 C    1.211    30 Br   1.001
    30  35 Br   1.162 --    29 C    1.001
    31   8 O    2.053 --    24 C    1.707    23 N    0.186
    32   6 C    3.975 --    23 N    0.995    36 N    0.986    63 H    0.927
                            33 C    0.907
    33   6 C    3.918 --    35 O    1.793    34 O    1.146    32 C    0.907
    34   8 O    2.212 --    33 C    1.146    64 H    0.853    35 O    0.179
    35   8 O    2.072 --    33 C    1.793    34 O    0.179
    36   7 N    3.461 --    37 C    1.208    32 C    0.986    11 C    0.948
                            44 O    0.192
    37   6 C    3.953 --    44 O    1.706    36 N    1.208    38 C    0.954
    38   6 C    3.981 --    39 C    1.596    42 C    1.216    37 C    0.954
    39   6 C    3.952 --    38 C    1.596    40 S    1.205    65 H    0.966
                            41 C    0.108
    40  16 S    2.672 --    39 C    1.205    41 C    1.201
    41   6 C    3.949 --    42 C    1.585    40 S    1.201    66 H    0.968
                            39 C    0.108
    42   6 C    3.931 --    41 C    1.585    38 C    1.216    43 Br   0.985
    43  35 Br   1.145 --    42 C    0.985
    44   8 O    2.038 --    37 C    1.706    36 N    0.192
    45   1 H    0.998 --     1 C    0.965
    46   1 H    0.997 --     2 C    0.967
    47   1 H    0.998 --     4 C    0.968
    48   1 H    0.999 --     5 C    0.971
    49   1 H    0.999 --     6 C    0.971
    50   1 H    0.998 --     7 C    0.968
    51   1 H    0.998 --     9 C    0.965
    52   1 H    0.995 --    11 C    0.952
    53   1 H    0.989 --    12 C    0.939
    54   1 H    0.999 --    14 C    0.964
    55   1 H    0.999 --    16 C    0.968
    56   1 H    0.998 --    17 C    0.971
    57   1 H    0.998 --    18 C    0.971
    58   1 H    0.998 --    19 C    0.968
    59   1 H    0.997 --    21 C    0.967
    60   1 H    0.998 --    22 C    0.966
    61   1 H    0.995 --    26 C    0.963
    62   1 H    0.994 --    28 C    0.967
    63   1 H    0.994 --    32 C    0.927
    64   1 H    0.879 --    34 O    0.853
    65   1 H    0.994 --    39 C    0.966
    66   1 H    0.994 --    41 C    0.968
 ---------------------------------------------------------------------------

molecular dipole:
                 x           y           z       tot (Debye)
 q only:        1.859      -0.867      -0.597
   full:        2.305      -0.942      -1.125       6.946

           -------------------------------------------------
          | TOTAL ENERGY             -120.840012551680 Eh   |
          | GRADIENT NORM               0.000422487697 Eh/Î± |
          | HOMO-LUMO GAP               2.533542864304 eV   |
           -------------------------------------------------

 * finished run on 2022/03/16 at 21:37:15.151
