   * xtb version 6.3.3 (4ae9cef) compiled by 'conda@95abc7406d43' on 2020-10-14
          program call               : xtb acid_313.xyz --opt --chrg 0 --uhf 0 --gfn 2
          number of atoms            :                    60
          number of electrons        :                   230
          charge                     :                     0
          spin                       :                   0.0

   ID    Z sym.   atoms
    1    6 C      1, 2, 6-15, 19-22, 24-26, 28, 30, 32, 33, 37-39, 41, 43
    2    9 F      3-5, 16-18
    3    7 N      23, 36
    4    8 O      27, 31, 34, 35, 40, 44
    5   35 Br     29, 42
    6    1 H      45-60

          :  Hamiltonian                  GFN2-xTB          :
 * total energy  :  -134.9584143 Eh     change       -0.2208850E-08 Eh
 * total energy  :  -134.9761351 Eh     change       -0.1772078E-01 Eh
 * total energy  :  -134.9818231 Eh     change       -0.5687990E-02 Eh
 * total energy  :  -134.9832431 Eh     change       -0.1420025E-02 Eh
 * total energy  :  -134.9841556 Eh     change       -0.9124539E-03 Eh
 * total energy  :  -134.9847716 Eh     change       -0.6160148E-03 Eh
 * total energy  :  -134.9853238 Eh     change       -0.5521812E-03 Eh
 * total energy  :  -134.9858487 Eh     change       -0.5249565E-03 Eh
 * total energy  :  -134.9862767 Eh     change       -0.4279049E-03 Eh
 * total energy  :  -134.9865451 Eh     change       -0.2684146E-03 Eh
 * total energy  :  -134.9893067 Eh     change       -0.1882284E-04 Eh
 * total energy  :  -134.9893198 Eh     change       -0.1308216E-04 Eh
 * total energy  :  -134.9893324 Eh     change       -0.1258280E-04 Eh
 * total energy  :  -134.9893398 Eh     change       -0.7399908E-05 Eh
 * total energy  :  -134.9893455 Eh     change       -0.5652652E-05 Eh
 * total energy  :  -134.9893517 Eh     change       -0.6276400E-05 Eh
 * total energy  :  -134.9893560 Eh     change       -0.4253363E-05 Eh
 * total energy  :  -134.9893611 Eh     change       -0.5126470E-05 Eh
 * total energy  :  -134.9893633 Eh     change       -0.2188838E-05 Eh
   *** GEOMETRY OPTIMIZATION CONVERGED AFTER 44 ITERATIONS ***

 final structure:
================
60
 xtb: 6.3.3 (4ae9cef)
C        -3.27270006643516    1.27597502953132    0.57019448659165
C        -3.31549134812987    0.82640884621626    2.00480020147146
F        -4.50186237034030    1.03895041722970    2.58478031989275
F        -2.40728610871841    1.43080168324014    2.78948120091123
F        -3.07909983075660   -0.49986267001937    2.13275912347974
C        -4.41272092988015    1.84800335385931    0.01935760018564
C        -4.42236812655000    2.25075724647558   -1.30221740873352
C        -3.29269767700199    2.07584125870232   -2.08160105612770
C        -2.16020270304803    1.50503639178936   -1.53466997326825
C        -2.12599959136752    1.10405140799962   -0.20429171625317
C        -0.86117330837258    0.47575794464428    0.32425225832214
C        -0.60730726636401   -0.92071840597179   -0.28124644169442
C        -0.97455202674995   -2.02832085228876    0.67506948089196
C        -2.06101016535922   -2.87736354132270    0.46392540037501
C        -2.94483157753495   -2.72248925695194   -0.74174001609490
F        -2.29814364713227   -2.87054187053785   -1.91301487981320
F        -3.95691906990982   -3.59504579967614   -0.76967499805995
F        -3.51848865765547   -1.49633459499118   -0.80451745393784
C        -2.36433395653707   -3.87167564574661    1.38558218086708
C        -1.59290497648899   -4.02683090077741    2.52121754606398
C        -0.52018694417172   -3.18188051239056    2.74369525821996
C        -0.21804908026183   -2.19070801388930    1.82978703637937
N         0.82277812257520   -0.91279353775149   -0.57617001113028
C         1.50706783375564   -2.05897013617433   -0.83658132014813
C         2.96207034624488   -1.84597496780921   -1.07222521748383
C         3.98412893586406   -2.28399424691790   -0.27985747341472
O         5.17167073842471   -1.93155474218015   -0.79892880946147
C         4.91398149949244   -1.28433958935631   -1.94455822981764
Br        6.36664763119878   -0.64443818138288   -2.91476166632609
C         3.57592503420143   -1.19110866975113   -2.17759251249171
O         0.98310521919049   -3.14620252696009   -0.87128787535352
C         1.41107750086748    0.39896247288356   -0.47090517184099
C         2.51007061848766    0.41171396044734    0.61755688183336
O         3.63972951605117    0.95500086843372    0.17293077511894
O         2.35451174921798   -0.00165274223713    1.72985160698602
N         0.30799368217788    1.24661513023795   -0.09115964371123
C         0.37196963147016    2.58604589464977    0.15501607435933
C         1.66297033282238    3.22545706814676   -0.21568502083519
C         2.20286656718698    3.42106022366232   -1.45528997354862
O         3.36531771470287    4.08645245939080   -1.36647997190364
C         3.57507885311953    4.32205459453371   -0.06450982319263
Br        5.14768860988237    5.19963827685364    0.40470106997711
C         2.56477161590130    3.82933905194382    0.70418857550319
O        -0.55375371816932    3.20251438305666    0.62538994742865
H        -5.29249571823372    1.97601393840180    0.63009595066514
H        -5.31096026353263    2.69633160883825   -1.72063016493409
H        -3.29343984577820    2.38186305611703   -3.11658712824189
H        -1.27893554024821    1.37224832039085   -2.14513800679088
H        -0.87045933011291    0.41378285950867    1.41711403681214
H        -1.14663542977413   -1.01936027359884   -1.22877157596807
H        -3.20667642848739   -4.52211453504208    1.20989231306600
H        -1.83357810578508   -4.80336702982299    3.23015780698071
H         0.08316446956344   -3.29076548065371    3.63179786711300
H         0.62272715460137   -1.53737053374810    2.00995229752798
H         3.98355165116353   -2.82261682525795    0.64601739285006
H         3.10163364944452   -0.75015076455445   -3.02920815133398
H         1.86113016956075    0.73266483604898   -1.41792135773440
H         4.32009081956920    0.98188327557549    0.86850817306638
H         1.85690833248305    3.17362167748214   -2.43876531333907
H         2.46463580966602    3.88369731147573    1.76791150005119

          :  Hamiltonian                  GFN2-xTB          :
         :: total energy            -134.989363306778 Eh    ::
         :: gradient norm              0.000327225630 Eh/a0 ::
         :: HOMO-LUMO gap              3.345848250392 eV    ::
         :: SCC energy              -136.374421581821 Eh    ::
         :: -> dispersion             -0.094104172642 Eh    ::
         :: repulsion energy           1.382061159644 Eh    ::

    * Orbital Energies and Occupations

         #    Occupation            Energy/Eh            Energy/eV
      -------------------------------------------------------------
         1        2.0000           -0.8815240             -23.9875
       ...           ...                  ...                  ...
       103        2.0000           -0.4539224             -12.3519
       104        2.0000           -0.4496914             -12.2367
       105        2.0000           -0.4484425             -12.2027
       106        2.0000           -0.4461708             -12.1409
       107        2.0000           -0.4443360             -12.0910
       108        2.0000           -0.4441013             -12.0846
       109        2.0000           -0.4399965             -11.9729
       110        2.0000           -0.4382792             -11.9262
       111        2.0000           -0.4312378             -11.7346
       112        2.0000           -0.4270610             -11.6209
       113        2.0000           -0.4263609             -11.6019
       114        2.0000           -0.4237086             -11.5297
       115        2.0000           -0.4235178             -11.5245 (HOMO)
       116                         -0.3005601              -8.1787 (LUMO)
       117                         -0.2734818              -7.4418
       118                         -0.2716240              -7.3913
       119                         -0.2708510              -7.3702
       120                         -0.2660827              -7.2405
       121                         -0.2617757              -7.1233
       122                         -0.2577496              -7.0137
       123                         -0.2559393              -6.9645
       124                         -0.2533062              -6.8928
       125                         -0.2322247              -6.3192
       126                         -0.2311000              -6.2886
       ...                                ...                  ...
       202                          0.6554089              17.8346
      -------------------------------------------------------------
                  HL-Gap            0.1229577 Eh            3.3458 eV

     #   Z          covCN         q      C6AA      Î±(0)
     1   6 C        2.976    -0.020    28.503     8.757
     2   6 C        3.335     0.486    17.295     6.587
     3   9 F        0.792    -0.198    11.209     3.955
     4   9 F        0.791    -0.203    11.266     3.965
     5   9 F        0.791    -0.222    11.466     4.000
     6   6 C        2.923    -0.017    28.431     8.744
     7   6 C        2.920    -0.019    28.479     8.751
     8   6 C        2.919    -0.016    28.404     8.740
     9   6 C        2.927    -0.024    28.600     8.770
    10   6 C        2.972     0.025    27.452     8.594
    11   6 C        3.823     0.046    19.781     6.329
    12   6 C        3.819     0.045    19.805     6.333
    13   6 C        2.972     0.023    27.481     8.599
    14   6 C        2.976    -0.022    28.560     8.766
    15   6 C        3.335     0.485    17.303     6.589
    16   9 F        0.791    -0.207    11.306     3.972
    17   9 F        0.792    -0.197    11.204     3.954
    18   9 F        0.791    -0.225    11.496     4.005
    19   6 C        2.923    -0.018    28.456     8.748
    20   6 C        2.920    -0.019    28.487     8.752
    21   6 C        2.919    -0.015    28.379     8.736
    22   6 C        2.926    -0.027    28.680     8.782
    23   7 N        2.767    -0.109    23.388     7.183
    24   6 C        2.757     0.275    22.343     7.740
    25   6 C        3.087    -0.049    29.102     8.843
    26   6 C        3.079     0.074    26.275     8.404
    27   8 O        1.765    -0.163    16.747     5.526
    28   6 C        3.088     0.184    23.972     8.026
    29  35 Br       0.992    -0.094   187.584    22.083
    30   6 C        3.045    -0.073    29.783     8.951
    31   8 O        0.859    -0.393    21.535     6.222
    32   6 C        3.749     0.085    19.233     6.255
    33   6 C        2.688     0.348    21.089     7.515
    34   8 O        1.659    -0.371    20.300     6.082
    35   8 O        0.856    -0.371    21.110     6.160
    36   7 N        2.766    -0.115    23.514     7.202
    37   6 C        2.757     0.275    22.350     7.742
    38   6 C        3.087    -0.046    29.044     8.834
    39   6 C        3.080     0.066    26.430     8.428
    40   8 O        1.765    -0.158    16.678     5.515
    41   6 C        3.091     0.183    23.988     8.028
    42  35 Br       0.992    -0.096   187.650    22.087
    43   6 C        3.045    -0.067    29.624     8.927
    44   8 O        0.859    -0.389    21.469     6.212
    45   1 H        0.926     0.073     2.053     2.241
    46   1 H        0.926     0.062     2.173     2.305
    47   1 H        0.926     0.058     2.217     2.329
    48   1 H        0.926     0.045     2.388     2.417
    49   1 H        0.924     0.075     2.029     2.228
    50   1 H        0.924     0.071     2.073     2.252
    51   1 H        0.926     0.070     2.084     2.257
    52   1 H        0.926     0.060     2.194     2.316
    53   1 H        0.926     0.059     2.205     2.322
    54   1 H        0.926     0.067     2.120     2.277
    55   1 H        0.926     0.079     1.993     2.208
    56   1 H        0.927     0.062     2.170     2.304
    57   1 H        0.923     0.069     2.098     2.265
    58   1 H        0.804     0.353     0.582     1.199
    59   1 H        0.926     0.067     2.116     2.275
    60   1 H        0.927     0.072     2.066     2.248

Wiberg/Mayer (AO) data.
largest (>0.10) Wiberg bond orders for each atom

     #   Z sym  total        # sym  WBO       # sym  WBO       # sym  WBO
 ---------------------------------------------------------------------------
     1   6 C    3.972 --     6 C    1.413    10 C    1.388     2 C    0.951
                             8 C    0.105
     2   6 C    3.824 --     3 F    0.958     1 C    0.951     4 F    0.946
                             5 F    0.929
     3   9 F    1.081 --     2 C    0.958
     4   9 F    1.077 --     2 C    0.946
     5   9 F    1.056 --     2 C    0.929
     6   6 C    3.986 --     7 C    1.443     1 C    1.413    45 H    0.965
                             9 C    0.109
     7   6 C    3.988 --     6 C    1.443     8 C    1.433    46 H    0.968
                            10 C    0.109
     8   6 C    3.990 --     9 C    1.448     7 C    1.433    47 H    0.969
                             1 C    0.105
     9   6 C    3.990 --     8 C    1.448    10 C    1.409    48 H    0.967
                             6 C    0.109
    10   6 C    3.986 --     9 C    1.409     1 C    1.388    11 C    0.993
                             7 C    0.109
    11   6 C    3.961 --    10 C    0.993    12 C    0.954    36 N    0.952
                            49 H    0.951
    12   6 C    3.961 --    13 C    0.992    11 C    0.954    23 N    0.952
                            50 H    0.951
    13   6 C    3.986 --    22 C    1.411    14 C    1.386    12 C    0.992
                            20 C    0.108
    14   6 C    3.970 --    19 C    1.413    13 C    1.386    15 C    0.952
                            21 C    0.105
    15   6 C    3.821 --    17 F    0.960    14 C    0.952    16 F    0.943
                            18 F    0.927
    16   9 F    1.073 --    15 C    0.943
    17   9 F    1.083 --    15 C    0.960
    18   9 F    1.053 --    15 C    0.927
    19   6 C    3.987 --    20 C    1.443    14 C    1.413    51 H    0.965
                            22 C    0.109
    20   6 C    3.988 --    19 C    1.443    21 C    1.434    52 H    0.968
                            13 C    0.108
    21   6 C    3.990 --    22 C    1.447    20 C    1.434    53 H    0.969
                            14 C    0.105
    22   6 C    3.988 --    21 C    1.447    13 C    1.411    54 H    0.960
                            19 C    0.109
    23   7 N    3.462 --    24 C    1.200    32 C    0.989    12 C    0.952
                            31 O    0.196
    24   6 C    3.951 --    31 O    1.713    23 N    1.200    25 C    0.963
    25   6 C    3.979 --    26 C    1.570    30 C    1.250    24 C    0.963
    26   6 C    3.903 --    25 C    1.570    27 O    1.130    55 H    0.962
                            28 C    0.132
    27   8 O    2.460 --    26 C    1.130    28 C    1.128
    28   6 C    3.883 --    30 C    1.560    27 O    1.128    29 Br   1.020
                            26 C    0.132
    29  35 Br   1.171 --    28 C    1.020
    30   6 C    3.975 --    28 C    1.560    25 C    1.250    56 H    0.972
    31   8 O    2.051 --    24 C    1.713    23 N    0.196
    32   6 C    3.971 --    23 N    0.989    36 N    0.985    57 H    0.944
                            33 C    0.904
    33   6 C    3.921 --    35 O    1.787    34 O    1.153    32 C    0.904
    34   8 O    2.213 --    33 C    1.153    58 H    0.849    35 O    0.183
    35   8 O    2.079 --    33 C    1.787    34 O    0.183
    36   7 N    3.453 --    37 C    1.190    32 C    0.985    11 C    0.952
                            44 O    0.193
    37   6 C    3.949 --    44 O    1.717    36 N    1.190    38 C    0.967
    38   6 C    3.979 --    39 C    1.567    43 C    1.256    37 C    0.967
    39   6 C    3.902 --    38 C    1.567    40 O    1.130    59 H    0.963
                            41 C    0.135
    40   8 O    2.465 --    41 C    1.131    39 C    1.130
    41   6 C    3.883 --    43 C    1.558    40 O    1.131    42 Br   1.018
                            39 C    0.135
    42  35 Br   1.170 --    41 C    1.018
    43   6 C    3.976 --    41 C    1.558    38 C    1.256    60 H    0.971
    44   8 O    2.055 --    37 C    1.717    36 N    0.193
    45   1 H    0.994 --     6 C    0.965
    46   1 H    0.995 --     7 C    0.968
    47   1 H    0.996 --     8 C    0.969
    48   1 H    0.998 --     9 C    0.967
    49   1 H    0.994 --    11 C    0.951
    50   1 H    0.994 --    12 C    0.951
    51   1 H    0.995 --    19 C    0.965
    52   1 H    0.995 --    20 C    0.968
    53   1 H    0.996 --    21 C    0.969
    54   1 H    0.995 --    22 C    0.960
    55   1 H    0.994 --    26 C    0.962
    56   1 H    0.996 --    30 C    0.972
    57   1 H    0.995 --    32 C    0.944
    58   1 H    0.875 --    34 O    0.849
    59   1 H    0.995 --    39 C    0.963
    60   1 H    0.995 --    43 C    0.971
 ---------------------------------------------------------------------------

molecular dipole:
                 x           y           z       tot (Debye)
 q only:        0.584       0.291      -0.417
   full:        0.293       0.010      -0.431       1.325

           -------------------------------------------------
          | TOTAL ENERGY             -134.989363306778 Eh   |
          | GRADIENT NORM               0.000327225630 Eh/Î± |
          | HOMO-LUMO GAP               3.345848250392 eV   |
           -------------------------------------------------

 * finished run on 2022/03/16 at 23:42:00.550
