   * xtb version 6.3.3 (4ae9cef) compiled by 'conda@95abc7406d43' on 2020-10-14
          program call               : xtb acid_244.xyz --opt --chrg 0 --uhf 0 --gfn 2
          number of atoms            :                    62
          number of electrons        :                   218
          charge                     :                     0
          spin                       :                   0.0

   ID    Z sym.   atoms
    1    6 C      1, 3-16, 18, 20-22, 25, 27, 29, 30, 34-36, 39, 41
    2    8 O      2, 17, 28, 31, 32, 42
    3    7 N      19, 33
    4   17 Cl     23, 26, 37, 40
    5   16 S      24, 38
    6    1 H      43-62

          :  Hamiltonian                  GFN2-xTB          :
 * total energy  :  -125.1184280 Eh     change       -0.9181221E-08 Eh
 * total energy  :  -125.1333945 Eh     change       -0.1496657E-01 Eh
 * total energy  :  -125.1388947 Eh     change       -0.5500137E-02 Eh
 * total energy  :  -125.1403106 Eh     change       -0.1415967E-02 Eh
 * total energy  :  -125.1411210 Eh     change       -0.8103591E-03 Eh
 * total energy  :  -125.1416946 Eh     change       -0.5736418E-03 Eh
 * total energy  :  -125.1422452 Eh     change       -0.5505307E-03 Eh
 * total energy  :  -125.1427313 Eh     change       -0.4861563E-03 Eh
 * total energy  :  -125.1431260 Eh     change       -0.3946370E-03 Eh
 * total energy  :  -125.1433860 Eh     change       -0.2600592E-03 Eh
 * total energy  :  -125.1448335 Eh     change       -0.9285746E-05 Eh
 * total energy  :  -125.1448435 Eh     change       -0.9972614E-05 Eh
 * total energy  :  -125.1448566 Eh     change       -0.1310910E-04 Eh
 * total energy  :  -125.1448724 Eh     change       -0.1586684E-04 Eh
 * total energy  :  -125.1448863 Eh     change       -0.1388778E-04 Eh
 * total energy  :  -125.1448943 Eh     change       -0.7944695E-05 Eh
 * total energy  :  -125.1448993 Eh     change       -0.5012065E-05 Eh
 * total energy  :  -125.1449047 Eh     change       -0.5422506E-05 Eh
 * total energy  :  -125.1449079 Eh     change       -0.3158463E-05 Eh
   *** GEOMETRY OPTIMIZATION CONVERGED AFTER 63 ITERATIONS ***

 final structure:
================
62
 xtb: 6.3.3 (4ae9cef)
C         3.12559600689016    0.87089641768308   -0.50748694758484
O         2.85737628013893    2.01582960854109    0.18349969347176
C         3.87902413078363    2.97526300926151    0.32480924613936
C         4.34152524657892    0.59008511644936   -1.11901675334288
C         4.51833787030148   -0.59718650526666   -1.80886296526674
C         3.48919903190683   -1.51418433798523   -1.90466539848730
C         2.28005458483780   -1.24364242770031   -1.28928806639816
C         2.08620072383414   -0.06742448447563   -0.58395697219344
C         0.76921509868603    0.19797398771724    0.10243904205231
C        -0.40263494186008    0.36392827665068   -0.90140952416995
C        -1.18458713200635    1.63501258809844   -0.63978351245493
C        -0.47482206588346    2.82181020752740   -0.77192946161834
C        -1.06897897716803    4.05157431430972   -0.56517548348453
C        -2.40770798935952    4.10297416186708   -0.22727418631556
C        -3.13603296661534    2.93572313546764   -0.09953023427891
C        -2.54184496660819    1.69209343807286   -0.30054678147418
O        -3.22755373945069    0.51465485537474   -0.18296692508871
C        -4.59785249475088    0.56388482111210    0.13686574588344
N        -1.13983971912218   -0.87767521729381   -0.77289868239772
C        -1.85200760842447   -1.37437512809217   -1.80902198807508
C        -2.53535444310250   -2.68273722441450   -1.55625017462948
C        -1.91848609112454   -3.89013773638985   -1.40958858666358
Cl       -0.23711191599436   -4.19690203109606   -1.41409766472787
S        -3.04440166480399   -5.20071252282895   -1.22145454757666
C        -4.36549333448409   -4.08303945700203   -1.36917173501335
Cl       -5.97833819994667   -4.62634979187053   -1.27908885020862
C        -3.94772380868231   -2.80385674963818   -1.55131877113457
O        -1.93840804035351   -0.80284401502969   -2.87253384171575
C        -0.94002017662325   -1.43678115175564    0.53203631641513
C        -1.97644383737026   -0.95462395342926    1.57254109267112
O        -3.02306450637221   -1.77222916168795    1.61626858885126
O        -1.82159761524689   -0.01232217709316    2.29489612651605
N         0.36249726855540   -0.94278932756821    0.90551670802878
C         1.05382311883250   -1.53100258914232    1.90359776510134
C         2.34066447177247   -0.84572907977035    2.23855429234735
C         3.57389594060506   -1.37676635505543    2.00862193790555
Cl        3.91348995704944   -2.85059785498415    1.23324042115227
S         4.85526037121109   -0.33461353248822    2.54830738046468
C         3.67931176071958    0.81147828917828    3.12540983979209
Cl        4.17229466968342    2.25133508637054    3.89192220428740
C         2.40337193946087    0.41261801172704    2.89095833384692
O         0.65409755551355   -2.52112466174493    2.47742341817022
H         4.75332346626685    2.56118083551497    0.83507267362988
H         4.18023201508693    3.38499571615777   -0.64420397389413
H         3.44939636176459    3.76817186125666    0.93452295173664
H         5.15948671910916    1.28973945825384   -1.06127525971833
H         5.47103166092365   -0.79974182678780   -2.27382964596597
H         3.62633640794970   -2.43628287908205   -2.44704062653472
H         1.47258077627228   -1.95737541011975   -1.34864973328299
H         0.85955544228052    1.09091221452173    0.72720731799790
H        -0.02862008703477    0.41337432189968   -1.93197671300123
H         0.56969133577258    2.76945076380756   -1.04007899664628
H        -0.49382925387731    4.95778137901734   -0.67069299785937
H        -2.89549616708863    5.05187520606137   -0.06336322446234
H        -4.17961694065727    3.00482151794373    0.16057915125225
H        -4.92401803202762   -0.47471400479262    0.18354609803829
H        -5.17006763283104    1.08791981786108   -0.63462988039524
H        -4.76703135972241    1.04189669683808    1.10760520448611
H        -4.60522201645550   -1.96722106738337   -1.69119245037556
H        -0.95974805635316   -2.53196491064259    0.53995466437880
H        -3.64649297076522   -1.49507114528258    2.30800113358063
H         1.53358053937793    0.97276860335397    3.18085020824057

          :  Hamiltonian                  GFN2-xTB          :
         :: total energy            -125.144907873422 Eh    ::
         :: gradient norm              0.000605014095 Eh/a0 ::
         :: HOMO-LUMO gap              3.002166800877 eV    ::
         :: SCC energy              -126.546379409663 Eh    ::
         :: -> dispersion             -0.110272907040 Eh    ::
         :: repulsion energy           1.397332373872 Eh    ::

    * Orbital Energies and Occupations

         #    Occupation            Energy/Eh            Energy/eV
      -------------------------------------------------------------
         1        2.0000           -1.0813850             -29.4260
       ...           ...                  ...                  ...
        97        2.0000           -0.4381303             -11.9221
        98        2.0000           -0.4290386             -11.6747
        99        2.0000           -0.4278723             -11.6430
       100        2.0000           -0.4198347             -11.4243
       101        2.0000           -0.4161160             -11.3231
       102        2.0000           -0.4149314             -11.2909
       103        2.0000           -0.4104547             -11.1690
       104        2.0000           -0.4084597             -11.1148
       105        2.0000           -0.4039302             -10.9915
       106        2.0000           -0.4020913             -10.9415
       107        2.0000           -0.3989035             -10.8547
       108        2.0000           -0.3926410             -10.6843
       109        2.0000           -0.3903049             -10.6207 (HOMO)
       110                         -0.2799773              -7.6186 (LUMO)
       111                         -0.2771143              -7.5407
       112                         -0.2603816              -7.0853
       113                         -0.2487835              -6.7697
       114                         -0.2472756              -6.7287
       115                         -0.2437043              -6.6315
       116                         -0.2349704              -6.3939
       117                         -0.2316639              -6.3039
       118                         -0.2296025              -6.2478
       119                         -0.2291349              -6.2351
       120                         -0.2242411              -6.1019
       ...                                ...                  ...
       218                          0.6581129              17.9082
      -------------------------------------------------------------
                  HL-Gap            0.1103276 Eh            3.0022 eV

     #   Z          covCN         q      C6AA      Î±(0)
     1   6 C        2.867     0.134    25.060     8.206
     2   8 O        1.705    -0.279    18.626     5.827
     3   6 C        3.643     0.035    20.319     6.480
     4   6 C        2.917    -0.065    29.629     8.926
     5   6 C        2.921    -0.029    28.718     8.788
     6   6 C        2.917    -0.036    28.892     8.814
     7   6 C        2.924    -0.032    28.806     8.802
     8   6 C        2.973    -0.028    28.697     8.787
     9   6 C        3.818     0.031    20.043     6.371
    10   6 C        3.837     0.044    19.815     6.333
    11   6 C        2.968    -0.015    28.384     8.739
    12   6 C        2.930    -0.038    28.938     8.822
    13   6 C        2.917    -0.038    28.934     8.821
    14   6 C        2.921    -0.030    28.753     8.793
    15   6 C        2.920    -0.062    29.545     8.914
    16   6 C        2.864     0.148    24.778     8.159
    17   8 O        1.704    -0.284    18.713     5.840
    18   6 C        3.643     0.040    20.238     6.467
    19   7 N        2.768    -0.086    22.907     7.108
    20   6 C        2.759     0.285    22.178     7.712
    21   6 C        3.159    -0.035    28.554     8.736
    22   6 C        2.907     0.082    26.162     8.387
    23  17 Cl       1.013    -0.118   102.859    15.516
    24  16 S        2.448     0.053   138.904    19.836
    25   6 C        2.902     0.091    25.975     8.357
    26  17 Cl       1.014    -0.117   102.819    15.513
    27   6 C        3.118    -0.052    29.118     8.838
    28   8 O        0.859    -0.403    21.739     6.251
    29   6 C        3.772     0.086    19.180     6.241
    30   6 C        2.688     0.366    20.785     7.461
    31   8 O        1.659    -0.363    20.145     6.059
    32   8 O        0.856    -0.383    21.341     6.194
    33   7 N        2.775    -0.096    23.121     7.142
    34   6 C        2.762     0.282    22.233     7.722
    35   6 C        3.173    -0.035    28.467     8.714
    36   6 C        2.904     0.092    25.955     8.353
    37  17 Cl       1.014    -0.108   102.544    15.492
    38  16 S        2.446     0.036   139.581    19.884
    39   6 C        2.904     0.093    25.937     8.351
    40  17 Cl       1.013    -0.117   102.819    15.513
    41   6 C        3.111    -0.054    29.193     8.852
    42   8 O        0.859    -0.419    22.053     6.296
    43   1 H        0.924     0.046     2.373     2.409
    44   1 H        0.924     0.045     2.382     2.414
    45   1 H        0.925     0.067     2.118     2.276
    46   1 H        0.926     0.045     2.385     2.415
    47   1 H        0.926     0.044     2.391     2.418
    48   1 H        0.926     0.044     2.401     2.423
    49   1 H        0.926     0.042     2.417     2.431
    50   1 H        0.924     0.081     1.968     2.194
    51   1 H        0.924     0.085     1.932     2.173
    52   1 H        0.926     0.047     2.357     2.401
    53   1 H        0.926     0.042     2.423     2.434
    54   1 H        0.926     0.042     2.424     2.435
    55   1 H        0.926     0.043     2.411     2.428
    56   1 H        0.925     0.059     2.208     2.323
    57   1 H        0.924     0.047     2.359     2.402
    58   1 H        0.924     0.042     2.417     2.431
    59   1 H        0.926     0.083     1.949     2.183
    60   1 H        0.924     0.093     1.852     2.128
    61   1 H        0.804     0.343     0.604     1.221
    62   1 H        0.926     0.083     1.949     2.183

Wiberg/Mayer (AO) data.
largest (>0.10) Wiberg bond orders for each atom

     #   Z sym  total        # sym  WBO       # sym  WBO       # sym  WBO
 ---------------------------------------------------------------------------
     1   6 C    3.934 --     4 C    1.380     8 C    1.326     2 O    1.059
     2   8 O    2.228 --     1 C    1.059     3 C    0.979
     3   6 C    3.940 --     2 O    0.979    45 H    0.979    44 H    0.976
                            43 H    0.976
     4   6 C    3.987 --     5 C    1.437     1 C    1.380    46 H    0.965
                             7 C    0.103
     5   6 C    3.990 --     6 C    1.441     4 C    1.437    47 H    0.970
                             8 C    0.106
     6   6 C    3.991 --     5 C    1.441     7 C    1.430    48 H    0.970
     7   6 C    3.990 --     8 C    1.434     6 C    1.430    49 H    0.966
                             4 C    0.103
     8   6 C    3.981 --     7 C    1.434     1 C    1.326     9 C    0.989
                             5 C    0.106
     9   6 C    3.960 --     8 C    0.989    33 N    0.960    10 C    0.951
                            50 H    0.948
    10   6 C    3.961 --    11 C    0.985    19 N    0.968     9 C    0.951
                            51 H    0.945
    11   6 C    3.982 --    12 C    1.421    16 C    1.343    10 C    0.985
                            14 C    0.107
    12   6 C    3.989 --    13 C    1.440    11 C    1.421    52 H    0.966
                            15 C    0.105
    13   6 C    3.990 --    12 C    1.440    14 C    1.432    53 H    0.970
    14   6 C    3.991 --    15 C    1.447    13 C    1.432    54 H    0.971
                            11 C    0.107
    15   6 C    3.988 --    14 C    1.447    16 C    1.371    55 H    0.964
                            12 C    0.105
    16   6 C    3.931 --    15 C    1.371    11 C    1.343    17 O    1.047
    17   8 O    2.228 --    16 C    1.047    18 C    0.982
    18   6 C    3.943 --    17 O    0.982    56 H    0.976    57 H    0.976
                            58 H    0.976
    19   7 N    3.497 --    20 C    1.221    29 C    0.990    10 C    0.968
                            28 O    0.196
    20   6 C    3.955 --    28 O    1.694    19 N    1.221    21 C    0.949
    21   6 C    3.978 --    22 C    1.541    27 C    1.231    20 C    0.949
    22   6 C    3.885 --    21 C    1.541    24 S    1.146    23 Cl   1.011
    23  17 Cl   1.179 --    22 C    1.011
    24  16 S    2.618 --    25 C    1.147    22 C    1.146
    25   6 C    3.890 --    27 C    1.581    24 S    1.147    26 Cl   1.016
    26  17 Cl   1.173 --    25 C    1.016
    27   6 C    3.978 --    25 C    1.581    21 C    1.231    59 H    0.955
    28   8 O    2.038 --    20 C    1.694    19 N    0.196
    29   6 C    3.964 --    19 N    0.990    33 N    0.981    60 H    0.937
                            30 C    0.901
    30   6 C    3.918 --    32 O    1.785    31 O    1.153    29 C    0.901
    31   8 O    2.216 --    30 C    1.153    61 H    0.855    32 O    0.179
    32   8 O    2.066 --    30 C    1.785    31 O    0.179
    33   7 N    3.492 --    34 C    1.233    29 C    0.981     9 C    0.960
                            42 O    0.199
    34   6 C    3.955 --    42 O    1.684    33 N    1.233    35 C    0.949
    35   6 C    3.978 --    36 C    1.547    41 C    1.225    34 C    0.949
    36   6 C    3.890 --    35 C    1.547    38 S    1.140    37 Cl   1.024
    37  17 Cl   1.189 --    36 C    1.024
    38  16 S    2.605 --    39 C    1.140    36 C    1.140
    39   6 C    3.889 --    41 C    1.586    38 S    1.140    40 Cl   1.014
    40  17 Cl   1.170 --    39 C    1.014
    41   6 C    3.979 --    39 C    1.586    35 C    1.225    62 H    0.957
    42   8 O    2.022 --    34 C    1.684    33 N    0.199
    43   1 H    0.998 --     3 C    0.976
    44   1 H    0.998 --     3 C    0.976
    45   1 H    0.995 --     3 C    0.979
    46   1 H    0.997 --     4 C    0.965
    47   1 H    0.998 --     5 C    0.970
    48   1 H    0.998 --     6 C    0.970
    49   1 H    0.998 --     7 C    0.966
    50   1 H    0.993 --     9 C    0.948
    51   1 H    0.992 --    10 C    0.945
    52   1 H    0.997 --    12 C    0.966
    53   1 H    0.998 --    13 C    0.970
    54   1 H    0.998 --    14 C    0.971
    55   1 H    0.998 --    15 C    0.964
    56   1 H    0.996 --    18 C    0.976
    57   1 H    0.998 --    18 C    0.976
    58   1 H    0.998 --    18 C    0.976
    59   1 H    0.993 --    27 C    0.955
    60   1 H    0.991 --    29 C    0.937
    61   1 H    0.882 --    31 O    0.855
    62   1 H    0.993 --    41 C    0.957
 ---------------------------------------------------------------------------

molecular dipole:
                 x           y           z       tot (Debye)
 q only:       -0.144       1.676      -0.119
   full:       -0.496       1.564      -0.010       4.172

           -------------------------------------------------
          | TOTAL ENERGY             -125.144907873422 Eh   |
          | GRADIENT NORM               0.000605014095 Eh/Î± |
          | HOMO-LUMO GAP               3.002166800877 eV   |
           -------------------------------------------------

 * finished run on 2022/03/16 at 22:53:27.623
