   * xtb version 6.3.3 (4ae9cef) compiled by 'conda@95abc7406d43' on 2020-10-14
          program call               : xtb acid_12.xyz --opt --chrg 0 --uhf 0 --gfn 2
          number of atoms            :                    66
          number of electrons        :                   218
          charge                     :                     0
          spin                       :                   0.0

   ID    Z sym.   atoms
    1    6 C      1-22, 24-26, 28, 30, 32, 33, 37-39, 41, 43
    2    7 N      23, 36
    3    8 O      27, 31, 34, 35, 40, 44
    4   35 Br     29, 42
    5    1 H      45-66

          :  Hamiltonian                  GFN2-xTB          :
 * total energy  :  -122.4240531 Eh     change       -0.5806797E-08 Eh
 * total energy  :  -122.4423217 Eh     change       -0.1826859E-01 Eh
 * total energy  :  -122.4480706 Eh     change       -0.5748910E-02 Eh
 * total energy  :  -122.4500612 Eh     change       -0.1990592E-02 Eh
 * total energy  :  -122.4520551 Eh     change       -0.1993948E-02 Eh
 * total energy  :  -122.4537942 Eh     change       -0.1739032E-02 Eh
 * total energy  :  -122.4555741 Eh     change       -0.1779965E-02 Eh
 * total energy  :  -122.4573651 Eh     change       -0.1791004E-02 Eh
 * total energy  :  -122.4586073 Eh     change       -0.1242193E-02 Eh
 * total energy  :  -122.4601192 Eh     change       -0.1511831E-02 Eh
 * total energy  :  -122.4893533 Eh     change       -0.1450148E-04 Eh
 * total energy  :  -122.4893736 Eh     change       -0.2025099E-04 Eh
 * total energy  :  -122.4893984 Eh     change       -0.2482527E-04 Eh
 * total energy  :  -122.4894103 Eh     change       -0.1185162E-04 Eh
 * total energy  :  -122.4894343 Eh     change       -0.2407540E-04 Eh
 * total energy  :  -122.4894515 Eh     change       -0.1718736E-04 Eh
 * total energy  :  -122.4894641 Eh     change       -0.1253568E-04 Eh
 * total energy  :  -122.4894712 Eh     change       -0.7163599E-05 Eh
 * total energy  :  -122.4894736 Eh     change       -0.2363078E-05 Eh
   *** GEOMETRY OPTIMIZATION CONVERGED AFTER 164 ITERATIONS ***

 final structure:
================
66
 xtb: 6.3.3 (4ae9cef)
C        -1.80113011326741    1.83934349186260    0.17793483175299
C        -2.59065249215500    2.66418409492782    0.92607444253363
C        -2.94514871180265    2.32255067454772    2.24812302592196
C        -3.79106423228779    3.13207714980376    3.03361821269797
C        -4.11254572501376    2.76860983854420    4.31156691094780
C        -3.60123093982515    1.58304746604106    4.86342055896386
C        -2.77844006292075    0.77670841542822    4.12807080608580
C        -2.43254253762344    1.12121556658841    2.80488451210224
C        -1.60913287978324    0.29744704779942    2.01222713984248
C        -1.32012538879985    0.62917193948419    0.71444521965792
C        -0.48972979562103   -0.27510316204947   -0.15379070067447
C         1.02218588934532   -0.10449210421362    0.09703842397442
C         1.61405167473481    0.92641069803722   -0.82383446602326
C         1.90722246577026    0.62469300506261   -2.12773046703241
C         2.43169173711776    1.59984608590515   -2.99848361339221
C         2.76603498535040    1.30673746418876   -4.33726165163493
C         3.27580691680200    2.27425515275788   -5.15671285874282
C         3.47141239705059    3.57931215756066   -4.67758012573363
C         3.15519499462537    3.89497616388053   -3.38589840960948
C         2.63052188542426    2.91898052004114   -2.51371126894606
C         2.30094996149550    3.20639459324833   -1.17290064135902
C         1.80915079047130    2.23591514878784   -0.34829857048616
N         1.54216626987195   -1.44692765866607   -0.13865590794506
C         2.89100376091290   -1.64868281311646    0.02714076856024
C         3.34291790035184   -3.05617589285575   -0.05489198350050
C         4.30119561415987   -3.60606872283583    0.75056991448072
O         4.52990989769777   -4.88306112687392    0.41733521252348
C         3.73180143609786   -5.15543977003840   -0.62471476319257
Br        3.82167102706751   -6.86724205274507   -1.35202794393860
C         2.96914547574639   -4.08195335909598   -0.96986350343224
O         3.66440233467072   -0.72942728623958    0.16072782366715
C         0.54295382592689   -2.41410771421425    0.22754191061706
C         0.78702086875923   -2.92587666124581    1.69004758812324
O        -0.03588011311681   -3.86229479990456    2.09938687138980
O         1.69191792145463   -2.49166888050034    2.34383536711251
N        -0.71526666785735   -1.69187401434104    0.09732827820757
C        -1.89637924573258   -2.32850589658309    0.15920319297071
C        -3.11971850671866   -1.52352540297200   -0.01438134931306
C        -4.19127231576997   -1.60410690327766    0.83465250128936
O        -5.14563953706457   -0.73765588335062    0.47866041198101
C        -4.70366205890746   -0.11099965873206   -0.62126079538827
Br       -5.79440839969543    1.19916840663755   -1.35961350026502
C        -3.46577896639172   -0.54272071846411   -0.98599840606016
O        -1.96466694535659   -3.53115473383856    0.41561300845843
H        -1.53705181543081    2.10589803596971   -0.83514496332919
H        -2.96578714808536    3.58660824395771    0.50803550463983
H        -4.18120032065942    4.04350684678875    2.60442071088164
H        -4.76242220984005    3.39175088791323    4.90764647594499
H        -3.86505256887092    1.31327147178359    5.87514324917338
H        -2.38154123107026   -0.13698694509084    4.54655221423109
H        -1.22594162960993   -0.61687537120269    2.44510880627520
H        -0.68692562276031   -0.06243111570748   -1.21303594205831
H         1.20512443142933    0.18271631079829    1.14204702303077
H         1.76007534802385   -0.37923472240742   -2.50171279833448
H         2.61724197331726    0.30024105623197   -4.70202583254309
H         3.53398573232089    2.04189648307939   -6.17948610168972
H         3.87608320689631    4.33072940199867   -5.33951028662350
H         3.30612636999798    4.89737439804363   -3.01150534035628
H         2.45282617538894    4.21058840254549   -0.80461824110360
H         1.56790373866606    2.46067652316000    0.68021629356644
H         4.84078289510342   -3.19318968255105    1.57799604194158
H         2.28002837504237   -4.02961473013519   -1.78746313975163
H         0.53792720807841   -3.28982769603635   -0.43877756413189
H        -0.79783732368225   -4.00871417234915    1.46324731007891
H        -4.35800956459471   -2.20730760000349    1.70415971909836
H        -2.91225141487173   -0.22305889174455   -1.84313214617595

          :  Hamiltonian                  GFN2-xTB          :
         :: total energy            -122.489473587578 Eh    ::
         :: gradient norm              0.000911469681 Eh/a0 ::
         :: HOMO-LUMO gap              2.752102840188 eV    ::
         :: SCC energy              -124.193163707152 Eh    ::
         :: -> dispersion             -0.101621932066 Eh    ::
         :: repulsion energy           1.701373959025 Eh    ::

    * Orbital Energies and Occupations

         #    Occupation            Energy/Eh            Energy/eV
      -------------------------------------------------------------
         1        2.0000           -0.8697798             -23.6679
       ...           ...                  ...                  ...
        97        2.0000           -0.4369920             -11.8912
        98        2.0000           -0.4357546             -11.8575
        99        2.0000           -0.4353890             -11.8475
       100        2.0000           -0.4292639             -11.6809
       101        2.0000           -0.4271107             -11.6223
       102        2.0000           -0.4247964             -11.5593
       103        2.0000           -0.4222052             -11.4888
       104        2.0000           -0.4187319             -11.3943
       105        2.0000           -0.4118460             -11.2069
       106        2.0000           -0.4093619             -11.1393
       107        2.0000           -0.4054648             -11.0333
       108        2.0000           -0.4017847             -10.9331
       109        2.0000           -0.3879958             -10.5579 (HOMO)
       110                         -0.2868579              -7.8058 (LUMO)
       111                         -0.2852847              -7.7630
       112                         -0.2703492              -7.3566
       113                         -0.2626026              -7.1458
       114                         -0.2609640              -7.1012
       115                         -0.2608757              -7.0988
       116                         -0.2540861              -6.9140
       117                         -0.2423684              -6.5952
       118                         -0.2391490              -6.5076
       119                         -0.2328505              -6.3362
       120                         -0.2198400              -5.9822
       ...                                ...                  ...
       208                          0.6875699              18.7097
      -------------------------------------------------------------
                  HL-Gap            0.1011379 Eh            2.7521 eV

     #   Z          covCN         q      C6AA      Î±(0)
     1   6 C        2.919    -0.039    28.977     8.827
     2   6 C        2.917    -0.033    28.813     8.802
     3   6 C        2.987     0.014    27.697     8.633
     4   6 C        2.918    -0.032    28.799     8.800
     5   6 C        2.916    -0.026    28.644     8.776
     6   6 C        2.916    -0.025    28.638     8.775
     7   6 C        2.918    -0.034    28.839     8.806
     8   6 C        2.987     0.014    27.700     8.633
     9   6 C        2.922    -0.043    29.068     8.841
    10   6 C        2.969    -0.007    28.188     8.709
    11   6 C        3.823     0.037    19.929     6.353
    12   6 C        3.841     0.051    19.687     6.312
    13   6 C        2.970     0.011    27.765     8.643
    14   6 C        2.922    -0.037    28.924     8.820
    15   6 C        2.987     0.016    27.639     8.624
    16   6 C        2.918    -0.034    28.840     8.806
    17   6 C        2.916    -0.028    28.700     8.785
    18   6 C        2.916    -0.028    28.705     8.786
    19   6 C        2.918    -0.033    28.819     8.803
    20   6 C        2.987     0.015    27.668     8.628
    21   6 C        2.918    -0.031    28.780     8.797
    22   6 C        2.919    -0.031    28.785     8.798
    23   7 N        2.763    -0.126    23.733     7.235
    24   6 C        2.764     0.285    22.170     7.711
    25   6 C        3.085    -0.044    29.003     8.828
    26   6 C        3.087     0.086    25.991     8.357
    27   8 O        1.764    -0.159    16.691     5.517
    28   6 C        3.095     0.182    24.008     8.030
    29  35 Br       0.991    -0.104   187.872    22.100
    30   6 C        3.045    -0.078    29.902     8.969
    31   8 O        0.859    -0.396    21.600     6.231
    32   6 C        3.766     0.076    19.345     6.269
    33   6 C        2.683     0.349    21.080     7.514
    34   8 O        1.654    -0.367    20.231     6.072
    35   8 O        0.856    -0.369    21.074     6.155
    36   7 N        2.761    -0.101    23.209     7.155
    37   6 C        2.761     0.270    22.438     7.757
    38   6 C        3.089    -0.037    28.817     8.799
    39   6 C        3.088     0.082    26.076     8.370
    40   8 O        1.765    -0.157    16.665     5.512
    41   6 C        3.100     0.183    23.975     8.024
    42  35 Br       0.995    -0.093   187.545    22.081
    43   6 C        3.045    -0.071    29.717     8.941
    44   8 O        0.860    -0.460    22.915     6.418
    45   1 H        0.926     0.034     2.535     2.490
    46   1 H        0.926     0.047     2.362     2.403
    47   1 H        0.926     0.040     2.444     2.445
    48   1 H        0.926     0.040     2.454     2.450
    49   1 H        0.926     0.040     2.453     2.449
    50   1 H        0.926     0.038     2.470     2.458
    51   1 H        0.925     0.029     2.596     2.520
    52   1 H        0.923     0.054     2.269     2.356
    53   1 H        0.923     0.058     2.221     2.331
    54   1 H        0.925     0.031     2.573     2.509
    55   1 H        0.926     0.032     2.551     2.498
    56   1 H        0.926     0.034     2.525     2.485
    57   1 H        0.926     0.035     2.522     2.483
    58   1 H        0.926     0.036     2.507     2.476
    59   1 H        0.926     0.041     2.435     2.440
    60   1 H        0.926     0.035     2.520     2.482
    61   1 H        0.926     0.088     1.897     2.154
    62   1 H        0.926     0.055     2.254     2.348
    63   1 H        0.923     0.068     2.105     2.269
    64   1 H        0.799     0.369     0.546     1.161
    65   1 H        0.926     0.083     1.945     2.181
    66   1 H        0.927     0.064     2.149     2.292

Wiberg/Mayer (AO) data.
largest (>0.10) Wiberg bond orders for each atom

     #   Z sym  total        # sym  WBO       # sym  WBO       # sym  WBO
 ---------------------------------------------------------------------------
     1   6 C    3.990 --     2 C    1.562    10 C    1.293    45 H    0.968
     2   6 C    3.991 --     1 C    1.562     3 C    1.277    46 H    0.967
                             9 C    0.114
     3   6 C    3.990 --     4 C    1.281     2 C    1.277     8 C    1.249
     4   6 C    3.991 --     5 C    1.556     3 C    1.281    47 H    0.968
                             7 C    0.118
     5   6 C    3.989 --     4 C    1.556     6 C    1.321    48 H    0.970
     6   6 C    3.992 --     7 C    1.558     5 C    1.321    49 H    0.970
     7   6 C    3.990 --     6 C    1.558     8 C    1.278    50 H    0.968
                             4 C    0.118
     8   6 C    3.990 --     9 C    1.283     7 C    1.278     3 C    1.249
     9   6 C    3.990 --    10 C    1.523     8 C    1.283    51 H    0.966
                             2 C    0.114
    10   6 C    3.984 --     9 C    1.523     1 C    1.293    11 C    0.991
    11   6 C    3.955 --    10 C    0.991    36 N    0.955    12 C    0.950
                            52 H    0.949
    12   6 C    3.960 --    13 C    0.992    23 N    0.957    53 H    0.953
                            11 C    0.950
    13   6 C    3.984 --    14 C    1.524    22 C    1.296    12 C    0.992
    14   6 C    3.990 --    13 C    1.524    15 C    1.284    54 H    0.966
                            21 C    0.115
    15   6 C    3.990 --    14 C    1.284    16 C    1.278    20 C    1.250
    16   6 C    3.990 --    17 C    1.558    15 C    1.278    55 H    0.968
                            19 C    0.118
    17   6 C    3.992 --    16 C    1.558    18 C    1.320    56 H    0.971
    18   6 C    3.990 --    19 C    1.557    17 C    1.320    57 H    0.971
    19   6 C    3.992 --    18 C    1.557    20 C    1.281    58 H    0.968
                            16 C    0.118
    20   6 C    3.990 --    19 C    1.281    21 C    1.278    15 C    1.250
    21   6 C    3.991 --    22 C    1.561    20 C    1.278    59 H    0.967
                            14 C    0.115
    22   6 C    3.990 --    21 C    1.561    13 C    1.296    60 H    0.968
    23   7 N    3.408 --    24 C    1.159    32 C    1.001    12 C    0.957
                            31 O    0.175
    24   6 C    3.949 --    31 O    1.717    23 N    1.159    25 C    0.988
    25   6 C    3.978 --    26 C    1.560    30 C    1.248    24 C    0.988
    26   6 C    3.905 --    25 C    1.560    27 O    1.141    61 H    0.961
                            28 C    0.130
    27   8 O    2.466 --    26 C    1.141    28 C    1.127
    28   6 C    3.879 --    30 C    1.561    27 O    1.127    29 Br   1.013
                            26 C    0.130
    29  35 Br   1.162 --    28 C    1.013
    30   6 C    3.975 --    28 C    1.561    25 C    1.248    62 H    0.971
    31   8 O    2.043 --    24 C    1.717    23 N    0.175
    32   6 C    3.959 --    23 N    1.001    36 N    0.968    63 H    0.938
                            33 C    0.881
    33   6 C    3.930 --    35 O    1.775    34 O    1.215    32 C    0.881
    34   8 O    2.242 --    33 C    1.215    64 H    0.754    35 O    0.184
    35   8 O    2.088 --    33 C    1.775    34 O    0.184
    36   7 N    3.513 --    37 C    1.278    32 C    0.968    11 C    0.955
                            44 O    0.188
    37   6 C    3.950 --    44 O    1.573    36 N    1.278    38 C    1.001
    38   6 C    3.978 --    39 C    1.549    43 C    1.247    37 C    1.001
    39   6 C    3.904 --    38 C    1.549    40 O    1.144    65 H    0.961
                            41 C    0.128
    40   8 O    2.469 --    39 C    1.144    41 C    1.126
    41   6 C    3.882 --    43 C    1.564    40 O    1.126    42 Br   1.019
                            39 C    0.128
    42  35 Br   1.168 --    41 C    1.019
    43   6 C    3.976 --    41 C    1.564    38 C    1.247    66 H    0.970
    44   8 O    2.007 --    37 C    1.573    36 N    0.188
    45   1 H    0.998 --     1 C    0.968
    46   1 H    0.997 --     2 C    0.967
    47   1 H    0.998 --     4 C    0.968
    48   1 H    0.998 --     5 C    0.970
    49   1 H    0.998 --     6 C    0.970
    50   1 H    0.998 --     7 C    0.968
    51   1 H    0.999 --     9 C    0.966
    52   1 H    0.996 --    11 C    0.949
    53   1 H    0.996 --    12 C    0.953
    54   1 H    0.999 --    14 C    0.966
    55   1 H    0.998 --    16 C    0.968
    56   1 H    0.998 --    17 C    0.971
    57   1 H    0.998 --    18 C    0.971
    58   1 H    0.998 --    19 C    0.968
    59   1 H    0.997 --    21 C    0.967
    60   1 H    0.998 --    22 C    0.968
    61   1 H    0.992 --    26 C    0.961
    62   1 H    0.997 --    30 C    0.971
    63   1 H    0.995 --    32 C    0.938
    64   1 H    0.863 --    34 O    0.754
    65   1 H    0.993 --    39 C    0.961
    66   1 H    0.996 --    43 C    0.970
 ---------------------------------------------------------------------------

molecular dipole:
                 x           y           z       tot (Debye)
 q only:       -1.639       1.760      -0.772
   full:       -1.561       1.599      -0.312       5.736

           -------------------------------------------------
          | TOTAL ENERGY             -122.489473587578 Eh   |
          | GRADIENT NORM               0.000911469681 Eh/Î± |
          | HOMO-LUMO GAP               2.752102840188 eV   |
           -------------------------------------------------

 * finished run on 2022/03/16 at 21:32:23.834
