   * xtb version 6.3.3 (4ae9cef) compiled by 'conda@95abc7406d43' on 2020-10-14
          program call               : xtb acid_298.xyz --opt --chrg 0 --uhf 0 --gfn 2
          number of atoms            :                    72
          number of electrons        :                   218
          charge                     :                     0
          spin                       :                   0.0

   ID    Z sym.   atoms
    1    6 C      1-22, 24-29, 32, 33, 37-42
    2    7 N      23, 36
    3   16 S      30, 43
    4    8 O      31, 34, 35, 44
    5    1 H      45-72

          :  Hamiltonian                  GFN2-xTB          :
 * total energy  :  -119.9877100 Eh     change       -0.4143175E-08 Eh
 * total energy  :  -120.0050158 Eh     change       -0.1730587E-01 Eh
 * total energy  :  -120.0106589 Eh     change       -0.5643006E-02 Eh
 * total energy  :  -120.0121620 Eh     change       -0.1503183E-02 Eh
 * total energy  :  -120.0130313 Eh     change       -0.8692318E-03 Eh
 * total energy  :  -120.0134714 Eh     change       -0.4401134E-03 Eh
 * total energy  :  -120.0138806 Eh     change       -0.4092617E-03 Eh
 * total energy  :  -120.0142854 Eh     change       -0.4047267E-03 Eh
 * total energy  :  -120.0146759 Eh     change       -0.3905774E-03 Eh
 * total energy  :  -120.0150845 Eh     change       -0.4085242E-03 Eh
 * total energy  :  -120.0189547 Eh     change       -0.7424594E-05 Eh
 * total energy  :  -120.0189618 Eh     change       -0.7039329E-05 Eh
 * total energy  :  -120.0189694 Eh     change       -0.7626987E-05 Eh
 * total energy  :  -120.0189780 Eh     change       -0.8540123E-05 Eh
 * total energy  :  -120.0189868 Eh     change       -0.8800396E-05 Eh
 * total energy  :  -120.0189948 Eh     change       -0.8084312E-05 Eh
 * total energy  :  -120.0190018 Eh     change       -0.6935236E-05 Eh
 * total energy  :  -120.0190075 Eh     change       -0.5733478E-05 Eh
 * total energy  :  -120.0190119 Eh     change       -0.4387989E-05 Eh
   *** GEOMETRY OPTIMIZATION CONVERGED AFTER 91 ITERATIONS ***

 final structure:
================
72
 xtb: 6.3.3 (4ae9cef)
C         2.09555746538134   -2.09652114563658    4.21546805554198
C         1.52392393713842   -0.94449997228776    4.67321458446323
C         0.95098397047426   -0.04820482423125    3.76160626538947
C         0.95815429013998   -0.31641128291994    2.42134773856830
C         1.54762694637753   -1.49115035952690    1.90480902724376
C         2.12558488081931   -2.39917159957582    2.83781686578206
C         2.72220818244562   -3.59217500418504    2.38273327192384
C         2.75562427019351   -3.88364539029057    1.05038875016218
C         2.19936328884896   -2.99032194636888    0.12799274403156
C         1.60559690542971   -1.81619820389456    0.52169115529791
C         1.01537722891623   -0.95712298391883   -0.57379800499163
C        -0.52988339130736   -1.03296827178875   -0.62900779660761
C        -1.08732719349330   -1.49082606511975   -1.96179362060366
C        -0.47572975914770   -1.10161183023302   -3.12889568799359
C        -0.94676201102883   -1.50842783957949   -4.38382338332344
C        -2.03086806792626   -2.33122986241122   -4.47071703515284
C        -2.70208433635303   -2.75035260254187   -3.30461464676005
C        -2.25094033156799   -2.31018850931101   -2.02738042449029
C        -2.99450575111249   -2.71568668521704   -0.89588409316669
C        -4.08609774157288   -3.53023212590326   -1.01939454217814
C        -4.50367940288231   -3.98918735107973   -2.27626608890062
C        -3.82735224208623   -3.59692409261051   -3.39515718211990
N        -0.96845153180711    0.33023838222487   -0.31757830621929
C        -1.90753629041418    0.52804266206398    0.65957307122224
C        -2.20657967691171    1.91507787428705    1.04483725454291
C        -2.55016199447326    2.33404948370994    2.30773846854875
C        -2.60269639038431    1.47436753382049    3.52314991464561
C        -2.84496142210647    3.71957881647006    2.34580865168290
C        -2.75345277566322    4.31992657168822    1.13384734311239
S        -2.28465484162094    3.22477724026351   -0.10061100883069
O        -2.48174084911109   -0.40995387815381    1.18087771284567
C         0.09345661638150    1.23963707765159   -0.63525126472886
C         0.02967216630166    1.76900170094946   -2.08267223069671
O        -1.22031012414428    1.90162690765333   -2.50341566545743
O         0.99793535418518    2.06582935482873   -2.72555135064400
N         1.29444293545737    0.46568486924410   -0.42163738862470
C         2.57785142792108    0.92165045792682   -0.45599587835203
C         2.75901311504967    2.36250155813403   -0.18908756873908
C         3.58502578274629    3.22192028121214   -0.86026586305923
C         4.33849417072634    2.85521741384008   -2.09152902759808
C         3.58963770842429    4.51620172531031   -0.27946856005748
C         2.80534672705743    4.61377398798194    0.82099028645368
S         2.01534163660938    3.13100580966103    1.18357921381583
O         3.51348769215873    0.16900908387206   -0.63731245267332
H         2.54034297132997   -2.80102887568436    4.90408498300294
H         1.50874377822587   -0.71836268505285    5.72927104768307
H         0.50238564377056    0.86562537975711    4.12227180296212
H         0.50689216069785    0.39910909728974    1.75749046947708
H         3.15308405496912   -4.26637489676455    3.10893501127752
H         3.21351072215155   -4.79457774585518    0.69485096467284
H         2.24629189799376   -3.23510744753079   -0.92338845835333
H         1.45615705629639   -1.30861778374710   -1.51382032661030
H        -0.89166525772571   -1.68378068604572    0.17094887882405
H         0.40495084074836   -0.47697870163163   -3.10713984836454
H        -0.43191933803184   -1.17480649034800   -5.27275544496085
H        -2.39411431484041   -2.66969265978571   -5.43050029437723
H        -2.73472997583473   -2.35437925662311    0.08496185473060
H        -4.63893379946081   -3.82057235864288   -0.13827713045859
H        -5.36217980544001   -4.64023786339953   -2.35186509819993
H        -4.14382392611987   -3.92589133032144   -4.37495611606032
H        -2.19411695596257    0.48841871320662    3.32449969825108
H        -2.05487888833864    1.94499316281276    4.33894443739178
H        -3.63952449132193    1.35500371972560    3.83793396658659
H        -3.12236307737423    4.23458803346982    3.24815270283295
H        -2.93559679478932    5.34588505233345    0.88197578382995
H         0.06229659972701    2.12857643987383    0.00977913019999
H        -1.25409996400484    2.25933532441946   -3.40595267016539
H         3.65863982858952    2.85188879014232   -2.94363598846089
H         4.75495717126733    1.85638563846740   -1.99041422524327
H         5.13662605257652    3.56923745960742   -2.27751430342509
H         4.16830234343807    5.33411516099437   -0.67060232303865
H         2.64083389338865    5.46113784329239    1.45636319268722

          :  Hamiltonian                  GFN2-xTB          :
         :: total energy            -120.019011895529 Eh    ::
         :: gradient norm              0.000826176704 Eh/a0 ::
         :: HOMO-LUMO gap              2.756429822969 eV    ::
         :: SCC energy              -121.850023596201 Eh    ::
         :: -> dispersion             -0.112417844205 Eh    ::
         :: repulsion energy           1.826568659130 Eh    ::

    * Orbital Energies and Occupations

         #    Occupation            Energy/Eh            Energy/eV
      -------------------------------------------------------------
         1        2.0000           -0.7743845             -21.0721
       ...           ...                  ...                  ...
        97        2.0000           -0.4153705             -11.3028
        98        2.0000           -0.4114135             -11.1951
        99        2.0000           -0.4058501             -11.0437
       100        2.0000           -0.4031306             -10.9697
       101        2.0000           -0.4024958             -10.9525
       102        2.0000           -0.4009135             -10.9094
       103        2.0000           -0.3991920             -10.8626
       104        2.0000           -0.3985148             -10.8441
       105        2.0000           -0.3956143             -10.7652
       106        2.0000           -0.3921355             -10.6706
       107        2.0000           -0.3879747             -10.5573
       108        2.0000           -0.3796840             -10.3317
       109        2.0000           -0.3746117             -10.1937 (HOMO)
       110                         -0.2733148              -7.4373 (LUMO)
       111                         -0.2655322              -7.2255
       112                         -0.2637756              -7.1777
       113                         -0.2597436              -7.0680
       114                         -0.2577435              -7.0136
       115                         -0.2308740              -6.2824
       116                         -0.2263473              -6.1592
       117                         -0.2227278              -6.0607
       118                         -0.2188748              -5.9559
       119                         -0.2052509              -5.5852
       120                         -0.1997218              -5.4347
       ...                                ...                  ...
       214                          0.6978079              18.9883
      -------------------------------------------------------------
                  HL-Gap            0.1012969 Eh            2.7564 eV

     #   Z          covCN         q      C6AA      Î±(0)
     1   6 C        2.922    -0.033    28.826     8.804
     2   6 C        2.915    -0.029    28.725     8.789
     3   6 C        2.917    -0.029    28.733     8.790
     4   6 C        2.918    -0.032    28.808     8.802
     5   6 C        2.982     0.014    27.692     8.632
     6   6 C        2.989     0.016    27.650     8.626
     7   6 C        2.921    -0.035    28.860     8.810
     8   6 C        2.913    -0.028    28.694     8.784
     9   6 C        2.926    -0.031    28.769     8.796
    10   6 C        2.964     0.002    27.979     8.676
    11   6 C        3.827     0.042    19.843     6.338
    12   6 C        3.833     0.034    19.972     6.358
    13   6 C        2.963    -0.006    28.158     8.704
    14   6 C        2.922    -0.039    28.969     8.826
    15   6 C        2.913    -0.033    28.827     8.804
    16   6 C        2.921    -0.036    28.885     8.814
    17   6 C        2.989     0.014    27.689     8.632
    18   6 C        2.983     0.011    27.767     8.644
    19   6 C        2.916    -0.039    28.961     8.825
    20   6 C        2.917    -0.027    28.676     8.781
    21   6 C        2.914    -0.028    28.711     8.787
    22   6 C        2.922    -0.035    28.882     8.813
    23   7 N        2.761    -0.117    23.545     7.207
    24   6 C        2.777     0.274    22.371     7.747
    25   6 C        2.993    -0.028    28.696     8.787
    26   6 C        3.142     0.021    27.285     8.547
    27   6 C        3.755    -0.108    22.616     6.781
    28   6 C        3.117    -0.052    29.104     8.836
    29   6 C        2.934    -0.016    28.409     8.741
    30  16 S        2.305    -0.036   142.531    20.094
    31   8 O        0.860    -0.427    22.235     6.322
    32   6 C        3.771     0.092    19.096     6.227
    33   6 C        2.687     0.354    20.995     7.499
    34   8 O        1.660    -0.349    19.895     6.021
    35   8 O        0.856    -0.392    21.520     6.220
    36   7 N        2.763    -0.123    23.674     7.227
    37   6 C        2.779     0.280    22.265     7.729
    38   6 C        2.997    -0.024    28.579     8.769
    39   6 C        3.144     0.022    27.260     8.543
    40   6 C        3.756    -0.111    22.680     6.790
    41   6 C        3.120    -0.050    29.047     8.827
    42   6 C        2.933    -0.017    28.427     8.744
    43  16 S        2.313    -0.055   143.333    20.150
    44   8 O        0.859    -0.421    22.109     6.304
    45   1 H        0.926     0.034     2.535     2.490
    46   1 H        0.926     0.031     2.569     2.506
    47   1 H        0.926     0.030     2.585     2.514
    48   1 H        0.926     0.024     2.668     2.554
    49   1 H        0.926     0.036     2.501     2.473
    50   1 H        0.926     0.037     2.493     2.469
    51   1 H        0.926     0.034     2.526     2.486
    52   1 H        0.924     0.061     2.185     2.312
    53   1 H        0.924     0.080     1.980     2.201
    54   1 H        0.926     0.029     2.596     2.520
    55   1 H        0.926     0.033     2.544     2.494
    56   1 H        0.926     0.035     2.513     2.479
    57   1 H        0.926     0.064     2.157     2.297
    58   1 H        0.926     0.036     2.503     2.474
    59   1 H        0.926     0.032     2.558     2.501
    60   1 H        0.926     0.032     2.556     2.500
    61   1 H        0.925     0.067     2.118     2.276
    62   1 H        0.925     0.049     2.326     2.385
    63   1 H        0.925     0.062     2.178     2.308
    64   1 H        0.926     0.048     2.348     2.396
    65   1 H        0.926     0.053     2.284     2.363
    66   1 H        0.923     0.081     1.973     2.197
    67   1 H        0.804     0.345     0.601     1.218
    68   1 H        0.925     0.065     2.139     2.287
    69   1 H        0.925     0.070     2.085     2.258
    70   1 H        0.925     0.047     2.352     2.398
    71   1 H        0.926     0.044     2.391     2.418
    72   1 H        0.926     0.049     2.333     2.389

Wiberg/Mayer (AO) data.
largest (>0.10) Wiberg bond orders for each atom

     #   Z sym  total        # sym  WBO       # sym  WBO       # sym  WBO
 ---------------------------------------------------------------------------
     1   6 C    3.991 --     2 C    1.556     6 C    1.281    45 H    0.968
                             4 C    0.118
     2   6 C    3.992 --     1 C    1.556     3 C    1.324    46 H    0.971
     3   6 C    3.992 --     4 C    1.552     2 C    1.324    47 H    0.970
     4   6 C    3.992 --     3 C    1.552     5 C    1.285    48 H    0.962
                             1 C    0.118
     5   6 C    3.989 --     4 C    1.285    10 C    1.255     6 C    1.250
     6   6 C    3.990 --     1 C    1.281     7 C    1.280     5 C    1.250
     7   6 C    3.990 --     8 C    1.552     6 C    1.280    49 H    0.968
                            10 C    0.115
     8   6 C    3.992 --     7 C    1.552     9 C    1.328    50 H    0.970
     9   6 C    3.989 --    10 C    1.521     8 C    1.328    51 H    0.967
    10   6 C    3.983 --     9 C    1.521     5 C    1.255    11 C    0.989
                             7 C    0.115
    11   6 C    3.961 --    10 C    0.989    36 N    0.958    12 C    0.956
                            52 H    0.947
    12   6 C    3.957 --    13 C    0.986    11 C    0.956    23 N    0.950
                            53 H    0.946
    13   6 C    3.983 --    14 C    1.526    18 C    1.253    12 C    0.986
                            16 C    0.115
    14   6 C    3.991 --    13 C    1.526    15 C    1.325    54 H    0.960
    15   6 C    3.992 --    16 C    1.553    14 C    1.325    55 H    0.971
    16   6 C    3.990 --    15 C    1.553    17 C    1.280    56 H    0.968
                            13 C    0.115
    17   6 C    3.990 --    16 C    1.280    22 C    1.279    18 C    1.251
    18   6 C    3.988 --    19 C    1.284    13 C    1.253    17 C    1.251
    19   6 C    3.988 --    20 C    1.554    18 C    1.284    57 H    0.953
                            22 C    0.119
    20   6 C    3.991 --    19 C    1.554    21 C    1.323    58 H    0.971
    21   6 C    3.992 --    22 C    1.557    20 C    1.323    59 H    0.971
    22   6 C    3.991 --    21 C    1.557    17 C    1.279    60 H    0.968
                            19 C    0.119
    23   7 N    3.448 --    24 C    1.177    32 C    1.000    12 C    0.950
                            31 O    0.174
    24   6 C    3.950 --    31 O    1.655    23 N    1.177    25 C    1.029
    25   6 C    3.935 --    26 C    1.523    30 S    1.127    24 C    1.029
                            29 C    0.106
    26   6 C    3.984 --    25 C    1.523    28 C    1.256    27 C    1.030
    27   6 C    3.993 --    26 C    1.030    61 H    0.978    62 H    0.972
                            63 H    0.962
    28   6 C    3.986 --    29 C    1.622    26 C    1.256    64 H    0.963
    29   6 C    3.951 --    28 C    1.622    30 S    1.205    65 H    0.969
                            25 C    0.106
    30  16 S    2.646 --    29 C    1.205    25 C    1.127
    31   8 O    2.017 --    24 C    1.655    23 N    0.174
    32   6 C    3.974 --    23 N    1.000    36 N    0.981    66 H    0.915
                            33 C    0.911
    33   6 C    3.918 --    35 O    1.769    34 O    1.163    32 C    0.911
    34   8 O    2.238 --    33 C    1.163    67 H    0.854    35 O    0.181
    35   8 O    2.057 --    33 C    1.769    34 O    0.181
    36   7 N    3.446 --    37 C    1.187    32 C    0.981    11 C    0.958
                            44 O    0.180
    37   6 C    3.950 --    44 O    1.675    36 N    1.187    38 C    1.002
    38   6 C    3.935 --    39 C    1.550    43 S    1.126    37 C    1.002
                            42 C    0.114
    39   6 C    3.985 --    38 C    1.550    41 C    1.246    40 C    1.027
    40   6 C    3.993 --    39 C    1.027    70 H    0.982    69 H    0.972
                            68 H    0.961
    41   6 C    3.986 --    42 C    1.633    39 C    1.246    71 H    0.963
    42   6 C    3.948 --    41 C    1.633    43 S    1.185    72 H    0.969
                            38 C    0.114
    43  16 S    2.617 --    42 C    1.185    38 C    1.126
    44   8 O    2.021 --    37 C    1.675    36 N    0.180
    45   1 H    0.998 --     1 C    0.968
    46   1 H    0.998 --     2 C    0.971
    47   1 H    0.999 --     3 C    0.970
    48   1 H    0.999 --     4 C    0.962
    49   1 H    0.998 --     7 C    0.968
    50   1 H    0.998 --     8 C    0.970
    51   1 H    0.998 --     9 C    0.967
    52   1 H    0.995 --    11 C    0.947
    53   1 H    0.993 --    12 C    0.946
    54   1 H    0.999 --    14 C    0.960
    55   1 H    0.998 --    15 C    0.971
    56   1 H    0.998 --    16 C    0.968
    57   1 H    0.995 --    19 C    0.953
    58   1 H    0.998 --    20 C    0.971
    59   1 H    0.998 --    21 C    0.971
    60   1 H    0.998 --    22 C    0.968
    61   1 H    0.995 --    27 C    0.978
    62   1 H    0.997 --    27 C    0.972
    63   1 H    0.996 --    27 C    0.962
    64   1 H    0.997 --    28 C    0.963
    65   1 H    0.996 --    29 C    0.969
    66   1 H    0.993 --    32 C    0.915
    67   1 H    0.880 --    34 O    0.854
    68   1 H    0.996 --    40 C    0.961
    69   1 H    0.995 --    40 C    0.972
    70   1 H    0.998 --    40 C    0.982
    71   1 H    0.998 --    41 C    0.963
    72   1 H    0.997 --    42 C    0.969
 ---------------------------------------------------------------------------

molecular dipole:
                 x           y           z       tot (Debye)
 q only:       -1.037       0.774      -0.099
   full:       -0.995       1.294      -0.245       4.196

           -------------------------------------------------
          | TOTAL ENERGY             -120.019011895529 Eh   |
          | GRADIENT NORM               0.000826176704 Eh/Î± |
          | HOMO-LUMO GAP               2.756429822969 eV   |
           -------------------------------------------------

 * finished run on 2022/03/16 at 23:32:27.222
