   * xtb version 6.3.3 (4ae9cef) compiled by 'conda@95abc7406d43' on 2020-10-14
          program call               : xtb acid_158.xyz --opt --chrg 0 --uhf 0 --gfn 2
          number of atoms            :                    84
          number of electrons        :                   254
          charge                     :                     0
          spin                       :                   0.0

   ID    Z sym.   atoms
    1    6 C      1-22, 24-33, 36, 37, 41-50
    2    7 N      23, 40
    3    8 O      34, 35, 38, 39, 51, 52
    4    1 H      53-84

          :  Hamiltonian                  GFN2-xTB          :
 * total energy  :  -140.8386126 Eh     change       -0.3144720E-08 Eh
 * total energy  :  -140.8600302 Eh     change       -0.2141767E-01 Eh
 * total energy  :  -140.8668288 Eh     change       -0.6798542E-02 Eh
 * total energy  :  -140.8692595 Eh     change       -0.2430748E-02 Eh
 * total energy  :  -140.8708210 Eh     change       -0.1561463E-02 Eh
 * total energy  :  -140.8716345 Eh     change       -0.8135238E-03 Eh
 * total energy  :  -140.8722667 Eh     change       -0.6321999E-03 Eh
 * total energy  :  -140.8728728 Eh     change       -0.6060997E-03 Eh
 * total energy  :  -140.8732845 Eh     change       -0.4117324E-03 Eh
 * total energy  :  -140.8736782 Eh     change       -0.3936587E-03 Eh
 * total energy  :  -140.8914980 Eh     change       -0.1491560E-04 Eh
 * total energy  :  -140.8915121 Eh     change       -0.1400902E-04 Eh
 * total energy  :  -140.8915249 Eh     change       -0.1286711E-04 Eh
 * total energy  :  -140.8915365 Eh     change       -0.1154240E-04 Eh
 * total energy  :  -140.8915464 Eh     change       -0.9949212E-05 Eh
 * total energy  :  -140.8915549 Eh     change       -0.8522978E-05 Eh
 * total energy  :  -140.8915624 Eh     change       -0.7477051E-05 Eh
 * total energy  :  -140.8915685 Eh     change       -0.6120634E-05 Eh
 * total energy  :  -140.8915712 Eh     change       -0.2620681E-05 Eh
   *** GEOMETRY OPTIMIZATION CONVERGED AFTER 94 ITERATIONS ***

 final structure:
================
84
 xtb: 6.3.3 (4ae9cef)
C        -4.20539531964566    3.27281404063087   -0.10706327171154
C        -4.01815398457099    3.54655147651643   -1.43108857550433
C        -2.98534638645737    2.91040691473160   -2.13352685437696
C        -2.16806115755506    2.01025361905904   -1.50946519316421
C        -2.32828197069238    1.70439901108058   -0.14010750730055
C        -3.36888315262961    2.36242179997616    0.57178498180384
C        -3.54915202086031    2.10569143877232    1.94620777858126
C        -2.71491928422949    1.25257901439774    2.60850903861640
C        -1.69058440387131    0.59715827726496    1.91415578620460
C        -1.50788582474527    0.78250531379049    0.56603403674636
C        -0.41390239847254    0.01745815927249   -0.13689697013086
C         0.95745655770610    0.69773867361292    0.09478538552692
C         1.34704257429282    1.51534441492059   -1.11417531240930
C         1.98658197878324    0.90098749754281   -2.16132840223975
C         2.30611932396017    1.60626958245429   -3.32849867303167
C         1.94921346735461    2.91743460019969   -3.45648071921421
C         1.26456597593272    3.57883443715131   -2.41638545309599
C         0.96584238893497    2.88153381084722   -1.21254966769897
C         0.27981093916545    3.58705722392036   -0.19870840983334
C        -0.10860201163821    4.88561845648570   -0.37328031574483
C         0.17551364636566    5.56248276652686   -1.56701168869722
C         0.85669867981717    4.92164384556822   -2.56125102726152
N         1.86278019632366   -0.40274351718199    0.38260202400123
C         3.19255116106037   -0.14933967172119    0.54678234563686
C         4.08102509810214   -1.29579496118077    0.76885099650941
C         5.43823508680710   -1.34574149395773    0.58590936514403
C         6.35370268525438   -0.25505794892974    0.17098525047931
C         5.81668901444928   -2.69970958472475    0.86127968753185
C         7.02152017954320   -3.40103039055442    0.84845173445083
C         6.99755831211183   -4.73842914944129    1.17580841389241
C         5.80580156498730   -5.38505026645840    1.51238196216115
C         4.60026337957136   -4.71332018459002    1.53505903770012
C         4.62698037717885   -3.36802105349401    1.20401754774560
O         3.57838993457038   -2.51607826376717    1.15562470644167
O         3.61411059375550    0.99311922654896    0.48417457190661
C         1.18335727243845   -1.65478742564571    0.52581588586882
C         1.65380810774429   -2.69589704505477   -0.54089187086593
O         1.23389962227837   -3.92339460252310   -0.32208692217559
O         2.32991823437023   -2.37689771994945   -1.47661652869255
N        -0.22508828258803   -1.33723566303025    0.35791902450920
C        -1.14972248978575   -2.24335954175481    0.73260341366538
C        -2.56284809162686   -1.89346331186404    0.57241716953078
C        -3.60423875111695   -2.17307039744726    1.41538963755847
C        -3.57696754297004   -2.95454950534660    2.67625920168622
C        -4.73794582005889   -1.50622819438644    0.84912243589285
C        -4.27242610973020   -0.89454251050857   -0.33070066711716
C        -5.09893140903892   -0.13712323180845   -1.14571154141571
C        -6.41094463881076    0.00606128371058   -0.74383514199528
C        -6.88952454766222   -0.59349259812976    0.42381867912660
C        -6.07047582512457   -1.35338469312053    1.22828371328481
O        -2.95625964416723   -1.14132812148255   -0.50045474837413
O        -0.80263460160330   -3.32249378067204    1.22500637502449
H        -4.99506403543368    3.75665666494130    0.44950097233676
H        -4.65778103719334    4.24998029458214   -1.94299229953173
H        -2.83493785431392    3.13663036900820   -3.17871690919629
H        -1.38035592527631    1.54726596527223   -2.08162379251407
H        -4.35334922907642    2.60547210728567    2.46585897584183
H        -2.83813778252748    1.06808462774451    3.66508560678812
H        -1.04712756416504   -0.08207636410333    2.45616732097072
H        -0.61546503694104   -0.04481161845082   -1.21158063420850
H         0.92460261984124    1.33995280368549    0.98317828559762
H         2.25996703228547   -0.14149811120082   -2.09255529893413
H         2.82705986436165    1.09543125353287   -4.12420878408604
H         2.17840505298888    3.46814080540706   -4.35768666528278
H         0.04523518239405    3.10386965420930    0.73658367886385
H        -0.64001632823164    5.39830868634990    0.41519406245376
H        -0.14039006689815    6.58819509148149   -1.68808011816957
H         1.09313843272481    5.43293469130125   -3.48379468296499
H         6.89658297115395   -0.54921612458493   -0.72637777618475
H         5.78983860169006    0.65225423563934   -0.02089072380662
H         7.08221563999143   -0.06288448130869    0.95816355762018
H         7.94262179481916   -2.90384616532458    0.58654337296157
H         7.91605241338620   -5.30623822280464    1.17130300574013
H         5.82924722042244   -6.43610428006708    1.75731991785481
H         3.67508521899680   -5.20660448189040    1.78578474330841
H         1.33269772248084   -2.09848411034861    1.52569653324710
H         0.55370839341183   -3.95755667030749    0.40310269358516
H        -3.82602986339567   -2.31145663062081    3.52014251983346
H        -2.59439445324808   -3.39058900104709    2.82812684750862
H        -4.31522066922264   -3.75371171342329    2.63340712125100
H        -4.72009464205765    0.32813785752099   -2.04090118717241
H        -7.08445850663862    0.59853394365188   -1.34396187786263
H        -7.92484213867379   -0.45375579765256    0.69641094286050
H        -6.44105471068808   -1.81581133476390    2.12992686615349

          :  Hamiltonian                  GFN2-xTB          :
         :: total energy            -140.891571157031 Eh    ::
         :: gradient norm              0.000232600709 Eh/a0 ::
         :: HOMO-LUMO gap              2.490160878456 eV    ::
         :: SCC energy              -143.096381607267 Eh    ::
         :: -> dispersion             -0.133972869495 Eh    ::
         :: repulsion energy           2.200652028480 Eh    ::

    * Orbital Energies and Occupations

         #    Occupation            Energy/Eh            Energy/eV
      -------------------------------------------------------------
         1        2.0000           -0.7537744             -20.5112
       ...           ...                  ...                  ...
       115        2.0000           -0.4214952             -11.4695
       116        2.0000           -0.4161489             -11.3240
       117        2.0000           -0.4142421             -11.2721
       118        2.0000           -0.4127127             -11.2305
       119        2.0000           -0.4080296             -11.1031
       120        2.0000           -0.4005712             -10.9001
       121        2.0000           -0.3985431             -10.8449
       122        2.0000           -0.3977500             -10.8233
       123        2.0000           -0.3958200             -10.7708
       124        2.0000           -0.3914337             -10.6515
       125        2.0000           -0.3894102             -10.5964
       126        2.0000           -0.3815320             -10.3820
       127        2.0000           -0.3742269             -10.1832 (HOMO)
       128                         -0.2827152              -7.6931 (LUMO)
       129                         -0.2746836              -7.4745
       130                         -0.2662571              -7.2452
       131                         -0.2585280              -7.0349
       132                         -0.2422970              -6.5932
       133                         -0.2405717              -6.5463
       134                         -0.2353052              -6.4030
       135                         -0.2262061              -6.1554
       136                         -0.2237633              -6.0889
       137                         -0.2181989              -5.9375
       138                         -0.2054034              -5.5893
       ...                                ...                  ...
       240                          0.7187408              19.5579
      -------------------------------------------------------------
                  HL-Gap            0.0915117 Eh            2.4902 eV

     #   Z          covCN         q      C6AA      Î±(0)
     1   6 C        2.921    -0.034    28.842     8.807
     2   6 C        2.915    -0.028    28.694     8.784
     3   6 C        2.917    -0.027    28.678     8.782
     4   6 C        2.917    -0.032    28.790     8.799
     5   6 C        2.984     0.012    27.734     8.639
     6   6 C        2.989     0.014    27.682     8.631
     7   6 C        2.921    -0.037    28.909     8.817
     8   6 C        2.914    -0.031    28.782     8.797
     9   6 C        2.922    -0.039    28.959     8.825
    10   6 C        2.968    -0.001    28.038     8.685
    11   6 C        3.817     0.042    19.850     6.341
    12   6 C        3.826     0.050    19.711     6.317
    13   6 C        2.968     0.005    27.913     8.666
    14   6 C        2.921    -0.034    28.838     8.806
    15   6 C        2.915    -0.027    28.675     8.781
    16   6 C        2.920    -0.036    28.899     8.816
    17   6 C        2.989     0.015    27.659     8.627
    18   6 C        2.983     0.011    27.765     8.643
    19   6 C        2.917    -0.034    28.838     8.806
    20   6 C        2.917    -0.030    28.743     8.792
    21   6 C        2.915    -0.030    28.759     8.794
    22   6 C        2.921    -0.034    28.855     8.809
    23   7 N        2.758    -0.107    23.347     7.176
    24   6 C        2.760     0.266    22.509     7.769
    25   6 C        3.081     0.079    26.152     8.384
    26   6 C        3.025     0.005    27.888     8.662
    27   6 C        3.754    -0.113    22.727     6.798
    28   6 C        3.083    -0.018    28.374     8.732
    29   6 C        2.912    -0.031    28.784     8.798
    30   6 C        2.921    -0.037    28.917     8.818
    31   6 C        2.928    -0.031    28.763     8.795
    32   6 C        2.907    -0.050    29.238     8.866
    33   6 C        3.092     0.133    24.990     8.194
    34   8 O        1.718    -0.240    17.975     5.724
    35   8 O        0.860    -0.434    22.379     6.343
    36   6 C        3.758     0.082    19.266     6.258
    37   6 C        2.684     0.360    20.891     7.480
    38   8 O        1.655    -0.366    20.194     6.066
    39   8 O        0.856    -0.373    21.141     6.165
    40   7 N        2.759    -0.103    23.254     7.162
    41   6 C        2.762     0.262    22.591     7.784
    42   6 C        3.104     0.083    26.029     8.360
    43   6 C        3.024    -0.003    28.071     8.691
    44   6 C        3.754    -0.110    22.656     6.787
    45   6 C        3.091    -0.021    28.426     8.739
    46   6 C        3.105     0.130    25.036     8.199
    47   6 C        2.907    -0.049    29.221     8.864
    48   6 C        2.928    -0.030    28.756     8.794
    49   6 C        2.921    -0.037    28.911     8.817
    50   6 C        2.912    -0.032    28.804     8.801
    51   8 O        1.719    -0.220    17.641     5.671
    52   8 O        0.860    -0.477    23.285     6.470
    53   1 H        0.926     0.037     2.495     2.470
    54   1 H        0.926     0.037     2.494     2.470
    55   1 H        0.926     0.036     2.505     2.475
    56   1 H        0.926     0.032     2.552     2.498
    57   1 H        0.926     0.038     2.479     2.462
    58   1 H        0.926     0.036     2.501     2.473
    59   1 H        0.925     0.028     2.615     2.529
    60   1 H        0.924     0.062     2.178     2.308
    61   1 H        0.924     0.058     2.224     2.332
    62   1 H        0.926     0.058     2.219     2.329
    63   1 H        0.926     0.039     2.457     2.451
    64   1 H        0.926     0.035     2.516     2.481
    65   1 H        0.926     0.023     2.692     2.566
    66   1 H        0.926     0.028     2.612     2.527
    67   1 H        0.926     0.031     2.571     2.507
    68   1 H        0.926     0.034     2.530     2.487
    69   1 H        0.925     0.057     2.239     2.340
    70   1 H        0.925     0.079     1.989     2.206
    71   1 H        0.925     0.058     2.226     2.333
    72   1 H        0.926     0.043     2.404     2.425
    73   1 H        0.926     0.039     2.456     2.451
    74   1 H        0.926     0.043     2.409     2.427
    75   1 H        0.926     0.050     2.320     2.382
    76   1 H        0.923     0.073     2.055     2.242
    77   1 H        0.800     0.365     0.555     1.171
    78   1 H        0.925     0.055     2.259     2.351
    79   1 H        0.925     0.068     2.104     2.268
    80   1 H        0.925     0.062     2.178     2.308
    81   1 H        0.926     0.048     2.340     2.392
    82   1 H        0.926     0.045     2.385     2.415
    83   1 H        0.926     0.043     2.413     2.429
    84   1 H        0.926     0.045     2.382     2.414

Wiberg/Mayer (AO) data.
largest (>0.10) Wiberg bond orders for each atom

     #   Z sym  total        # sym  WBO       # sym  WBO       # sym  WBO
 ---------------------------------------------------------------------------
     1   6 C    3.991 --     2 C    1.557     6 C    1.279    53 H    0.968
                             4 C    0.119
     2   6 C    3.992 --     1 C    1.557     3 C    1.322    54 H    0.970
     3   6 C    3.991 --     4 C    1.554     2 C    1.322    55 H    0.971
     4   6 C    3.991 --     3 C    1.554     5 C    1.282    56 H    0.961
                             1 C    0.119
     5   6 C    3.988 --     4 C    1.282     6 C    1.254    10 C    1.250
     6   6 C    3.990 --     7 C    1.279     1 C    1.279     5 C    1.254
     7   6 C    3.990 --     8 C    1.552     6 C    1.279    57 H    0.968
                            10 C    0.114
     8   6 C    3.992 --     7 C    1.552     9 C    1.326    58 H    0.970
     9   6 C    3.990 --    10 C    1.521     8 C    1.326    59 H    0.968
    10   6 C    3.984 --     9 C    1.521     5 C    1.250    11 C    0.991
                             7 C    0.114
    11   6 C    3.959 --    10 C    0.991    40 N    0.959    12 C    0.946
                            60 H    0.945
    12   6 C    3.962 --    13 C    0.987    23 N    0.963    61 H    0.947
                            11 C    0.946
    13   6 C    3.983 --    14 C    1.526    18 C    1.252    12 C    0.987
                            16 C    0.114
    14   6 C    3.988 --    13 C    1.526    15 C    1.325    62 H    0.961
    15   6 C    3.992 --    16 C    1.554    14 C    1.325    63 H    0.970
    16   6 C    3.990 --    15 C    1.554    17 C    1.279    64 H    0.968
                            13 C    0.114
    17   6 C    3.990 --    22 C    1.280    16 C    1.279    18 C    1.252
    18   6 C    3.988 --    19 C    1.282    17 C    1.252    13 C    1.252
    19   6 C    3.992 --    20 C    1.554    18 C    1.282    65 H    0.962
                            22 C    0.118
    20   6 C    3.992 --    19 C    1.554    21 C    1.322    66 H    0.971
    21   6 C    3.992 --    22 C    1.557    20 C    1.322    67 H    0.971
    22   6 C    3.991 --    21 C    1.557    17 C    1.280    68 H    0.968
                            19 C    0.118
    23   7 N    3.459 --    24 C    1.188    36 C    1.003    12 C    0.963
                            35 O    0.182
    24   6 C    3.955 --    35 O    1.639    23 N    1.188    25 C    1.033
    25   6 C    3.903 --    26 C    1.550    34 O    1.044    24 C    1.033
    26   6 C    3.984 --    25 C    1.550    28 C    1.186    27 C    1.041
    27   6 C    3.991 --    26 C    1.041    70 H    0.975    69 H    0.967
                            71 H    0.964
    28   6 C    3.985 --    29 C    1.330    33 C    1.274    26 C    1.186
    29   6 C    3.984 --    30 C    1.503    28 C    1.330    72 H    0.969
                            32 C    0.115
    30   6 C    3.990 --    29 C    1.503    31 C    1.380    73 H    0.971
    31   6 C    3.980 --    32 C    1.482    30 C    1.380    74 H    0.971
    32   6 C    3.987 --    31 C    1.482    33 C    1.354    75 H    0.967
                            29 C    0.115
    33   6 C    3.918 --    32 C    1.354    28 C    1.274    34 O    1.078
    34   8 O    2.367 --    33 C    1.078    25 C    1.044
    35   8 O    1.987 --    24 C    1.639    23 N    0.182
    36   6 C    3.956 --    23 N    1.003    40 N    0.967    76 H    0.936
                            37 C    0.885
    37   6 C    3.927 --    39 O    1.771    38 O    1.202    36 C    0.885
    38   8 O    2.236 --    37 C    1.202    77 H    0.777    39 O    0.178
    39   8 O    2.076 --    37 C    1.771    38 O    0.178
    40   7 N    3.503 --    41 C    1.262    36 C    0.967    11 C    0.959
                            52 O    0.182
    41   6 C    3.953 --    52 O    1.549    40 N    1.262    42 C    1.029
    42   6 C    3.907 --    43 C    1.548    51 O    1.058    41 C    1.029
    43   6 C    3.980 --    42 C    1.548    45 C    1.186    44 C    1.040
    44   6 C    3.992 --    43 C    1.040    79 H    0.979    80 H    0.967
                            78 H    0.966
    45   6 C    3.984 --    50 C    1.329    46 C    1.273    43 C    1.186
    46   6 C    3.920 --    47 C    1.351    45 C    1.273    51 O    1.086
    47   6 C    3.988 --    48 C    1.484    46 C    1.351    81 H    0.967
                            50 C    0.115
    48   6 C    3.981 --    47 C    1.484    49 C    1.379    82 H    0.971
    49   6 C    3.990 --    50 C    1.503    48 C    1.379    83 H    0.970
    50   6 C    3.985 --    49 C    1.503    45 C    1.329    84 H    0.968
                            47 C    0.115
    51   8 O    2.382 --    46 C    1.086    42 C    1.058
    52   8 O    1.965 --    41 C    1.549    40 N    0.182
    53   1 H    0.998 --     1 C    0.968
    54   1 H    0.998 --     2 C    0.970
    55   1 H    0.998 --     3 C    0.971
    56   1 H    0.998 --     4 C    0.961
    57   1 H    0.998 --     7 C    0.968
    58   1 H    0.998 --     8 C    0.970
    59   1 H    0.999 --     9 C    0.968
    60   1 H    0.995 --    11 C    0.945
    61   1 H    0.996 --    12 C    0.947
    62   1 H    0.996 --    14 C    0.961
    63   1 H    0.997 --    15 C    0.970
    64   1 H    0.998 --    16 C    0.968
    65   1 H    0.999 --    19 C    0.962
    66   1 H    0.999 --    20 C    0.971
    67   1 H    0.998 --    21 C    0.971
    68   1 H    0.998 --    22 C    0.968
    69   1 H    0.997 --    27 C    0.967
    70   1 H    0.993 --    27 C    0.975
    71   1 H    0.996 --    27 C    0.964
    72   1 H    0.998 --    29 C    0.969
    73   1 H    0.998 --    30 C    0.971
    74   1 H    0.998 --    31 C    0.971
    75   1 H    0.997 --    32 C    0.967
    76   1 H    0.994 --    36 C    0.936
    77   1 H    0.867 --    38 O    0.777
    78   1 H    0.997 --    44 C    0.966
    79   1 H    0.995 --    44 C    0.979
    80   1 H    0.996 --    44 C    0.967
    81   1 H    0.997 --    47 C    0.967
    82   1 H    0.998 --    48 C    0.971
    83   1 H    0.998 --    49 C    0.970
    84   1 H    0.998 --    50 C    0.968
 ---------------------------------------------------------------------------

molecular dipole:
                 x           y           z       tot (Debye)
 q only:       -1.821       0.723       0.600
   full:       -2.096       0.618       0.887       5.995

           -------------------------------------------------
          | TOTAL ENERGY             -140.891571157031 Eh   |
          | GRADIENT NORM               0.000232600709 Eh/Î± |
          | HOMO-LUMO GAP               2.490160878456 eV   |
           -------------------------------------------------

 * finished run on 2022/03/16 at 21:57:01.568
