   * xtb version 6.3.3 (4ae9cef) compiled by 'conda@95abc7406d43' on 2020-10-14
          program call               : xtb acid_470.xyz --opt --chrg 0 --uhf 0 --gfn 2
          number of atoms            :                    72
          number of electrons        :                   254
          charge                     :                     0
          spin                       :                   0.0

   ID    Z sym.   atoms
    1    6 C      1, 2, 6-15, 19-22, 24-26, 28-33, 35, 36, 40-42, 44-49
    2    9 F      3-5, 16-18
    3    7 N      23, 39
    4    8 O      27, 34, 37, 38, 43, 50
    5    1 H      51-72

          :  Hamiltonian                  GFN2-xTB          :
 * total energy  :  -147.0051706 Eh     change       -0.3548735E-08 Eh
 * total energy  :  -147.0229206 Eh     change       -0.1775000E-01 Eh
 * total energy  :  -147.0277048 Eh     change       -0.4784239E-02 Eh
 * total energy  :  -147.0292671 Eh     change       -0.1562276E-02 Eh
 * total energy  :  -147.0304109 Eh     change       -0.1143794E-02 Eh
 * total energy  :  -147.0310553 Eh     change       -0.6443788E-03 Eh
 * total energy  :  -147.0316170 Eh     change       -0.5617044E-03 Eh
 * total energy  :  -147.0322854 Eh     change       -0.6683915E-03 Eh
 * total energy  :  -147.0330260 Eh     change       -0.7406354E-03 Eh
 * total energy  :  -147.0336925 Eh     change       -0.6665140E-03 Eh
 * total energy  :  -147.0372197 Eh     change       -0.1612914E-04 Eh
 * total energy  :  -147.0372320 Eh     change       -0.1230791E-04 Eh
 * total energy  :  -147.0372377 Eh     change       -0.5611220E-05 Eh
 * total energy  :  -147.0372441 Eh     change       -0.6481817E-05 Eh
 * total energy  :  -147.0372493 Eh     change       -0.5194265E-05 Eh
 * total energy  :  -147.0372560 Eh     change       -0.6657599E-05 Eh
 * total energy  :  -147.0372646 Eh     change       -0.8597638E-05 Eh
 * total energy  :  -147.0372718 Eh     change       -0.7181168E-05 Eh
 * total energy  :  -147.0372766 Eh     change       -0.4817940E-05 Eh
   *** GEOMETRY OPTIMIZATION CONVERGED AFTER 50 ITERATIONS ***

 final structure:
================
72
 xtb: 6.3.3 (4ae9cef)
C         1.98082007175767   -3.84512748905202   -0.08122353059055
C         1.73169964855356   -4.10209071505845   -1.54012715445192
F         0.40975326891006   -4.15802399942087   -1.83574594884404
F         2.24344008684878   -5.26126553523452   -1.96811867119463
F         2.23526411057245   -3.15588749103329   -2.35497049693229
C         2.69592445996697   -4.78781533588119    0.64699520746089
C         2.91973079831349   -4.59958273818337    1.99709772060106
C         2.42194008683289   -3.47197300800929    2.62601586653256
C         1.70869840811932   -2.53420137455501    1.90494651067326
C         1.48567728647472   -2.70034278213001    0.54277321988016
C         0.68758258846063   -1.65210249210112   -0.19073330510111
C        -0.78439697896850   -1.62476522228405    0.27017115842837
C        -1.70505363577820   -2.32773885088884   -0.69383742776956
C        -2.32030266783870   -3.54659108314902   -0.41012650675999
C        -2.08276146489257   -4.25289730249500    0.89631030340262
F        -2.46510424139875   -3.54940321708577    1.97400583006028
F        -2.72292684611771   -5.42634964721362    0.97877700430174
F        -0.77516971629817   -4.53946892405576    1.09305511494682
C        -3.15274529046123   -4.14732365016581   -1.34626566104177
C        -3.37797046632002   -3.54496861352896   -2.56909150399271
C        -2.76473769613996   -2.34050073379696   -2.86424440475716
C        -1.93622316487698   -1.74454063100800   -1.93394168025992
N        -1.09786255921399   -0.19973383243337    0.33035500021378
C        -2.35976213241185    0.19462645854287    0.67961988801742
C        -2.52048713360851    1.65285419313405    0.88404242174876
C        -3.01438701547566    2.24185342227100    2.00731357602000
O        -3.03662710677110    3.58345918919272    1.92156672469031
C        -2.57085432740343    3.90397082750069    0.69321375610112
C        -2.23590691600609    2.73348580173308   -0.02079737767189
C        -1.78834996845165    2.83488538781736   -1.33829918997114
C        -1.64849153981628    4.09297639014367   -1.88226352760536
C        -1.94509435066146    5.24296384481245   -1.14786325958797
C        -2.41976750693028    5.16952999361696    0.14591202328937
O        -3.26732772247623   -0.59665945694459    0.79252923453146
C         0.09255894362205    0.61382223408336    0.40411941770141
C         0.26815450368938    1.19769259235831    1.83407327017629
O         0.20700996369687    2.52658474590392    1.94641636979759
O         0.42492793961064    0.48924216597605    2.78313931041019
N         1.16391660843238   -0.30489226409059    0.10646927583421
C         2.49170816242783   -0.01038185665752    0.19530427817934
C         2.76784332697643    1.39798257115671    0.57662725076083
C         3.40783425757627    1.81305668611134    1.70337016849684
O         3.51195385900321    3.15194017295148    1.77603749715342
C         2.94746990994423    3.64898226362968    0.65273747175758
C         2.46730570945095    2.59733962751808   -0.15618407476888
C         1.88491188068188    2.88501812665910   -1.39057523851285
C         1.76795122936247    4.20736089498574   -1.75992652741632
C         2.21713504829291    5.23860108867124   -0.93254488131985
C         2.82132353598621    4.97919451046211    0.28099146380842
O         3.35789493117465   -0.82643552033111   -0.01709097467862
H         3.07490686853534   -5.66820085192627    0.15209687075171
H         3.47863090424388   -5.33485049802568    2.55453690931861
H         2.58609095546057   -3.32054338017957    3.68181057615723
H         1.32733267417487   -1.65417369163483    2.40219353625226
H         0.73594149614448   -1.79911429642769   -1.27485407455913
H        -0.86860741535699   -2.04334576023573    1.27821193319315
H        -3.62374956440389   -5.08931019514119   -1.11326905972826
H        -4.02794708963320   -4.01802760720289   -3.28822193818871
H        -2.93041183820966   -1.86587033403273   -3.81945953036397
H        -1.45981556381720   -0.80338075627009   -2.16579141011232
H        -3.35127701947149    1.80098018905480    2.92508633212113
H        -1.58966789544749    1.94992830066965   -1.92390416039302
H        -1.31591208818675    4.19552403452494   -2.90363769339163
H        -1.81803174929186    6.20880465820060   -1.61096996532847
H        -2.67833007898599    6.04951853661507    0.71121979082328
H         0.05105606690581    1.43101396767237   -0.33632850022570
H         0.08397458577274    2.99597880033276    1.10738804096163
H         3.80224957003738    1.24438666546158    2.52268760701239
H         1.56616783003679    2.09061648118310   -2.04864194076854
H         1.33196463003324    4.45629855531065   -2.71469198387917
H         2.10423085078471    6.26013846918637   -1.26009916053673
H         3.19307969425927    5.76727329041776    0.91462682912739

          :  Hamiltonian                  GFN2-xTB          :
         :: total energy            -147.037276586786 Eh    ::
         :: gradient norm              0.000464681977 Eh/a0 ::
         :: HOMO-LUMO gap              3.445105123875 eV    ::
         :: SCC energy              -148.827200386364 Eh    ::
         :: -> dispersion             -0.114188257695 Eh    ::
         :: repulsion energy           1.785100769202 Eh    ::

    * Orbital Energies and Occupations

         #    Occupation            Energy/Eh            Energy/eV
      -------------------------------------------------------------
         1        2.0000           -0.8748767             -23.8066
       ...           ...                  ...                  ...
       115        2.0000           -0.4449675             -12.1082
       116        2.0000           -0.4397314             -11.9657
       117        2.0000           -0.4368021             -11.8860
       118        2.0000           -0.4346091             -11.8263
       119        2.0000           -0.4342471             -11.8165
       120        2.0000           -0.4305524             -11.7159
       121        2.0000           -0.4297103             -11.6930
       122        2.0000           -0.4281480             -11.6505
       123        2.0000           -0.4192942             -11.4096
       124        2.0000           -0.4184083             -11.3855
       125        2.0000           -0.4158572             -11.3161
       126        2.0000           -0.4120388             -11.2121
       127        2.0000           -0.4107669             -11.1775 (HOMO)
       128                         -0.2841616              -7.7324 (LUMO)
       129                         -0.2813953              -7.6572
       130                         -0.2752306              -7.4894
       131                         -0.2644663              -7.1965
       132                         -0.2580798              -7.0227
       133                         -0.2541897              -6.9169
       134                         -0.2518275              -6.8526
       135                         -0.2478995              -6.7457
       136                         -0.2464499              -6.7062
       137                         -0.2443361              -6.6487
       138                         -0.2409029              -6.5553
       ...                                ...                  ...
       222                          0.6817419              18.5511
      -------------------------------------------------------------
                  HL-Gap            0.1266053 Eh            3.4451 eV

     #   Z          covCN         q      C6AA      Î±(0)
     1   6 C        2.976    -0.023    28.584     8.770
     2   6 C        3.336     0.485    17.302     6.588
     3   9 F        0.791    -0.226    11.504     4.007
     4   9 F        0.792    -0.199    11.222     3.957
     5   9 F        0.791    -0.208    11.313     3.973
     6   6 C        2.923    -0.019    28.471     8.750
     7   6 C        2.920    -0.020    28.500     8.754
     8   6 C        2.919    -0.014    28.371     8.735
     9   6 C        2.926    -0.026    28.641     8.776
    10   6 C        2.973     0.024    27.455     8.595
    11   6 C        3.819     0.047    19.764     6.327
    12   6 C        3.825     0.048    19.755     6.325
    13   6 C        2.972     0.026    27.426     8.590
    14   6 C        2.976    -0.020    28.506     8.758
    15   6 C        3.335     0.486    17.293     6.587
    16   9 F        0.791    -0.201    11.248     3.962
    17   9 F        0.792    -0.200    11.234     3.959
    18   9 F        0.791    -0.222    11.466     4.000
    19   6 C        2.923    -0.017    28.445     8.746
    20   6 C        2.921    -0.020    28.505     8.755
    21   6 C        2.919    -0.017    28.424     8.743
    22   6 C        2.928    -0.023    28.572     8.766
    23   7 N        2.765    -0.119    23.593     7.214
    24   6 C        2.759     0.274    22.373     7.746
    25   6 C        3.036    -0.065    29.582     8.921
    26   6 C        3.062     0.096    25.821     8.333
    27   8 O        1.721    -0.176    16.962     5.561
    28   6 C        3.123     0.121    25.177     8.217
    29   6 C        3.088    -0.026    28.543     8.757
    30   6 C        2.911    -0.044    29.096     8.845
    31   6 C        2.921    -0.037    28.923     8.819
    32   6 C        2.926    -0.034    28.849     8.808
    33   6 C        2.908    -0.049    29.213     8.863
    34   8 O        0.859    -0.402    21.724     6.249
    35   6 C        3.747     0.076    19.379     6.279
    36   6 C        2.686     0.345    21.145     7.525
    37   8 O        1.659    -0.358    20.046     6.044
    38   8 O        0.856    -0.343    20.570     6.081
    39   7 N        2.766    -0.115    23.498     7.200
    40   6 C        2.757     0.275    22.346     7.741
    41   6 C        3.037    -0.065    29.586     8.922
    42   6 C        3.063     0.095    25.833     8.335
    43   8 O        1.721    -0.176    16.953     5.559
    44   6 C        3.123     0.123    25.130     8.209
    45   6 C        3.090    -0.024    28.484     8.748
    46   6 C        2.911    -0.045    29.114     8.848
    47   6 C        2.921    -0.039    28.963     8.825
    48   6 C        2.926    -0.035    28.870     8.811
    49   6 C        2.908    -0.048    29.202     8.861
    50   8 O        0.859    -0.403    21.737     6.251
    51   1 H        0.926     0.068     2.111     2.272
    52   1 H        0.926     0.058     2.220     2.330
    53   1 H        0.926     0.059     2.210     2.325
    54   1 H        0.926     0.069     2.097     2.264
    55   1 H        0.924     0.066     2.128     2.281
    56   1 H        0.924     0.072     2.060     2.244
    57   1 H        0.926     0.071     2.074     2.252
    58   1 H        0.926     0.060     2.203     2.321
    59   1 H        0.926     0.056     2.246     2.344
    60   1 H        0.926     0.044     2.392     2.419
    61   1 H        0.926     0.076     2.020     2.223
    62   1 H        0.926     0.036     2.499     2.472
    63   1 H        0.926     0.046     2.369     2.407
    64   1 H        0.926     0.050     2.318     2.381
    65   1 H        0.926     0.059     2.207     2.323
    66   1 H        0.923     0.052     2.294     2.369
    67   1 H        0.804     0.328     0.642     1.258
    68   1 H        0.926     0.073     2.048     2.238
    69   1 H        0.926     0.038     2.481     2.463
    70   1 H        0.926     0.045     2.383     2.414
    71   1 H        0.926     0.049     2.333     2.388
    72   1 H        0.926     0.059     2.211     2.325

Wiberg/Mayer (AO) data.
largest (>0.10) Wiberg bond orders for each atom

     #   Z sym  total        # sym  WBO       # sym  WBO       # sym  WBO
 ---------------------------------------------------------------------------
     1   6 C    3.969 --     6 C    1.411    10 C    1.386     2 C    0.953
                             8 C    0.105
     2   6 C    3.819 --     4 F    0.959     1 C    0.953     5 F    0.942
                             3 F    0.926
     3   9 F    1.053 --     2 C    0.926
     4   9 F    1.081 --     2 C    0.959
     5   9 F    1.072 --     2 C    0.942
     6   6 C    3.987 --     7 C    1.444     1 C    1.411    51 H    0.966
                             9 C    0.109
     7   6 C    3.989 --     6 C    1.444     8 C    1.433    52 H    0.969
                            10 C    0.108
     8   6 C    3.990 --     9 C    1.448     7 C    1.433    53 H    0.969
                             1 C    0.105
     9   6 C    3.987 --     8 C    1.448    10 C    1.409    54 H    0.960
                             6 C    0.109
    10   6 C    3.986 --     9 C    1.409     1 C    1.386    11 C    0.993
                             7 C    0.108
    11   6 C    3.965 --    10 C    0.993    39 N    0.954    12 C    0.953
                            55 H    0.952
    12   6 C    3.964 --    13 C    0.994    23 N    0.954    11 C    0.953
                            56 H    0.951
    13   6 C    3.986 --    22 C    1.409    14 C    1.387    12 C    0.994
                            20 C    0.109
    14   6 C    3.972 --    19 C    1.414    13 C    1.387    15 C    0.951
                            21 C    0.105
    15   6 C    3.823 --    17 F    0.956    14 C    0.951    16 F    0.949
                            18 F    0.929
    16   9 F    1.079 --    15 C    0.949
    17   9 F    1.078 --    15 C    0.956
    18   9 F    1.057 --    15 C    0.929
    19   6 C    3.986 --    20 C    1.443    14 C    1.414    57 H    0.965
                            22 C    0.109
    20   6 C    3.988 --    19 C    1.443    21 C    1.433    58 H    0.969
                            13 C    0.109
    21   6 C    3.990 --    22 C    1.449    20 C    1.433    59 H    0.969
                            14 C    0.105
    22   6 C    3.990 --    21 C    1.449    13 C    1.409    60 H    0.967
                            19 C    0.109
    23   7 N    3.442 --    24 C    1.180    35 C    0.986    12 C    0.954
                            34 O    0.187
    24   6 C    3.949 --    34 O    1.708    23 N    1.180    25 C    0.982
    25   6 C    3.975 --    26 C    1.606    29 C    1.166    24 C    0.982
    26   6 C    3.920 --    25 C    1.606    27 O    1.135    61 H    0.963
    27   8 O    2.435 --    26 C    1.135    28 C    1.085
    28   6 C    3.920 --    33 C    1.352    29 C    1.274    27 O    1.085
    29   6 C    3.983 --    30 C    1.331    28 C    1.274    25 C    1.166
    30   6 C    3.991 --    31 C    1.497    29 C    1.331    62 H    0.966
                            33 C    0.115
    31   6 C    3.990 --    30 C    1.497    32 C    1.382    63 H    0.969
    32   6 C    3.989 --    33 C    1.484    31 C    1.382    64 H    0.970
    33   6 C    3.987 --    32 C    1.484    28 C    1.352    65 H    0.966
                            30 C    0.115
    34   8 O    2.042 --    24 C    1.708    23 N    0.187
    35   6 C    3.970 --    39 N    0.989    23 N    0.986    66 H    0.934
                            36 C    0.897
    36   6 C    3.922 --    38 O    1.803    37 O    1.142    35 C    0.897
    37   8 O    2.225 --    36 C    1.142    67 H    0.857    38 O    0.169
    38   8 O    2.098 --    36 C    1.803    37 O    0.169
    39   7 N    3.454 --    40 C    1.192    35 C    0.989    11 C    0.954
                            50 O    0.192
    40   6 C    3.949 --    50 O    1.706    39 N    1.192    41 C    0.972
    41   6 C    3.975 --    42 C    1.606    45 C    1.167    40 C    0.972
    42   6 C    3.921 --    41 C    1.606    43 O    1.134    68 H    0.963
    43   8 O    2.435 --    42 C    1.134    44 C    1.086
    44   6 C    3.921 --    49 C    1.353    45 C    1.274    43 O    1.086
    45   6 C    3.983 --    46 C    1.332    44 C    1.274    41 C    1.167
    46   6 C    3.991 --    47 C    1.497    45 C    1.332    69 H    0.967
                            49 C    0.116
    47   6 C    3.990 --    46 C    1.497    48 C    1.383    70 H    0.969
    48   6 C    3.990 --    49 C    1.484    47 C    1.383    71 H    0.970
    49   6 C    3.987 --    48 C    1.484    44 C    1.353    72 H    0.966
                            46 C    0.116
    50   8 O    2.043 --    40 C    1.706    39 N    0.192
    51   1 H    0.995 --     6 C    0.966
    52   1 H    0.996 --     7 C    0.969
    53   1 H    0.996 --     8 C    0.969
    54   1 H    0.995 --     9 C    0.960
    55   1 H    0.995 --    11 C    0.952
    56   1 H    0.994 --    12 C    0.951
    57   1 H    0.995 --    19 C    0.965
    58   1 H    0.996 --    20 C    0.969
    59   1 H    0.996 --    21 C    0.969
    60   1 H    0.998 --    22 C    0.967
    61   1 H    0.993 --    26 C    0.963
    62   1 H    0.999 --    30 C    0.966
    63   1 H    0.997 --    31 C    0.969
    64   1 H    0.997 --    32 C    0.970
    65   1 H    0.996 --    33 C    0.966
    66   1 H    0.997 --    35 C    0.934
    67   1 H    0.892 --    37 O    0.857
    68   1 H    0.994 --    42 C    0.963
    69   1 H    0.999 --    46 C    0.967
    70   1 H    0.998 --    47 C    0.969
    71   1 H    0.997 --    48 C    0.970
    72   1 H    0.996 --    49 C    0.966
 ---------------------------------------------------------------------------

molecular dipole:
                 x           y           z       tot (Debye)
 q only:       -0.211       2.562      -1.077
   full:       -0.243       2.975      -1.180       8.158

           -------------------------------------------------
          | TOTAL ENERGY             -147.037276586786 Eh   |
          | GRADIENT NORM               0.000464681977 Eh/Î± |
          | HOMO-LUMO GAP               3.445105123875 eV   |
           -------------------------------------------------

 * finished run on 2022/03/17 at 01:35:03.058
