   * xtb version 6.3.3 (4ae9cef) compiled by 'conda@95abc7406d43' on 2020-10-14
          program call               : xtb acid_481.xyz --opt --chrg 0 --uhf 0 --gfn 2
          number of atoms            :                    66
          number of electrons        :                   218
          charge                     :                     0
          spin                       :                   0.0

   ID    Z sym.   atoms
    1    6 C      1-22, 24-28, 32, 33, 37-41
    2    7 N      23, 36
    3   17 Cl     29, 42
    4   16 S      30, 43
    5    8 O      31, 34, 35, 44
    6    1 H      45-66

          :  Hamiltonian                  GFN2-xTB          :
 * total energy  :  -121.7361349 Eh     change       -0.4824543E-08 Eh
 * total energy  :  -121.7534812 Eh     change       -0.1734627E-01 Eh
 * total energy  :  -121.7590017 Eh     change       -0.5520513E-02 Eh
 * total energy  :  -121.7601586 Eh     change       -0.1156934E-02 Eh
 * total energy  :  -121.7606569 Eh     change       -0.4982655E-03 Eh
 * total energy  :  -121.7608694 Eh     change       -0.2125563E-03 Eh
 * total energy  :  -121.7610707 Eh     change       -0.2012195E-03 Eh
 * total energy  :  -121.7612490 Eh     change       -0.1783118E-03 Eh
 * total energy  :  -121.7614126 Eh     change       -0.1635788E-03 Eh
 * total energy  :  -121.7615498 Eh     change       -0.1372695E-03 Eh
 * total energy  :  -121.7634726 Eh     change       -0.5321416E-04 Eh
 * total energy  :  -121.7635361 Eh     change       -0.6345128E-04 Eh
 * total energy  :  -121.7635688 Eh     change       -0.3268455E-04 Eh
 * total energy  :  -121.7636150 Eh     change       -0.4623265E-04 Eh
 * total energy  :  -121.7636377 Eh     change       -0.2272652E-04 Eh
 * total energy  :  -121.7636593 Eh     change       -0.2159159E-04 Eh
 * total energy  :  -121.7636713 Eh     change       -0.1196460E-04 Eh
 * total energy  :  -121.7636802 Eh     change       -0.8899618E-05 Eh
 * total energy  :  -121.7636849 Eh     change       -0.4727731E-05 Eh
   *** GEOMETRY OPTIMIZATION CONVERGED AFTER 70 ITERATIONS ***

 final structure:
================
66
 xtb: 6.3.3 (4ae9cef)
C        -3.24398298320826    1.30498759226660   -4.26943065027745
C        -3.08472297287732    0.08135776279737   -4.85285624556333
C        -2.39917570325862   -0.93057255415699   -4.16679829957173
C        -1.88627344330656   -0.70481254583261   -2.92039229085050
C        -2.02429651282819    0.54972714197842   -2.28520077311302
C        -2.72210496050716    1.57301952422467   -2.98618133342698
C        -2.87445681359733    2.84603246822650   -2.40008044835745
C        -2.34086671742559    3.11382958127252   -1.17276188500509
C        -1.63905985608451    2.11860977537458   -0.48204815432154
C        -1.48930633559409    0.85837832966170   -1.00503697427368
C        -0.70077436086337   -0.16267014350424   -0.22034453494285
C         0.82025122262919    0.06397262633755   -0.32856732504632
C         1.49982233992475   -1.09361006235118   -1.02087245144035
C         1.96530498667356   -2.14962845689084   -0.27973081156965
C         2.55081972976457   -3.26711165519324   -0.88827886957035
C         2.64730735954020   -3.33107016776158   -2.24811204479086
C         2.17132768900735   -2.27420043241972   -3.05105515921269
C         1.59633753756508   -1.12631191700662   -2.43820674375370
C         1.13942469657745   -0.08589035992636   -3.27730652984493
C         1.22589173807011   -0.18536470779546   -4.63774189997172
C         1.77926206526863   -1.32499187674118   -5.23791557970761
C         2.24836750869227   -2.34287570961488   -4.45813056471775
N         1.27480979312627    0.22401823482958    1.04694424560676
C         2.45939561824356    0.87309044857404    1.24821615340180
C         2.87409521454291    1.03718256458721    2.65617480836053
C         2.89532580930982    0.12599968588235    3.67548776874083
C         3.48334140060035    0.62219327595819    4.85304164402293
C         3.91197959402581    1.90882841277358    4.70511434360815
Cl        4.65538527511510    2.87248648892847    5.90003477970150
S         3.62215323189521    2.52941215373287    3.11503508890569
O         3.14449110149048    1.25092655564696    0.32294165959893
C         0.21909304003952    0.07080709152595    2.01545813873902
C         0.09959425474653    1.33216528022387    2.89936426214234
O         0.11637430912996    1.03607123329118    4.19598931003745
O        -0.01436809102488    2.44195364051704    2.46563362040285
N        -0.96949344414298   -0.09877816533123    1.21214725462924
C        -2.23373004831032   -0.29207216246929    1.66574582798142
C        -2.37560944555022   -0.28773343391211    3.14810957344391
C        -2.01772202129891   -1.26384707785937    4.02865762504879
C        -2.37016552085070   -0.96954189740985    5.36224871190169
C        -2.99973364092162    0.23183470399244    5.46880314455069
Cl       -3.56580453750192    0.96584136562242    6.90212211168853
S        -3.18957935766326    1.02022775692068    3.93390050128320
O        -3.17041648962074   -0.46641435008402    0.91974313837877
H        -3.77119138594568    2.09562771588394   -4.78432253617268
H        -3.48312389912755   -0.11528876883784   -5.83719673549804
H        -2.27428372458913   -1.89733666850616   -4.63189260321345
H        -1.36021300761852   -1.50860302496947   -2.42985822495184
H        -3.41590173281705    3.60593212292249   -2.94504889150455
H        -2.44874754792650    4.08959016883735   -0.72386986279186
H        -1.21257057010401    2.35916151097210    0.48040764563800
H        -0.96316499638350   -1.17309341653834   -0.55124606161488
H         1.04707701355228    0.99735672932250   -0.85512499358904
H         1.88788678622261   -2.12368327635780    0.79758764717629
H         2.91461802750369   -4.07535536217144   -0.27157809421119
H         3.08615291431650   -4.19268734518985   -2.72998085724411
H         0.71010691201295    0.80493460246388   -2.84871855676626
H         0.86329632670418    0.62004542119419   -5.25871635486266
H         1.83682312368125   -1.38703027059476   -6.31435161322441
H         2.68660712058310   -3.22335586982858   -4.90612766950858
H         2.52579325085464   -0.87908116251771    3.58725857750227
H         3.58698629715038    0.05914497456113    5.76153122758344
H         0.37734431477438   -0.79775508304498    2.67586190711154
H         0.01782306577017    1.83662120447980    4.73886735623892
H        -1.53154507477138   -2.17690928867007    3.73536953559512
H        -2.16828647338752   -1.61369293230385    6.19728201545557

          :  Hamiltonian                  GFN2-xTB          :
         :: total energy            -121.763684919292 Eh    ::
         :: gradient norm              0.000744589509 Eh/a0 ::
         :: HOMO-LUMO gap              2.368835528910 eV    ::
         :: SCC energy              -123.472972058681 Eh    ::
         :: -> dispersion             -0.109987067154 Eh    ::
         :: repulsion energy           1.706568159931 Eh    ::

    * Orbital Energies and Occupations

         #    Occupation            Energy/Eh            Energy/eV
      -------------------------------------------------------------
         1        2.0000           -1.0785674             -29.3493
       ...           ...                  ...                  ...
        97        2.0000           -0.4249397             -11.5632
        98        2.0000           -0.4238148             -11.5326
        99        2.0000           -0.4200378             -11.4298
       100        2.0000           -0.4188493             -11.3975
       101        2.0000           -0.4160037             -11.3200
       102        2.0000           -0.4109667             -11.1830
       103        2.0000           -0.4090335             -11.1304
       104        2.0000           -0.4075292             -11.0894
       105        2.0000           -0.4057967             -11.0423
       106        2.0000           -0.4050171             -11.0211
       107        2.0000           -0.4010318             -10.9126
       108        2.0000           -0.3844379             -10.4611
       109        2.0000           -0.3783673             -10.2959 (HOMO)
       110                         -0.2913142              -7.9271 (LUMO)
       111                         -0.2811088              -7.6494
       112                         -0.2751615              -7.4875
       113                         -0.2679318              -7.2908
       114                         -0.2621468              -7.1334
       115                         -0.2447725              -6.6606
       116                         -0.2361466              -6.4259
       117                         -0.2359415              -6.4203
       118                         -0.2292365              -6.2378
       119                         -0.2283988              -6.2150
       120                         -0.2247031              -6.1145
       ...                                ...                  ...
       218                          0.6938470              18.8805
      -------------------------------------------------------------
                  HL-Gap            0.0870531 Eh            2.3688 eV

     #   Z          covCN         q      C6AA      Î±(0)
     1   6 C        2.921    -0.033    28.830     8.805
     2   6 C        2.915    -0.029    28.722     8.788
     3   6 C        2.917    -0.028    28.696     8.784
     4   6 C        2.917    -0.032    28.791     8.799
     5   6 C        2.983     0.014    27.704     8.634
     6   6 C        2.989     0.017    27.624     8.622
     7   6 C        2.920    -0.034    28.852     8.808
     8   6 C        2.914    -0.027    28.680     8.782
     9   6 C        2.922    -0.034    28.855     8.809
    10   6 C        2.967     0.002    27.968     8.675
    11   6 C        3.821     0.046    19.780     6.329
    12   6 C        3.826     0.043    19.828     6.336
    13   6 C        2.968    -0.000    28.030     8.684
    14   6 C        2.922    -0.035    28.861     8.810
    15   6 C        2.914    -0.030    28.760     8.794
    16   6 C        2.920    -0.035    28.876     8.812
    17   6 C        2.988     0.016    27.638     8.624
    18   6 C        2.984     0.011    27.760     8.643
    19   6 C        2.917    -0.032    28.795     8.799
    20   6 C        2.917    -0.026    28.650     8.777
    21   6 C        2.915    -0.027    28.681     8.782
    22   6 C        2.921    -0.034    28.838     8.806
    23   7 N        2.762    -0.116    23.534     7.205
    24   6 C        2.800     0.273    22.393     7.752
    25   6 C        2.992    -0.029    28.719     8.791
    26   6 C        3.110    -0.045    28.974     8.818
    27   6 C        3.109    -0.059    29.324     8.872
    28   6 C        2.911     0.092    25.963     8.355
    29  17 Cl       1.013    -0.126   103.094    15.534
    30  16 S        2.403     0.077   137.930    19.767
    31   8 O        0.859    -0.403    21.743     6.252
    32   6 C        3.744     0.089    19.169     6.246
    33   6 C        2.688     0.350    21.063     7.511
    34   8 O        1.659    -0.368    20.240     6.073
    35   8 O        0.856    -0.371    21.102     6.159
    36   7 N        2.764    -0.111    23.423     7.188
    37   6 C        2.785     0.273    22.389     7.750
    38   6 C        2.992    -0.024    28.597     8.772
    39   6 C        3.114    -0.044    28.938     8.812
    40   6 C        3.110    -0.057    29.262     8.862
    41   6 C        2.910     0.093    25.935     8.351
    42  17 Cl       1.011    -0.133   103.313    15.550
    43  16 S        2.396     0.044   139.264    19.862
    44   8 O        0.859    -0.399    21.653     6.239
    45   1 H        0.926     0.036     2.507     2.476
    46   1 H        0.926     0.033     2.538     2.491
    47   1 H        0.926     0.031     2.568     2.506
    48   1 H        0.926     0.025     2.657     2.549
    49   1 H        0.926     0.037     2.482     2.464
    50   1 H        0.926     0.039     2.457     2.451
    51   1 H        0.926     0.047     2.357     2.401
    52   1 H        0.924     0.063     2.170     2.304
    53   1 H        0.924     0.079     1.991     2.206
    54   1 H        0.926     0.023     2.687     2.563
    55   1 H        0.926     0.035     2.519     2.482
    56   1 H        0.926     0.038     2.473     2.459
    57   1 H        0.926     0.033     2.547     2.496
    58   1 H        0.926     0.035     2.515     2.480
    59   1 H        0.926     0.036     2.505     2.475
    60   1 H        0.926     0.036     2.497     2.471
    61   1 H        0.926     0.052     2.291     2.367
    62   1 H        0.926     0.070     2.089     2.260
    63   1 H        0.923     0.060     2.197     2.318
    64   1 H        0.804     0.350     0.588     1.204
    65   1 H        0.926     0.053     2.279     2.361
    66   1 H        0.926     0.069     2.094     2.263

Wiberg/Mayer (AO) data.
largest (>0.10) Wiberg bond orders for each atom

     #   Z sym  total        # sym  WBO       # sym  WBO       # sym  WBO
 ---------------------------------------------------------------------------
     1   6 C    3.991 --     2 C    1.558     6 C    1.279    45 H    0.968
                             4 C    0.118
     2   6 C    3.992 --     1 C    1.558     3 C    1.322    46 H    0.971
     3   6 C    3.992 --     4 C    1.555     2 C    1.322    47 H    0.971
     4   6 C    3.992 --     3 C    1.555     5 C    1.282    48 H    0.961
                             1 C    0.118
     5   6 C    3.988 --     4 C    1.282    10 C    1.253     6 C    1.252
     6   6 C    3.990 --     7 C    1.280     1 C    1.279     5 C    1.252
     7   6 C    3.990 --     8 C    1.553     6 C    1.280    49 H    0.968
                            10 C    0.114
     8   6 C    3.992 --     7 C    1.553     9 C    1.327    50 H    0.970
     9   6 C    3.990 --    10 C    1.524     8 C    1.327    51 H    0.963
    10   6 C    3.982 --     9 C    1.524     5 C    1.253    11 C    0.986
                             7 C    0.114
    11   6 C    3.954 --    10 C    0.986    12 C    0.952    36 N    0.949
                            52 H    0.946
    12   6 C    3.955 --    13 C    0.987    23 N    0.956    11 C    0.952
                            53 H    0.944
    13   6 C    3.983 --    14 C    1.526    18 C    1.252    12 C    0.987
                            16 C    0.114
    14   6 C    3.991 --    13 C    1.526    15 C    1.325    54 H    0.968
    15   6 C    3.992 --    16 C    1.554    14 C    1.325    55 H    0.970
    16   6 C    3.990 --    15 C    1.554    17 C    1.279    56 H    0.968
                            13 C    0.114
    17   6 C    3.990 --    16 C    1.279    22 C    1.279    18 C    1.253
    18   6 C    3.988 --    19 C    1.283    17 C    1.253    13 C    1.252
    19   6 C    3.992 --    20 C    1.554    18 C    1.283    57 H    0.962
                            22 C    0.119
    20   6 C    3.992 --    19 C    1.554    21 C    1.323    58 H    0.971
    21   6 C    3.992 --    22 C    1.557    20 C    1.323    59 H    0.971
    22   6 C    3.991 --    21 C    1.557    17 C    1.279    60 H    0.968
                            19 C    0.119
    23   7 N    3.445 --    24 C    1.182    32 C    0.990    12 C    0.956
                            31 O    0.185
    24   6 C    3.954 --    31 O    1.689    23 N    1.182    25 C    1.005
    25   6 C    3.944 --    26 C    1.546    30 S    1.157    24 C    1.005
    26   6 C    3.986 --    25 C    1.546    27 C    1.295    61 H    0.961
    27   6 C    3.979 --    28 C    1.543    26 C    1.295    62 H    0.961
    28   6 C    3.890 --    27 C    1.543    30 S    1.188    29 Cl   1.014
    29  17 Cl   1.169 --    28 C    1.014
    30  16 S    2.660 --    28 C    1.188    25 C    1.157
    31   8 O    2.035 --    24 C    1.689    23 N    0.185
    32   6 C    3.972 --    23 N    0.990    36 N    0.982    63 H    0.942
                            33 C    0.908
    33   6 C    3.921 --    35 O    1.786    34 O    1.152    32 C    0.908
    34   8 O    2.216 --    33 C    1.152    64 H    0.851    35 O    0.182
    35   8 O    2.079 --    33 C    1.786    34 O    0.182
    36   7 N    3.470 --    37 C    1.210    32 C    0.982    11 C    0.949
                            44 O    0.199
    37   6 C    3.954 --    44 O    1.697    36 N    1.210    38 C    0.969
    38   6 C    3.944 --    39 C    1.584    43 S    1.156    37 C    0.969
                            41 C    0.105
    39   6 C    3.984 --    38 C    1.584    40 C    1.273    65 H    0.962
    40   6 C    3.980 --    41 C    1.567    39 C    1.273    66 H    0.960
    41   6 C    3.885 --    40 C    1.567    43 S    1.166    42 Cl   1.009
                            38 C    0.105
    42  17 Cl   1.163 --    41 C    1.009
    43  16 S    2.638 --    41 C    1.166    38 C    1.156
    44   8 O    2.044 --    37 C    1.697    36 N    0.199
    45   1 H    0.998 --     1 C    0.968
    46   1 H    0.998 --     2 C    0.971
    47   1 H    0.999 --     3 C    0.971
    48   1 H    0.999 --     4 C    0.961
    49   1 H    0.998 --     7 C    0.968
    50   1 H    0.997 --     8 C    0.970
    51   1 H    0.997 --     9 C    0.963
    52   1 H    0.995 --    11 C    0.946
    53   1 H    0.993 --    12 C    0.944
    54   1 H    0.999 --    14 C    0.968
    55   1 H    0.998 --    15 C    0.970
    56   1 H    0.997 --    16 C    0.968
    57   1 H    0.998 --    19 C    0.962
    58   1 H    0.998 --    20 C    0.971
    59   1 H    0.998 --    21 C    0.971
    60   1 H    0.998 --    22 C    0.968
    61   1 H    0.997 --    26 C    0.961
    62   1 H    0.994 --    27 C    0.961
    63   1 H    0.996 --    32 C    0.942
    64   1 H    0.876 --    34 O    0.851
    65   1 H    0.997 --    39 C    0.962
    66   1 H    0.994 --    40 C    0.960
 ---------------------------------------------------------------------------

molecular dipole:
                 x           y           z       tot (Debye)
 q only:        0.254      -1.156      -0.157
   full:        0.312      -1.340       0.856       4.119

           -------------------------------------------------
          | TOTAL ENERGY             -121.763684919292 Eh   |
          | GRADIENT NORM               0.000744589509 Eh/Î± |
          | HOMO-LUMO GAP               2.368835528910 eV   |
           -------------------------------------------------

 * finished run on 2022/03/17 at 01:43:21.127
