   * xtb version 6.3.3 (4ae9cef) compiled by 'conda@95abc7406d43' on 2020-10-14
          program call               : xtb acid_383.xyz --opt --chrg 0 --uhf 0 --gfn 2
          number of atoms            :                    60
          number of electrons        :                   190
          charge                     :                     0
          spin                       :                   0.0

   ID    Z sym.   atoms
    1    6 C      1-14, 16-20, 22, 23, 25, 26, 30-34, 36, 37
    2    7 N      15, 29
    3   35 Br     21, 35
    4    8 O      24, 27, 28, 38
    5    1 H      39-60

          :  Hamiltonian                  GFN2-xTB          :
 * total energy  :  -105.7352404 Eh     change       -0.6009657E-08 Eh
 * total energy  :  -105.7468016 Eh     change       -0.1156125E-01 Eh
 * total energy  :  -105.7501097 Eh     change       -0.3308034E-02 Eh
 * total energy  :  -105.7517065 Eh     change       -0.1596878E-02 Eh
 * total energy  :  -105.7527533 Eh     change       -0.1046738E-02 Eh
 * total energy  :  -105.7534104 Eh     change       -0.6571254E-03 Eh
 * total energy  :  -105.7540436 Eh     change       -0.6332053E-03 Eh
 * total energy  :  -105.7546017 Eh     change       -0.5580597E-03 Eh
 * total energy  :  -105.7552474 Eh     change       -0.6457149E-03 Eh
 * total energy  :  -105.7558393 Eh     change       -0.5919223E-03 Eh
 * total energy  :  -105.7598854 Eh     change       -0.1156426E-04 Eh
 * total energy  :  -105.7599011 Eh     change       -0.1569030E-04 Eh
 * total energy  :  -105.7599178 Eh     change       -0.1674098E-04 Eh
 * total energy  :  -105.7599322 Eh     change       -0.1439130E-04 Eh
 * total energy  :  -105.7599396 Eh     change       -0.7414969E-05 Eh
 * total energy  :  -105.7599453 Eh     change       -0.5724667E-05 Eh
 * total energy  :  -105.7599545 Eh     change       -0.9196399E-05 Eh
 * total energy  :  -105.7599597 Eh     change       -0.5216635E-05 Eh
 * total energy  :  -105.7599636 Eh     change       -0.3903705E-05 Eh
   *** GEOMETRY OPTIMIZATION CONVERGED AFTER 48 ITERATIONS ***

 final structure:
================
60
 xtb: 6.3.3 (4ae9cef)
C        -2.80339122279499   -3.11814251524701    0.42676149958817
C        -3.94643376821298   -3.62288876792872   -0.16736864617138
C        -4.49234973477545   -2.99033728613680   -1.27058484625255
C        -3.88786578498169   -1.85487964608930   -1.78355141553956
C        -2.74100728625795   -1.35213874997954   -1.19685812772199
C        -2.19832483566080   -1.97903571423016   -0.08189247199012
C        -0.93575846866146   -1.44900450367700    0.54452246233436
C         0.28980386410108   -1.68365861398753   -0.35613966158091
C         1.12415271442822   -2.84399129857442    0.11565539273925
C         1.94096979020455   -2.71783175417740    1.23144980105330
C         2.68542905492954   -3.79428935340546    1.67753695286333
C         2.60989479619727   -5.00964542997607    1.01879743509814
C         1.78869635636336   -5.14320250448610   -0.08746257041348
C         1.04953224980434   -4.06442024451069   -0.53889635203931
N         1.02417074295957   -0.42356713615968   -0.29573004388389
C         2.13097364870901   -0.26602548894852   -1.07886892931381
C         2.74532866507863    1.09774396164735   -1.03245213677598
C         2.86691068077329    1.82473511022295   -2.21130209348746
C         3.44225896097367    3.08193904979965   -2.20053827969869
C         3.91701286612454    3.59762150581163   -1.00584347098785
Br        4.70346219860629    5.32917196783926   -0.97470401813833
C         3.83676628504770    2.87195510965342    0.17277578628255
C         3.24789332212473    1.62043468997744    0.15527253917780
O         2.58889270274137   -1.17155162686272   -1.73580725335279
C         0.23396573968320    0.65037280065772    0.25871564363448
C        -0.09384345622613    1.69756924044665   -0.84164126362245
O         0.34604762752446    2.94266130262668   -0.63500280533428
O        -0.68828279597782    1.39702473333325   -1.83226806041736
N        -0.96728319280326   -0.00046739626195    0.71839788800445
C        -2.03769793088049    0.62049254867881    1.28195048869938
C        -1.95415271645234    2.11825125723360    1.25990121732557
C        -2.71226231543153    2.81730856199104    0.32746691105113
C        -2.65902260382036    4.19811088139016    0.28033217732485
C        -1.85439958354402    4.87448679797394    1.18208034066368
Br       -1.75925358579869    6.77199492861838    1.11575143380490
C        -1.11742036901884    4.19507287796980    2.13901658277405
C        -1.17122410020747    2.81276337146371    2.17529976759074
O        -2.97798218691498    0.01525902699708    1.74033357260248
H        -2.38064275289468   -3.60791873631756    1.29184636694893
H        -4.41410754464820   -4.50841399377758    0.23642761732034
H        -5.38883491686270   -3.38005091549981   -1.72941851028120
H        -4.31015925581379   -1.35861976663456   -2.64471322689962
H        -2.27025937720502   -0.46717310168793   -1.60186640392371
H        -0.78632924768209   -1.92119648889423    1.52534146273146
H        -0.02744599384845   -1.86107159416534   -1.39200690191608
H         2.00039063767301   -1.76987419220244    1.74820336630725
H         3.32534070380785   -3.68498341692030    2.54077358886534
H         3.19222257931160   -5.84968280298655    1.36652118182614
H         1.72741858318251   -6.08888656328667   -0.60466726165201
H         0.41343623295197   -4.16622127305554   -1.40544941627861
H         2.50047797288149    1.40252194471166   -3.13379233819413
H         3.52605652243141    3.65368863256615   -3.11119665227639
H         4.23792268875902    3.27896242034303    1.08839449348143
H         3.20589962658309    1.03695519270982    1.06401550888773
H         0.76505257795814    1.13785080543985    1.09890663027153
H         0.81394330591719    3.06946966192530    0.20254935628950
H        -3.33760955839928    2.27507063949217   -0.36474142085469
H        -3.23681340170679    4.74352868341396   -0.44902525834210
H        -0.51437437711508    4.74133768951327    2.84824329730356
H        -0.61579233322289    2.27481548162301    2.93055107448898

          :  Hamiltonian                  GFN2-xTB          :
         :: total energy            -105.759963646313 Eh    ::
         :: gradient norm              0.000515293927 Eh/a0 ::
         :: HOMO-LUMO gap              3.056059760428 eV    ::
         :: SCC energy              -107.297917499974 Eh    ::
         :: -> dispersion             -0.090031091793 Eh    ::
         :: repulsion energy           1.535713176616 Eh    ::

    * Orbital Energies and Occupations

         #    Occupation            Energy/Eh            Energy/eV
      -------------------------------------------------------------
         1        2.0000           -0.8516848             -23.1755
       ...           ...                  ...                  ...
        83        2.0000           -0.4298826             -11.6977
        84        2.0000           -0.4281455             -11.6504
        85        2.0000           -0.4267509             -11.6125
        86        2.0000           -0.4250195             -11.5654
        87        2.0000           -0.4248077             -11.5596
        88        2.0000           -0.4226664             -11.5013
        89        2.0000           -0.4196563             -11.4194
        90        2.0000           -0.4183061             -11.3827
        91        2.0000           -0.4167550             -11.3405
        92        2.0000           -0.4161927             -11.3252
        93        2.0000           -0.4116022             -11.2003
        94        2.0000           -0.4101754             -11.1614
        95        2.0000           -0.4037676             -10.9871 (HOMO)
        96                         -0.2914594              -7.9310 (LUMO)
        97                         -0.2816994              -7.6654
        98                         -0.2720462              -7.4028
        99                         -0.2707058              -7.3663
       100                         -0.2689004              -7.3172
       101                         -0.2417980              -6.5797
       102                         -0.2392728              -6.5109
       103                         -0.2365199              -6.4360
       104                         -0.2327653              -6.3339
       105                         -0.2303111              -6.2671
       106                         -0.2294436              -6.2435
       ...                                ...                  ...
       184                          0.6592926              17.9403
      -------------------------------------------------------------
                  HL-Gap            0.1123081 Eh            3.0561 eV

     #   Z          covCN         q      C6AA      Î±(0)
     1   6 C        2.924    -0.029    28.713     8.787
     2   6 C        2.920    -0.025    28.625     8.774
     3   6 C        2.920    -0.027    28.682     8.782
     4   6 C        2.920    -0.025    28.633     8.775
     5   6 C        2.923    -0.033    28.826     8.805
     6   6 C        2.975     0.010    27.787     8.647
     7   6 C        3.820     0.046    19.780     6.329
     8   6 C        3.826     0.046    19.784     6.329
     9   6 C        2.974     0.011    27.761     8.643
    10   6 C        2.924    -0.031    28.762     8.795
    11   6 C        2.920    -0.027    28.669     8.780
    12   6 C        2.921    -0.027    28.682     8.782
    13   6 C        2.920    -0.024    28.597     8.769
    14   6 C        2.924    -0.028    28.691     8.784
    15   7 N        2.763    -0.120    23.604     7.216
    16   6 C        2.765     0.272    22.406     7.752
    17   6 C        2.974    -0.023    28.586     8.770
    18   6 C        2.926    -0.016    28.409     8.741
    19   6 C        2.989    -0.027    28.678     8.785
    20   6 C        2.917     0.086    26.083     8.375
    21  35 Br       1.069    -0.147   189.107    22.173
    22   6 C        2.993    -0.040    28.974     8.830
    23   6 C        2.924    -0.037    28.932     8.821
    24   8 O        0.859    -0.397    21.617     6.234
    25   6 C        3.745     0.085    19.241     6.257
    26   6 C        2.686     0.344    21.156     7.527
    27   8 O        1.659    -0.360    20.093     6.051
    28   8 O        0.856    -0.338    20.478     6.067
    29   7 N        2.765    -0.115    23.508     7.201
    30   6 C        2.762     0.272    22.401     7.751
    31   6 C        2.975    -0.024    28.591     8.771
    32   6 C        2.926    -0.017    28.444     8.746
    33   6 C        2.991    -0.026    28.649     8.780
    34   6 C        2.917     0.087    26.062     8.372
    35  35 Br       1.071    -0.147   189.093    22.172
    36   6 C        2.994    -0.039    28.955     8.827
    37   6 C        2.924    -0.037    28.920     8.819
    38   8 O        0.859    -0.399    21.665     6.241
    39   1 H        0.926     0.034     2.531     2.488
    40   1 H        0.926     0.039     2.460     2.453
    41   1 H        0.926     0.038     2.473     2.459
    42   1 H        0.926     0.039     2.459     2.452
    43   1 H        0.926     0.045     2.378     2.412
    44   1 H        0.923     0.055     2.254     2.348
    45   1 H        0.924     0.065     2.146     2.291
    46   1 H        0.925     0.023     2.688     2.564
    47   1 H        0.926     0.037     2.488     2.467
    48   1 H        0.926     0.040     2.451     2.448
    49   1 H        0.926     0.042     2.420     2.433
    50   1 H        0.926     0.040     2.454     2.450
    51   1 H        0.926     0.066     2.127     2.281
    52   1 H        0.926     0.069     2.091     2.261
    53   1 H        0.926     0.061     2.191     2.315
    54   1 H        0.926     0.041     2.438     2.442
    55   1 H        0.922     0.032     2.563     2.504
    56   1 H        0.805     0.326     0.647     1.263
    57   1 H        0.926     0.063     2.169     2.303
    58   1 H        0.926     0.069     2.092     2.262
    59   1 H        0.926     0.061     2.191     2.315
    60   1 H        0.926     0.040     2.447     2.446

Wiberg/Mayer (AO) data.
largest (>0.10) Wiberg bond orders for each atom

     #   Z sym  total        # sym  WBO       # sym  WBO       # sym  WBO
 ---------------------------------------------------------------------------
     1   6 C    3.990 --     2 C    1.441     6 C    1.416    39 H    0.968
                             4 C    0.111
     2   6 C    3.992 --     3 C    1.442     1 C    1.441    40 H    0.971
                             5 C    0.112
     3   6 C    3.991 --     2 C    1.442     4 C    1.436    41 H    0.971
                             6 C    0.109
     4   6 C    3.992 --     5 C    1.448     3 C    1.436    42 H    0.971
                             1 C    0.111
     5   6 C    3.990 --     4 C    1.448     6 C    1.409    43 H    0.965
                             2 C    0.112
     6   6 C    3.984 --     1 C    1.416     5 C    1.409     7 C    0.988
                             3 C    0.109
     7   6 C    3.958 --     6 C    0.988     8 C    0.956    44 H    0.954
                            29 N    0.948
     8   6 C    3.957 --     9 C    0.989     7 C    0.956    45 H    0.952
                            15 N    0.950
     9   6 C    3.984 --    14 C    1.414    10 C    1.411     8 C    0.989
                            12 C    0.109
    10   6 C    3.992 --    11 C    1.447     9 C    1.411    46 H    0.969
                            13 C    0.111
    11   6 C    3.992 --    10 C    1.447    12 C    1.437    47 H    0.971
                            14 C    0.111
    12   6 C    3.991 --    13 C    1.440    11 C    1.437    48 H    0.971
                             9 C    0.109
    13   6 C    3.991 --    14 C    1.443    12 C    1.440    49 H    0.970
                            10 C    0.111
    14   6 C    3.990 --    13 C    1.443     9 C    1.414    50 H    0.968
                            11 C    0.111
    15   7 N    3.444 --    16 C    1.188    25 C    0.987     8 C    0.950
                            24 O    0.189
    16   6 C    3.948 --    24 O    1.716    15 N    1.188    17 C    0.962
    17   6 C    3.987 --    18 C    1.401    23 C    1.396    16 C    0.962
    18   6 C    3.988 --    19 C    1.443    17 C    1.401    51 H    0.965
                            22 C    0.108
    19   6 C    3.988 --    18 C    1.443    20 C    1.409    52 H    0.966
                            23 C    0.107
    20   6 C    3.943 --    19 C    1.409    22 C    1.402    21 Br   0.995
    21  35 Br   1.134 --    20 C    0.995
    22   6 C    3.989 --    23 C    1.446    20 C    1.402    53 H    0.967
                            18 C    0.108
    23   6 C    3.991 --    22 C    1.446    17 C    1.396    54 H    0.967
                            19 C    0.107
    24   8 O    2.046 --    16 C    1.716    15 N    0.189
    25   6 C    3.975 --    29 N    0.990    15 N    0.987    55 H    0.942
                            26 C    0.899
    26   6 C    3.921 --    28 O    1.808    27 O    1.135    25 C    0.899
    27   8 O    2.219 --    26 C    1.135    56 H    0.862    28 O    0.168
    28   8 O    2.100 --    26 C    1.808    27 O    0.168
    29   7 N    3.460 --    30 C    1.203    25 C    0.990     7 C    0.948
                            38 O    0.195
    30   6 C    3.949 --    38 O    1.713    29 N    1.203    31 C    0.951
    31   6 C    3.987 --    37 C    1.402    32 C    1.400    30 C    0.951
    32   6 C    3.989 --    33 C    1.443    31 C    1.400    57 H    0.966
                            36 C    0.108
    33   6 C    3.988 --    32 C    1.443    34 C    1.409    58 H    0.966
                            37 C    0.108
    34   6 C    3.944 --    33 C    1.409    36 C    1.404    35 Br   0.994
    35  35 Br   1.132 --    34 C    0.994
    36   6 C    3.989 --    37 C    1.443    34 C    1.404    59 H    0.967
                            32 C    0.108
    37   6 C    3.991 --    36 C    1.443    31 C    1.402    60 H    0.968
                            33 C    0.108
    38   8 O    2.046 --    30 C    1.713    29 N    0.195
    39   1 H    0.999 --     1 C    0.968
    40   1 H    0.998 --     2 C    0.971
    41   1 H    0.998 --     3 C    0.971
    42   1 H    0.998 --     4 C    0.971
    43   1 H    0.998 --     5 C    0.965
    44   1 H    0.996 --     7 C    0.954
    45   1 H    0.995 --     8 C    0.952
    46   1 H    0.999 --    10 C    0.969
    47   1 H    0.998 --    11 C    0.971
    48   1 H    0.998 --    12 C    0.971
    49   1 H    0.998 --    13 C    0.970
    50   1 H    0.998 --    14 C    0.968
    51   1 H    0.996 --    18 C    0.965
    52   1 H    0.995 --    19 C    0.966
    53   1 H    0.996 --    22 C    0.967
    54   1 H    0.998 --    23 C    0.967
    55   1 H    0.999 --    25 C    0.942
    56   1 H    0.893 --    27 O    0.862
    57   1 H    0.996 --    32 C    0.966
    58   1 H    0.995 --    33 C    0.966
    59   1 H    0.996 --    36 C    0.967
    60   1 H    0.998 --    37 C    0.968
 ---------------------------------------------------------------------------

molecular dipole:
                 x           y           z       tot (Debye)
 q only:        0.317      -0.936       0.837
   full:        0.387      -1.345       1.121       4.559

           -------------------------------------------------
          | TOTAL ENERGY             -105.759963646313 Eh   |
          | GRADIENT NORM               0.000515293927 Eh/Î± |
          | HOMO-LUMO GAP               3.056059760428 eV   |
           -------------------------------------------------

 * finished run on 2022/03/17 at 00:32:59.651
