   * xtb version 6.3.3 (4ae9cef) compiled by 'conda@95abc7406d43' on 2020-10-14
          program call               : xtb acid_31.xyz --opt --chrg 0 --uhf 0 --gfn 2
          number of atoms            :                    90
          number of electrons        :                   274
          charge                     :                     0
          spin                       :                   0.0

   ID    Z sym.   atoms
    1    6 C      1, 2, 6-15, 19-22, 24-34, 36, 37, 41-51
    2    9 F      3-5, 16-18
    3    7 N      23, 40
    4    8 O      35, 38, 39, 52
    5    1 H      53-90

          :  Hamiltonian                  GFN2-xTB          :
 * total energy  :  -155.6001477 Eh     change       -0.2208026E-08 Eh
 * total energy  :  -155.6196196 Eh     change       -0.1947190E-01 Eh
 * total energy  :  -155.6265223 Eh     change       -0.6902728E-02 Eh
 * total energy  :  -155.6284936 Eh     change       -0.1971328E-02 Eh
 * total energy  :  -155.6295673 Eh     change       -0.1073644E-02 Eh
 * total energy  :  -155.6301456 Eh     change       -0.5783883E-03 Eh
 * total energy  :  -155.6305009 Eh     change       -0.3552483E-03 Eh
 * total energy  :  -155.6307815 Eh     change       -0.2806043E-03 Eh
 * total energy  :  -155.6310198 Eh     change       -0.2382534E-03 Eh
 * total energy  :  -155.6312017 Eh     change       -0.1819849E-03 Eh
 * total energy  :  -155.6423813 Eh     change       -0.3709536E-04 Eh
 * total energy  :  -155.6423919 Eh     change       -0.1065762E-04 Eh
 * total energy  :  -155.6424077 Eh     change       -0.1575228E-04 Eh
 * total energy  :  -155.6424157 Eh     change       -0.8007144E-05 Eh
 * total energy  :  -155.6424273 Eh     change       -0.1159827E-04 Eh
 * total energy  :  -155.6424349 Eh     change       -0.7562959E-05 Eh
 * total energy  :  -155.6424410 Eh     change       -0.6125254E-05 Eh
 * total energy  :  -155.6424464 Eh     change       -0.5456033E-05 Eh
 * total energy  :  -155.6424501 Eh     change       -0.3649402E-05 Eh
   *** GEOMETRY OPTIMIZATION CONVERGED AFTER 79 ITERATIONS ***

 final structure:
================
90
 xtb: 6.3.3 (4ae9cef)
C        -1.29319314647336    3.40648889731115    1.51040041399080
C        -1.39880836333660    4.32855268595940    0.32601542037219
F        -2.40200710567284    4.02850175036703   -0.51229514618294
F        -1.58233133193805    5.60727168851570    0.67810476020483
F        -0.28119884744242    4.32542192178640   -0.44231184872422
C        -1.51364884490202    3.92935687212315    2.77857811464525
C        -1.41821014770791    3.11824869082797    3.89383279527773
C        -1.09132605192830    1.78165739588443    3.74726460450444
C        -0.86964965073409    1.26080603077173    2.48698637286198
C        -0.97966926327845    2.05619988743375    1.35335032545370
C        -0.73752864309153    1.42848011688735    0.00537170292182
C         0.74516254613864    1.02555417133886   -0.19912585227419
C         1.30547185991865    1.74842547972424   -1.40314886311841
C         2.20987322965960    2.80675655318891   -1.29751562759897
C         2.76981048374994    3.24332752127797    0.02946325138661
F         3.46290633547889    4.38430550647032   -0.04853595685795
F         3.62582000388353    2.32924238607542    0.53496906250546
F         1.84549343576340    3.44070763988271    0.98731799575263
C         2.65210010478357    3.47065873984214   -2.43683113619642
C         2.19465769752348    3.09777653638626   -3.68621614660132
C         1.28892300735960    2.05781906031359   -3.80178881971670
C         0.84973104105282    1.39818559211039   -2.66997868538115
N         0.69307328392710   -0.41301692817833   -0.37216198884031
C         1.65415176977139   -1.33481937019202   -0.11262641655383
C         2.94850350325653   -0.84648249705258    0.43879582932571
C         4.19563210597729   -0.89452001331768   -0.19185686902349
C         4.37920842152372   -1.44953490067865   -1.59786099797507
C         4.24899191378321   -2.97820425355929   -1.51901954837897
C         5.75525522518169   -1.10922394561669   -2.18411130932047
C         3.32733610194189   -0.88594145971582   -2.55908440879759
C         5.29202337559886   -0.46790066091567    0.55419731465892
C         5.17626824678968   -0.03797826083192    1.86262607013836
C         3.94205136716322   -0.02848149899592    2.48362320147795
C         2.83532746874917   -0.43169909818261    1.76560854922634
O         1.36727643572309   -2.51890709945061   -0.21209367597643
C        -0.65088866678608   -0.90618420150239   -0.58852429895701
C        -0.88013745461851   -2.20197459689454    0.22120706215718
O        -0.60840214147708   -2.01607975419737    1.52053740274591
O        -1.39129879529509   -3.18942355340204   -0.21917926138890
N        -1.48487715539227    0.18508283191619   -0.15374826708919
C        -2.85109930802630    0.22792705649226   -0.10636085575562
C        -3.53836549245718   -0.97965102928088   -0.65493766011148
C        -3.44090315934812   -1.03742137223397   -2.04775284365215
C        -4.05455918190922   -2.03378314294436   -2.77422610411375
C        -4.78395432765973   -2.99504510712401   -2.09778709107175
C        -4.89815382668680   -2.92887907416259   -0.72550447521771
C        -4.29313129295990   -1.92680953791951    0.03625072685925
C        -4.51758792016703   -1.97795871835174    1.54224961851619
C        -3.72892275292914   -0.93635684683190    2.33692941982765
C        -6.00962233297863   -1.72901270858788    1.81147157852812
C        -4.11593981340100   -3.37544584265548    2.04959866415937
O        -3.42021868455017    1.24201133791890    0.23667990761914
H        -1.76176018839110    4.97324409767784    2.88957569688395
H        -1.59772117434202    3.53259312450305    4.87357195800683
H        -1.01039589050740    1.14352741297666    4.61410725006343
H        -0.61907083227535    0.21746518037628    2.37017101017219
H        -1.05674201525182    2.11111717282776   -0.78953795148257
H         1.33213041345978    1.24894135936520    0.69369558216685
H         3.35203330897806    4.28547937612814   -2.33953297140750
H         2.54206053456345    3.62116721162145   -4.56280541912759
H         0.92077200216597    1.76193459551069   -4.77192947425788
H         0.14149581961690    0.59110705375721   -2.76872884445486
H         3.26667430408195   -3.26651445647084   -1.15731721974385
H         4.99677223927059   -3.38456177598856   -0.84115502167053
H         4.39931062663668   -3.41592845462815   -2.50342755126102
H         5.79534469190160   -1.44329863934552   -3.21873082815922
H         6.55448958390378   -1.61408289069563   -1.64794127065647
H         5.93199140204415   -0.03590876418178   -2.16750628934540
H         2.32692210147633   -1.20767119596050   -2.29058224280011
H         3.52480982148070   -1.23952515900166   -3.56889605604311
H         3.36197897414525    0.20170976016598   -2.56319647400976
H         6.27444037696750   -0.47495291795290    0.11410189366144
H         6.05691360161390    0.28115268890102    2.39917036712694
H         3.83879828213002    0.28849268690764    3.50981638211675
H         1.86448298956491   -0.45330842305777    2.24206708559979
H        -0.82397185101494   -1.17773149726219   -1.64548840365918
H        -0.74831658145541   -2.84397583070320    2.00760855204300
H        -2.88806536469875   -0.26213264736713   -2.56235281791436
H        -3.96572550152877   -2.05994836113360   -3.84965463858988
H        -5.26813936926067   -3.79328445079725   -2.64016823921512
H        -5.48164939070090   -3.68750469528041   -0.22879819175228
H        -4.05272722020697    0.07156021284506    2.09885228334532
H        -2.66320973410900   -1.01655922754971    2.14833004398649
H        -3.89524302405604   -1.09477437064606    3.40154809753410
H        -6.63593967162297   -2.45325821243022    1.29767468612329
H        -6.21038491066269   -1.79598634075377    2.87863544613677
H        -6.28567315510756   -0.73426493076457    1.46901162303046
H        -3.16806910822762   -3.67897299211080    1.61080859124394
H        -4.01980049941572   -3.36916517054529    3.13331687133735
H        -4.85822885266762   -4.12421140698982    1.78884147472112

          :  Hamiltonian                  GFN2-xTB          :
         :: total energy            -155.642450090929 Eh    ::
         :: gradient norm              0.000289694622 Eh/a0 ::
         :: HOMO-LUMO gap              3.212864590999 eV    ::
         :: SCC energy              -157.634952546332 Eh    ::
         :: -> dispersion             -0.134027186332 Eh    ::
         :: repulsion energy           1.985381075178 Eh    ::

    * Orbital Energies and Occupations

         #    Occupation            Energy/Eh            Energy/eV
      -------------------------------------------------------------
         1        2.0000           -0.8861016             -24.1121
       ...           ...                  ...                  ...
       125        2.0000           -0.4336890             -11.8013
       126        2.0000           -0.4295982             -11.6900
       127        2.0000           -0.4259486             -11.5907
       128        2.0000           -0.4252375             -11.5713
       129        2.0000           -0.4221690             -11.4878
       130        2.0000           -0.4161347             -11.3236
       131        2.0000           -0.4148576             -11.2889
       132        2.0000           -0.4094738             -11.1423
       133        2.0000           -0.4067034             -11.0670
       134        2.0000           -0.4061643             -11.0523
       135        2.0000           -0.4039811             -10.9929
       136        2.0000           -0.3987512             -10.8506
       137        2.0000           -0.3945405             -10.7360 (HOMO)
       138                         -0.2764699              -7.5231 (LUMO)
       139                         -0.2683879              -7.3032
       140                         -0.2610222              -7.1028
       141                         -0.2558361              -6.9617
       142                         -0.2526965              -6.8762
       143                         -0.2440665              -6.6414
       144                         -0.2365125              -6.4358
       145                         -0.2332853              -6.3480
       146                         -0.2261045              -6.1526
       147                         -0.2225894              -6.0570
       148                         -0.2114055              -5.7526
       ...                                ...                  ...
       246                          0.6725325              18.3005
      -------------------------------------------------------------
                  HL-Gap            0.1180706 Eh            3.2129 eV

     #   Z          covCN         q      C6AA      Î±(0)
     1   6 C        2.975    -0.021    28.525     8.761
     2   6 C        3.335     0.486    17.293     6.588
     3   9 F        0.791    -0.199    11.225     3.958
     4   9 F        0.792    -0.201    11.244     3.961
     5   9 F        0.791    -0.227    11.521     4.010
     6   6 C        2.923    -0.019    28.487     8.753
     7   6 C        2.920    -0.022    28.560     8.764
     8   6 C        2.919    -0.018    28.469     8.750
     9   6 C        2.927    -0.027    28.686     8.783
    10   6 C        2.972     0.024    27.473     8.598
    11   6 C        3.826     0.053    19.663     6.310
    12   6 C        3.812     0.038    19.932     6.355
    13   6 C        2.970     0.011    27.775     8.645
    14   6 C        2.976    -0.028    28.686     8.785
    15   6 C        3.336     0.486    17.296     6.587
    16   9 F        0.792    -0.197    11.204     3.954
    17   9 F        0.791    -0.215    11.395     3.987
    18   9 F        0.791    -0.213    11.374     3.984
    19   6 C        2.923    -0.020    28.511     8.756
    20   6 C        2.920    -0.021    28.540     8.761
    21   6 C        2.918    -0.018    28.453     8.747
    22   6 C        2.927    -0.025    28.624     8.774
    23   7 N        2.766    -0.111    23.413     7.186
    24   6 C        2.782     0.280    22.262     7.728
    25   6 C        2.979    -0.021    28.524     8.761
    26   6 C        2.970     0.017    27.633     8.622
    27   6 C        3.902     0.027    20.067     6.368
    28   6 C        3.763    -0.112    22.691     6.790
    29   6 C        3.762    -0.111    22.662     6.786
    30   6 C        3.762    -0.104    22.534     6.767
    31   6 C        2.929    -0.035    28.861     8.810
    32   6 C        2.920    -0.024    28.611     8.772
    33   6 C        2.917    -0.027    28.674     8.781
    34   6 C        2.938    -0.030    28.742     8.793
    35   8 O        0.864    -0.428    22.242     6.323
    36   6 C        3.761     0.101    18.958     6.207
    37   6 C        2.690     0.372    20.696     7.445
    38   8 O        1.659    -0.378    20.430     6.102
    39   8 O        0.856    -0.385    21.383     6.200
    40   7 N        2.762    -0.128    23.770     7.241
    41   6 C        2.775     0.279    22.283     7.731
    42   6 C        2.978    -0.025    28.632     8.777
    43   6 C        2.940    -0.029    28.719     8.789
    44   6 C        2.918    -0.028    28.694     8.784
    45   6 C        2.920    -0.025    28.634     8.775
    46   6 C        2.932    -0.029    28.714     8.788
    47   6 C        2.971     0.019    27.577     8.614
    48   6 C        3.903     0.028    20.056     6.366
    49   6 C        3.762    -0.111    22.668     6.787
    50   6 C        3.763    -0.107    22.597     6.776
    51   6 C        3.761    -0.109    22.632     6.782
    52   8 O        0.859    -0.421    22.107     6.304
    53   1 H        0.926     0.068     2.104     2.268
    54   1 H        0.926     0.057     2.239     2.340
    55   1 H        0.926     0.054     2.266     2.354
    56   1 H        0.926     0.062     2.179     2.308
    57   1 H        0.924     0.063     2.165     2.301
    58   1 H        0.924     0.069     2.100     2.266
    59   1 H        0.926     0.071     2.080     2.255
    60   1 H        0.926     0.061     2.188     2.313
    61   1 H        0.926     0.060     2.200     2.319
    62   1 H        0.926     0.053     2.279     2.361
    63   1 H        0.925     0.062     2.173     2.305
    64   1 H        0.925     0.036     2.509     2.477
    65   1 H        0.925     0.040     2.448     2.447
    66   1 H        0.925     0.041     2.440     2.443
    67   1 H        0.925     0.041     2.438     2.442
    68   1 H        0.925     0.036     2.506     2.476
    69   1 H        0.925     0.034     2.535     2.490
    70   1 H        0.925     0.043     2.412     2.429
    71   1 H        0.925     0.024     2.678     2.559
    72   1 H        0.926     0.050     2.314     2.379
    73   1 H        0.926     0.042     2.425     2.435
    74   1 H        0.926     0.041     2.437     2.441
    75   1 H        0.925     0.032     2.558     2.501
    76   1 H        0.922     0.057     2.230     2.335
    77   1 H        0.804     0.344     0.603     1.220
    78   1 H        0.925     0.022     2.703     2.571
    79   1 H        0.926     0.038     2.481     2.463
    80   1 H        0.926     0.039     2.462     2.454
    81   1 H        0.926     0.044     2.395     2.420
    82   1 H        0.925     0.052     2.294     2.368
    83   1 H        0.925     0.027     2.622     2.532
    84   1 H        0.925     0.034     2.533     2.489
    85   1 H        0.925     0.037     2.484     2.465
    86   1 H        0.925     0.041     2.439     2.442
    87   1 H        0.925     0.042     2.417     2.431
    88   1 H        0.925     0.039     2.463     2.454
    89   1 H        0.925     0.036     2.503     2.474
    90   1 H        0.925     0.040     2.447     2.446

Wiberg/Mayer (AO) data.
largest (>0.10) Wiberg bond orders for each atom

     #   Z sym  total        # sym  WBO       # sym  WBO       # sym  WBO
 ---------------------------------------------------------------------------
     1   6 C    3.971 --     6 C    1.415    10 C    1.385     2 C    0.951
                             8 C    0.105
     2   6 C    3.821 --     4 F    0.956     3 F    0.951     1 C    0.951
                             5 F    0.924
     3   9 F    1.082 --     2 C    0.951
     4   9 F    1.078 --     2 C    0.956
     5   9 F    1.051 --     2 C    0.924
     6   6 C    3.987 --     7 C    1.442     1 C    1.415    53 H    0.965
                             9 C    0.109
     7   6 C    3.988 --     6 C    1.442     8 C    1.435    54 H    0.969
                            10 C    0.108
     8   6 C    3.990 --     9 C    1.446     7 C    1.435    55 H    0.969
                             1 C    0.105
     9   6 C    3.988 --     8 C    1.446    10 C    1.410    56 H    0.960
                             6 C    0.109
    10   6 C    3.986 --     9 C    1.410     1 C    1.385    11 C    0.993
                             7 C    0.108
    11   6 C    3.970 --    10 C    0.993    40 N    0.959    57 H    0.954
                            12 C    0.947
    12   6 C    3.969 --    13 C    0.989    23 N    0.971    58 H    0.950
                            11 C    0.947
    13   6 C    3.986 --    22 C    1.408    14 C    1.387    12 C    0.989
                            20 C    0.109
    14   6 C    3.970 --    19 C    1.411    13 C    1.387    15 C    0.950
                            21 C    0.105
    15   6 C    3.821 --    16 F    0.959    14 C    0.950    18 F    0.940
                            17 F    0.934
    16   9 F    1.082 --    15 C    0.959
    17   9 F    1.063 --    15 C    0.934
    18   9 F    1.068 --    15 C    0.940
    19   6 C    3.986 --    20 C    1.445    14 C    1.411    59 H    0.965
                            22 C    0.110
    20   6 C    3.988 --    19 C    1.445    21 C    1.432    60 H    0.968
                            13 C    0.109
    21   6 C    3.989 --    22 C    1.448    20 C    1.432    61 H    0.968
                            14 C    0.105
    22   6 C    3.989 --    21 C    1.448    13 C    1.408    62 H    0.964
                            19 C    0.110
    23   7 N    3.467 --    24 C    1.218    36 C    0.977    12 C    0.971
                            35 O    0.175
    24   6 C    3.932 --    35 O    1.632    23 N    1.218    25 C    0.969
    25   6 C    3.982 --    34 C    1.391    26 C    1.384    24 C    0.969
                            32 C    0.108
    26   6 C    3.984 --    31 C    1.409    25 C    1.384    27 C    0.986
                            33 C    0.107
    27   6 C    3.991 --    29 C    0.998    30 C    0.992    26 C    0.986
                            28 C    0.981
    28   6 C    3.992 --    64 H    0.986    65 H    0.983    27 C    0.981
                            63 H    0.978
    29   6 C    3.995 --    27 C    0.998    68 H    0.986    66 H    0.984
                            67 H    0.983
    30   6 C    3.996 --    27 C    0.992    71 H    0.986    70 H    0.983
                            69 H    0.974
    31   6 C    3.990 --    32 C    1.448    26 C    1.409    72 H    0.963
                            34 C    0.109
    32   6 C    3.991 --    31 C    1.448    33 C    1.431    73 H    0.970
                            25 C    0.108
    33   6 C    3.990 --    34 C    1.444    32 C    1.431    74 H    0.969
                            26 C    0.107
    34   6 C    3.990 --    33 C    1.444    25 C    1.391    75 H    0.966
                            31 C    0.109
    35   8 O    2.058 --    24 C    1.632    23 N    0.175
    36   6 C    3.964 --    40 N    0.985    23 N    0.977    76 H    0.938
                            37 C    0.909
    37   6 C    3.925 --    39 O    1.773    38 O    1.120    36 C    0.909
    38   8 O    2.189 --    37 C    1.120    77 H    0.855    39 O    0.165
    39   8 O    2.067 --    37 C    1.773    38 O    0.165
    40   7 N    3.435 --    41 C    1.180    36 C    0.985    11 C    0.959
                            52 O    0.180
    41   6 C    3.937 --    52 O    1.696    40 N    1.180    42 C    0.963
    42   6 C    3.983 --    47 C    1.401    43 C    1.379    41 C    0.963
                            45 C    0.106
    43   6 C    3.991 --    44 C    1.458    42 C    1.379    78 H    0.968
                            46 C    0.111
    44   6 C    3.991 --    43 C    1.458    45 C    1.418    79 H    0.969
                            47 C    0.108
    45   6 C    3.991 --    46 C    1.464    44 C    1.418    80 H    0.970
                            42 C    0.106
    46   6 C    3.991 --    45 C    1.464    47 C    1.394    81 H    0.963
                            43 C    0.111
    47   6 C    3.984 --    42 C    1.401    46 C    1.394    48 C    0.985
                            44 C    0.108
    48   6 C    3.991 --    49 C    1.001    51 C    0.986    47 C    0.985
                            50 C    0.984
    49   6 C    3.995 --    48 C    1.001    84 H    0.983    82 H    0.981
                            83 H    0.976
    50   6 C    3.995 --    87 H    0.986    86 H    0.984    48 C    0.984
                            85 H    0.984
    51   6 C    3.995 --    48 C    0.986    89 H    0.985    88 H    0.984
                            90 H    0.983
    52   8 O    2.028 --    41 C    1.696    40 N    0.180
    53   1 H    0.995 --     6 C    0.965
    54   1 H    0.996 --     7 C    0.969
    55   1 H    0.996 --     8 C    0.969
    56   1 H    0.996 --     9 C    0.960
    57   1 H    0.995 --    11 C    0.954
    58   1 H    0.995 --    12 C    0.950
    59   1 H    0.995 --    19 C    0.965
    60   1 H    0.995 --    20 C    0.968
    61   1 H    0.996 --    21 C    0.968
    62   1 H    0.997 --    22 C    0.964
    63   1 H    0.996 --    28 C    0.978
    64   1 H    0.999 --    28 C    0.986
    65   1 H    0.997 --    28 C    0.983
    66   1 H    0.998 --    29 C    0.984
    67   1 H    0.998 --    29 C    0.983
    68   1 H    0.999 --    29 C    0.986
    69   1 H    0.999 --    30 C    0.974
    70   1 H    0.998 --    30 C    0.983
    71   1 H    0.999 --    30 C    0.986
    72   1 H    0.997 --    31 C    0.963
    73   1 H    0.997 --    32 C    0.970
    74   1 H    0.998 --    33 C    0.969
    75   1 H    0.999 --    34 C    0.966
    76   1 H    0.996 --    36 C    0.938
    77   1 H    0.882 --    38 O    0.855
    78   1 H    0.999 --    43 C    0.968
    79   1 H    0.998 --    44 C    0.969
    80   1 H    0.997 --    45 C    0.970
    81   1 H    0.997 --    46 C    0.963
    82   1 H    0.997 --    49 C    0.981
    83   1 H    0.999 --    49 C    0.976
    84   1 H    0.998 --    49 C    0.983
    85   1 H    0.999 --    50 C    0.984
    86   1 H    0.997 --    50 C    0.984
    87   1 H    0.998 --    50 C    0.986
    88   1 H    0.998 --    51 C    0.984
    89   1 H    0.998 --    51 C    0.985
    90   1 H    0.998 --    51 C    0.983
 ---------------------------------------------------------------------------

molecular dipole:
                 x           y           z       tot (Debye)
 q only:        1.030      -0.593       0.115
   full:        1.123      -0.559       0.074       3.195

           -------------------------------------------------
          | TOTAL ENERGY             -155.642450090929 Eh   |
          | GRADIENT NORM               0.000289694622 Eh/Î± |
          | HOMO-LUMO GAP               3.212864590999 eV   |
           -------------------------------------------------

 * finished run on 2022/03/16 at 23:40:11.299
