   * xtb version 6.3.3 (4ae9cef) compiled by 'conda@95abc7406d43' on 2020-10-14
          program call               : xtb acid_304.xyz --opt --chrg 0 --uhf 0 --gfn 2
          number of atoms            :                    66
          number of electrons        :                   238
          charge                     :                     0
          spin                       :                   0.0

   ID    Z sym.   atoms
    1    6 C      1, 2, 6-15, 19-22, 24-28, 30, 31, 33, 34, 38-42, 44, 45
    2    9 F      3-5, 16-18
    3    7 N      23, 37
    4   35 Br     29, 43
    5    8 O      32, 35, 36, 46
    6    1 H      47-66

          :  Hamiltonian                  GFN2-xTB          :
 * total energy  :  -137.4371507 Eh     change       -0.3495131E-08 Eh
 * total energy  :  -137.4523580 Eh     change       -0.1520723E-01 Eh
 * total energy  :  -137.4563873 Eh     change       -0.4029369E-02 Eh
 * total energy  :  -137.4575173 Eh     change       -0.1129902E-02 Eh
 * total energy  :  -137.4583917 Eh     change       -0.8744633E-03 Eh
 * total energy  :  -137.4590811 Eh     change       -0.6894220E-03 Eh
 * total energy  :  -137.4597940 Eh     change       -0.7128141E-03 Eh
 * total energy  :  -137.4606560 Eh     change       -0.8620265E-03 Eh
 * total energy  :  -137.4613042 Eh     change       -0.6481755E-03 Eh
 * total energy  :  -137.4625551 Eh     change       -0.1250968E-02 Eh
 * total energy  :  -137.4781174 Eh     change       -0.8527589E-05 Eh
 * total energy  :  -137.4781245 Eh     change       -0.7161294E-05 Eh
 * total energy  :  -137.4781322 Eh     change       -0.7657641E-05 Eh
 * total energy  :  -137.4781408 Eh     change       -0.8570037E-05 Eh
 * total energy  :  -137.4781492 Eh     change       -0.8457252E-05 Eh
 * total energy  :  -137.4781566 Eh     change       -0.7415686E-05 Eh
 * total energy  :  -137.4781629 Eh     change       -0.6239867E-05 Eh
 * total energy  :  -137.4781687 Eh     change       -0.5813988E-05 Eh
 * total energy  :  -137.4781736 Eh     change       -0.4943717E-05 Eh
   *** GEOMETRY OPTIMIZATION CONVERGED AFTER 88 ITERATIONS ***

 final structure:
================
66
 xtb: 6.3.3 (4ae9cef)
C         0.95329652730516   -2.60556433722539    2.12101197990915
C         0.62883251132850   -3.68972536881732    1.13230315903001
F         1.50067649000922   -3.77828320905025    0.11272988431819
F        -0.58225901862591   -3.50861043364051    0.54424248261208
F         0.57811586380132   -4.90667280580279    1.68119434334713
C         1.19975115378381   -2.96573024951340    3.43979294808003
C         1.48833043799715   -1.99850528570860    4.38373521315828
C         1.53143829727067   -0.66668010643504    4.01197454236251
C         1.28389463601876   -0.30473907224692    2.70130638417721
C         0.99574528040321   -1.26413183363783    1.73788352186952
C         0.72667812506930   -0.81254466312236    0.32239429554274
C        -0.61643074855208   -0.04705771657526    0.18798747985192
C        -1.66381620072970   -0.92018908036730   -0.45861055811386
C        -2.74865051576592   -1.46315553140146    0.23209559626901
C        -2.91814375797280   -1.26664908608981    1.71509057980378
F        -3.03389835033167    0.02921413710478    2.07912434774399
F        -4.00473484579450   -1.87211931247389    2.19881652135667
F        -1.87500366120997   -1.74055402357604    2.41992693785794
C        -3.67535018372865   -2.25840776466212   -0.43275639390332
C        -3.52296003924370   -2.53639319667081   -1.77743793170790
C        -2.42743859530557   -2.03897597777079   -2.46079150092144
C        -1.51191166518255   -1.24095947625675   -1.80368456983144
N        -0.27779174420215    1.10704254787975   -0.63750968694651
C        -1.09058430281960    1.89389950665085   -1.37385648083629
C        -2.55245895658626    1.63800485678906   -1.29515570570635
C        -3.24866006743610    1.24463442524927   -2.43298198690139
C        -4.60567079148056    0.99883213546296   -2.36459114630519
C        -5.26492709660024    1.17964785225034   -1.15898438028524
Br       -7.11874012672200    0.78702655754047   -1.04824319489436
C        -4.59789595549053    1.63971368537761   -0.03630065386699
C        -3.23655614604113    1.87031095620313   -0.10839207301023
O        -0.62215822440318    2.79314850954069   -2.06633155166107
C         1.15887127244800    1.32583139421052   -0.70064213555056
C         1.54725529244362    2.60805267544149    0.10640272378399
O         1.26068740474888    3.73730700574177   -0.50013500047326
O         2.06095539708090    2.53712354878925    1.18520995718877
N         1.73017694273724    0.13679934922381   -0.14307828801560
C         3.06086676912753   -0.11367527060804    0.02712320163720
C         3.97346382827436    0.91688060915980   -0.55684671838274
C         4.06819289319528    1.08394256755115   -1.93384930831447
C         4.94522325291619    2.01153538186726   -2.46565114021550
C         5.72274786279266    2.77111835728716   -1.60760477871420
Br        6.91480499286584    4.06059125265338   -2.33547298599532
C         5.65518664232649    2.60319792362322   -0.23469228384945
C         4.78511150715560    1.66443794485612    0.28765488118963
O         3.45652942005001   -1.10891028787458    0.58809858745007
H         1.16642162216222   -4.00589271280534    3.72321583357539
H         1.68162534048466   -2.28801745550028    5.40469731242110
H         1.76041793015901    0.09555659986234    4.74071099775945
H         1.34548167138431    0.73476298832537    2.41550770683135
H         0.73317057559116   -1.66788618572028   -0.36197566122595
H        -0.93139651576444    0.30294126427339    1.17647748197270
H        -4.51222425063046   -2.66820420113221    0.11029066760126
H        -4.24830096526382   -3.15427580536517   -2.28206783811387
H        -2.28293584650008   -2.27484144977675   -3.50367822551237
H        -0.66018429133170   -0.85184916629265   -2.34206363913699
H        -2.72243567053105    1.11754570572359   -3.36613202255448
H        -5.14870725108041    0.67070794893921   -3.23689534739363
H        -5.12910744090477    1.80692285807881    0.88727080729152
H        -2.71269557575516    2.23368831731754    0.76181129056995
H         1.45428996522986    1.48546594719893   -1.75286682320632
H         0.67746614996159    3.60640922237939   -1.29573624534874
H         3.47542133779873    0.47135039531067   -2.59813466591806
H         5.02603180764580    2.14236827144365   -3.53374499278041
H         6.27759614989333    3.19606248176769    0.41712653437026
H         4.71927145049861    1.51712488505714    1.35368871468333

          :  Hamiltonian                  GFN2-xTB          :
         :: total energy            -137.478173644782 Eh    ::
         :: gradient norm              0.000543872314 Eh/a0 ::
         :: HOMO-LUMO gap              3.019028910218 eV    ::
         :: SCC energy              -139.068465434314 Eh    ::
         :: -> dispersion             -0.107156051982 Eh    ::
         :: repulsion energy           1.586529483773 Eh    ::

    * Orbital Energies and Occupations

         #    Occupation            Energy/Eh            Energy/eV
      -------------------------------------------------------------
         1        2.0000           -0.9016349             -24.5347
       ...           ...                  ...                  ...
       107        2.0000           -0.4561274             -12.4119
       108        2.0000           -0.4541428             -12.3579
       109        2.0000           -0.4501422             -12.2490
       110        2.0000           -0.4454289             -12.1207
       111        2.0000           -0.4410731             -12.0022
       112        2.0000           -0.4407873             -11.9944
       113        2.0000           -0.4372794             -11.8990
       114        2.0000           -0.4324283             -11.7670
       115        2.0000           -0.4244736             -11.5505
       116        2.0000           -0.4198769             -11.4254
       117        2.0000           -0.4185504             -11.3893
       118        2.0000           -0.4157483             -11.3131
       119        2.0000           -0.4090916             -11.1319 (HOMO)
       120                         -0.2981444              -8.1129 (LUMO)
       121                         -0.2891275              -7.8676
       122                         -0.2857730              -7.7763
       123                         -0.2754491              -7.4954
       124                         -0.2745437              -7.4707
       125                         -0.2687158              -7.3121
       126                         -0.2669835              -7.2650
       127                         -0.2600978              -7.0776
       128                         -0.2592286              -7.0540
       129                         -0.2566488              -6.9838
       130                         -0.2310760              -6.2879
       ...                                ...                  ...
       214                          0.6409778              17.4419
      -------------------------------------------------------------
                  HL-Gap            0.1109473 Eh            3.0190 eV

     #   Z          covCN         q      C6AA      Î±(0)
     1   6 C        2.976    -0.023    28.565     8.767
     2   6 C        3.335     0.486    17.298     6.588
     3   9 F        0.791    -0.204    11.280     3.967
     4   9 F        0.791    -0.231    11.559     4.016
     5   9 F        0.792    -0.197    11.202     3.954
     6   6 C        2.923    -0.018    28.459     8.748
     7   6 C        2.920    -0.019    28.492     8.753
     8   6 C        2.919    -0.015    28.381     8.736
     9   6 C        2.926    -0.027    28.677     8.782
    10   6 C        2.971     0.021    27.523     8.605
    11   6 C        3.820     0.050    19.717     6.319
    12   6 C        3.812     0.040    19.896     6.349
    13   6 C        2.971     0.008    27.834     8.654
    14   6 C        2.975    -0.030    28.742     8.794
    15   6 C        3.335     0.486    17.300     6.588
    16   9 F        0.791    -0.216    11.405     3.989
    17   9 F        0.792    -0.193    11.160     3.946
    18   9 F        0.791    -0.211    11.347     3.979
    19   6 C        2.923    -0.019    28.488     8.753
    20   6 C        2.920    -0.020    28.497     8.754
    21   6 C        2.918    -0.017    28.445     8.746
    22   6 C        2.928    -0.028    28.695     8.785
    23   7 N        2.759    -0.109    23.376     7.181
    24   6 C        2.768     0.270    22.440     7.758
    25   6 C        2.976    -0.015    28.373     8.737
    26   6 C        2.926    -0.022    28.553     8.763
    27   6 C        2.995    -0.034    28.835     8.809
    28   6 C        2.918     0.086    26.095     8.377
    29  35 Br       1.074    -0.141   188.929    22.162
    30   6 C        2.994    -0.031    28.763     8.798
    31   6 C        2.926    -0.027    28.676     8.782
    32   8 O        0.860    -0.452    22.753     6.395
    33   6 C        3.756     0.077    19.342     6.271
    34   6 C        2.684     0.349    21.067     7.511
    35   8 O        1.655    -0.358    20.060     6.046
    36   8 O        0.856    -0.363    20.960     6.138
    37   7 N        2.759    -0.117    23.541     7.206
    38   6 C        2.763     0.278    22.305     7.734
    39   6 C        2.975    -0.018    28.463     8.751
    40   6 C        2.925    -0.032    28.808     8.802
    41   6 C        2.994    -0.034    28.836     8.809
    42   6 C        2.918     0.087    26.069     8.373
    43  35 Br       1.072    -0.151   189.213    22.179
    44   6 C        2.992    -0.029    28.709     8.789
    45   6 C        2.926    -0.014    28.370     8.735
    46   8 O        0.859    -0.402    21.724     6.249
    47   1 H        0.926     0.070     2.090     2.261
    48   1 H        0.926     0.060     2.197     2.318
    49   1 H        0.926     0.061     2.186     2.312
    50   1 H        0.926     0.071     2.074     2.252
    51   1 H        0.924     0.066     2.131     2.283
    52   1 H        0.924     0.066     2.129     2.282
    53   1 H        0.926     0.077     2.006     2.215
    54   1 H        0.926     0.068     2.107     2.270
    55   1 H        0.926     0.064     2.155     2.295
    56   1 H        0.926     0.051     2.305     2.374
    57   1 H        0.926     0.057     2.232     2.336
    58   1 H        0.926     0.066     2.125     2.280
    59   1 H        0.926     0.073     2.053     2.240
    60   1 H        0.926     0.058     2.225     2.332
    61   1 H        0.923     0.065     2.138     2.287
    62   1 H        0.800     0.368     0.548     1.163
    63   1 H        0.926     0.040     2.448     2.447
    64   1 H        0.926     0.062     2.177     2.308
    65   1 H        0.926     0.067     2.116     2.275
    66   1 H        0.926     0.069     2.099     2.265

Wiberg/Mayer (AO) data.
largest (>0.10) Wiberg bond orders for each atom

     #   Z sym  total        # sym  WBO       # sym  WBO       # sym  WBO
 ---------------------------------------------------------------------------
     1   6 C    3.969 --     6 C    1.414    10 C    1.384     2 C    0.952
                             8 C    0.105
     2   6 C    3.819 --     5 F    0.961     1 C    0.952     3 F    0.946
                             4 F    0.921
     3   9 F    1.076 --     2 C    0.946
     4   9 F    1.047 --     2 C    0.921
     5   9 F    1.083 --     2 C    0.961
     6   6 C    3.987 --     7 C    1.441     1 C    1.414    47 H    0.965
                             9 C    0.109
     7   6 C    3.988 --     6 C    1.441     8 C    1.436    48 H    0.968
                            10 C    0.108
     8   6 C    3.989 --     9 C    1.444     7 C    1.436    49 H    0.968
                             1 C    0.105
     9   6 C    3.987 --     8 C    1.444    10 C    1.413    50 H    0.959
                             6 C    0.109
    10   6 C    3.985 --     9 C    1.413     1 C    1.384    11 C    0.991
                             7 C    0.108
    11   6 C    3.966 --    10 C    0.991    37 N    0.959    51 H    0.953
                            12 C    0.948
    12   6 C    3.965 --    13 C    0.994    23 N    0.960    52 H    0.952
                            11 C    0.948
    13   6 C    3.986 --    22 C    1.407    14 C    1.386    12 C    0.994
                            20 C    0.109
    14   6 C    3.971 --    19 C    1.412    13 C    1.386    15 C    0.950
                            21 C    0.104
    15   6 C    3.824 --    17 F    0.963    14 C    0.950    18 F    0.941
                            16 F    0.932
    16   9 F    1.062 --    15 C    0.932
    17   9 F    1.087 --    15 C    0.963
    18   9 F    1.070 --    15 C    0.941
    19   6 C    3.985 --    20 C    1.444    14 C    1.412    53 H    0.964
                            22 C    0.108
    20   6 C    3.987 --    19 C    1.444    21 C    1.431    54 H    0.967
                            13 C    0.109
    21   6 C    3.989 --    22 C    1.449    20 C    1.431    55 H    0.968
                            14 C    0.104
    22   6 C    3.990 --    21 C    1.449    13 C    1.407    56 H    0.966
                            19 C    0.108
    23   7 N    3.495 --    24 C    1.257    33 C    0.967    12 C    0.960
                            32 O    0.187
    24   6 C    3.942 --    32 O    1.605    23 N    1.257    25 C    0.978
    25   6 C    3.987 --    31 C    1.399    26 C    1.393    24 C    0.978
    26   6 C    3.989 --    27 C    1.450    25 C    1.393    57 H    0.966
                            30 C    0.108
    27   6 C    3.989 --    26 C    1.450    28 C    1.402    58 H    0.966
                            31 C    0.107
    28   6 C    3.945 --    30 C    1.409    27 C    1.402    29 Br   0.997
    29  35 Br   1.135 --    28 C    0.997
    30   6 C    3.988 --    31 C    1.441    28 C    1.409    59 H    0.965
                            26 C    0.108
    31   6 C    3.989 --    30 C    1.441    25 C    1.399    60 H    0.966
                            27 C    0.107
    32   8 O    2.009 --    24 C    1.605    23 N    0.187
    33   6 C    3.958 --    37 N    1.002    23 N    0.967    61 H    0.936
                            34 C    0.885
    34   6 C    3.931 --    36 O    1.776    35 O    1.209    33 C    0.885
    35   8 O    2.246 --    34 C    1.209    62 H    0.776    36 O    0.183
    36   8 O    2.084 --    34 C    1.776    35 O    0.183
    37   7 N    3.448 --    38 C    1.184    33 C    1.002    11 C    0.959
                            46 O    0.188
    38   6 C    3.944 --    46 O    1.713    37 N    1.184    39 C    0.961
    39   6 C    3.987 --    40 C    1.402    45 C    1.402    38 C    0.961
    40   6 C    3.991 --    41 C    1.443    39 C    1.402    63 H    0.967
                            44 C    0.108
    41   6 C    3.989 --    40 C    1.443    42 C    1.407    64 H    0.967
                            45 C    0.109
    42   6 C    3.943 --    44 C    1.409    41 C    1.407    43 Br   0.990
    43  35 Br   1.125 --    42 C    0.990
    44   6 C    3.989 --    45 C    1.443    42 C    1.409    65 H    0.966
                            40 C    0.108
    45   6 C    3.988 --    44 C    1.443    39 C    1.402    66 H    0.965
                            41 C    0.109
    46   8 O    2.043 --    38 C    1.713    37 N    0.188
    47   1 H    0.995 --     6 C    0.965
    48   1 H    0.995 --     7 C    0.968
    49   1 H    0.996 --     8 C    0.968
    50   1 H    0.995 --     9 C    0.959
    51   1 H    0.995 --    11 C    0.953
    52   1 H    0.995 --    12 C    0.952
    53   1 H    0.994 --    19 C    0.964
    54   1 H    0.994 --    20 C    0.967
    55   1 H    0.995 --    21 C    0.968
    56   1 H    0.997 --    22 C    0.966
    57   1 H    0.997 --    26 C    0.966
    58   1 H    0.995 --    27 C    0.966
    59   1 H    0.994 --    30 C    0.965
    60   1 H    0.997 --    31 C    0.966
    61   1 H    0.995 --    33 C    0.936
    62   1 H    0.864 --    35 O    0.776
    63   1 H    0.998 --    40 C    0.967
    64   1 H    0.996 --    41 C    0.967
    65   1 H    0.995 --    44 C    0.966
    66   1 H    0.995 --    45 C    0.965
 ---------------------------------------------------------------------------

molecular dipole:
                 x           y           z       tot (Debye)
 q only:       -1.343      -0.265      -0.707
   full:       -1.396      -0.533      -0.835       4.351

           -------------------------------------------------
          | TOTAL ENERGY             -137.478173644782 Eh   |
          | GRADIENT NORM               0.000543872314 Eh/Î± |
          | HOMO-LUMO GAP               3.019028910218 eV   |
           -------------------------------------------------

 * finished run on 2022/03/16 at 23:36:49.427
