   * xtb version 6.3.3 (4ae9cef) compiled by 'conda@95abc7406d43' on 2020-10-14
          program call               : xtb acid_417.xyz --opt --chrg 0 --uhf 0 --gfn 2
          number of atoms            :                    72
          number of electrons        :                   274
          charge                     :                     0
          spin                       :                   0.0

   ID    Z sym.   atoms
    1    6 C      1-14, 16-20, 24-26, 30, 32, 33, 37-41, 45-47, 51
    2    7 N      15, 36
    3    9 F      21-23, 27-29, 42-44, 48-50
    4    8 O      31, 34, 35, 52
    5    1 H      53-72

          :  Hamiltonian                  GFN2-xTB          :
 * total energy  :  -161.9400403 Eh     change       -0.6959340E-09 Eh
 * total energy  :  -161.9592656 Eh     change       -0.1922524E-01 Eh
 * total energy  :  -161.9655696 Eh     change       -0.6304014E-02 Eh
 * total energy  :  -161.9674310 Eh     change       -0.1861443E-02 Eh
 * total energy  :  -161.9686079 Eh     change       -0.1176873E-02 Eh
 * total energy  :  -161.9694590 Eh     change       -0.8510940E-03 Eh
 * total energy  :  -161.9702118 Eh     change       -0.7527683E-03 Eh
 * total energy  :  -161.9710465 Eh     change       -0.8347668E-03 Eh
 * total energy  :  -161.9719530 Eh     change       -0.9064614E-03 Eh
 * total energy  :  -161.9727169 Eh     change       -0.7639184E-03 Eh
 * total energy  :  -162.0086675 Eh     change       -0.3084607E-04 Eh
 * total energy  :  -162.0087116 Eh     change       -0.4404683E-04 Eh
 * total energy  :  -162.0087508 Eh     change       -0.3927449E-04 Eh
 * total energy  :  -162.0087693 Eh     change       -0.1846935E-04 Eh
 * total energy  :  -162.0087799 Eh     change       -0.1060229E-04 Eh
 * total energy  :  -162.0087916 Eh     change       -0.1164091E-04 Eh
 * total energy  :  -162.0087999 Eh     change       -0.8300787E-05 Eh
 * total energy  :  -162.0088075 Eh     change       -0.7670744E-05 Eh
 * total energy  :  -162.0088122 Eh     change       -0.4707524E-05 Eh
   *** GEOMETRY OPTIMIZATION CONVERGED AFTER 156 ITERATIONS ***

 final structure:
================
72
 xtb: 6.3.3 (4ae9cef)
C        -1.89622404058959   -1.79002782809424   -2.30133313541474
C        -2.44914404289259   -2.58140215635741   -3.29162342366184
C        -2.45543871882150   -3.95930731177920   -3.15511974318928
C        -1.90807328099952   -4.54209643459552   -2.02522021072956
C        -1.35977464454424   -3.75086719063276   -1.03114253957200
C        -1.35146111895845   -2.37010120091290   -1.16240247613852
C        -0.74609745069872   -1.50908746771935   -0.08166769911043
C         0.59471141443585   -0.87191576520761   -0.51289444469851
C         1.74378187202681   -1.37624179568730    0.32286090001662
C         2.74854258446495   -2.14463447538324   -0.24810532170554
C         3.80797977231699   -2.58881394295600    0.52441897838450
C         3.86695341463976   -2.27355649303754    1.87108628331761
C         2.85617890758148   -1.52239279248879    2.44884172419205
C         1.79568950916061   -1.07839728575276    1.68038243078318
N         0.37517382008724    0.55803508682180   -0.34102864219697
C         1.30561579522790    1.51560681454102   -0.15408929619122
C         2.71700531422560    1.11732868987940   -0.45750649238814
C         3.66587869057570    1.16565984044129    0.55655996054442
C         4.96157600812276    0.75094331745279    0.29883101921567
C         5.99109510625357    0.72848402918805    1.39878235708474
F         6.67285761473116   -0.42816714860294    1.41426412402498
F         5.45467795271698    0.87120508794508    2.61541767362959
F         6.90261342333227    1.70266469105745    1.25985430381678
C         5.34216248219933    0.33504227733259   -0.97090601436456
C         4.39885527140466    0.34854554983706   -1.98468757870515
C         4.74976531939073   -0.11132970183221   -3.37574866454050
F         4.07108270084633   -1.23095348288053   -3.69674101492908
F         6.04462834058715   -0.39102602098655   -3.53141131401627
F         4.42796762587567    0.79786312183641   -4.30619866196173
C         3.08659237591785    0.73057895486326   -1.73650336887367
O         1.00209987659269    2.62957914353075    0.22515254579106
C        -1.01399745491981    0.88911624210839   -0.09667964101785
C        -1.13845139252359    1.95489687738144    1.02075264160291
O        -0.59584596142723    1.52844115643629    2.15949851618813
O        -1.76600162599406    2.96660836449937    0.89991391333119
N        -1.60810568936057   -0.37814723032848    0.24442163184386
C        -2.77594214340062   -0.60613114745540    0.89470104004377
C        -3.59651828041002    0.62913968576233    1.12685128051340
C        -3.74567642265052    1.12164800510473    2.41452412754128
C        -4.44259309416600    2.30439463968667    2.61914464232410
C        -4.49604279645541    2.85295505437369    4.02024998420583
F        -3.25526627495415    2.99920597192802    4.52673325779715
F        -5.14356508205098    2.03190324773094    4.86263624262405
F        -5.09067137809666    4.04305737842608    4.10678579159911
C        -5.03110538271600    2.98045643410951    1.56245512917952
C        -4.91980388012695    2.44485677824640    0.28777358462670
C        -5.58308031502294    3.12675191873881   -0.88049664379918
F        -5.82373911968002    4.42193840779379   -0.66632014461152
F        -6.76988742145159    2.56103530693198   -1.17264303883093
F        -4.84753268633394    3.04268872804221   -1.99886484196612
C        -4.20475924494377    1.27860701424122    0.06162281304996
O        -3.11836788113393   -1.71104510673731    1.24594768994378
H        -1.89380716469425   -0.71493354832037   -2.41382947260487
H        -2.87661732004443   -2.12141953587039   -4.16988482546958
H        -2.88940486015821   -4.57625434729406   -3.92718058821298
H        -1.91354500019358   -5.61563792726838   -1.91338901123235
H        -0.94204573918974   -4.20493083231889   -0.14524475702512
H        -0.61642812559196   -2.11496425298502    0.82290354402317
H         0.77993380537604   -1.09475009906157   -1.57213940790002
H         2.70449761625219   -2.39197888104036   -1.29892816033425
H         4.58929042212923   -3.18000389632463    0.07214229558429
H         4.69806567184736   -2.61321038472959    2.46928863316972
H         2.89650959089347   -1.28046611420598    3.49970529247057
H         1.01224459153800   -0.48499719419532    2.12961255786407
H         3.38128741796545    1.50035200854818    1.54196468686841
H         6.35346393879681    0.00924609514490   -1.16119439928468
H         2.36575872260969    0.72639100742177   -2.54039691448401
H        -1.46639045915220    1.33499258414048   -1.00124972364502
H        -0.66096596661017    2.21583891313485    2.84338485904745
H        -3.29648866152317    0.60133087322759    3.24762804361417
H        -5.55655131156401    3.90885641023302    1.72554805430471
H        -4.11912353608086    0.88293928492995   -0.93943794138257

          :  Hamiltonian                  GFN2-xTB          :
         :: total energy            -162.008812230791 Eh    ::
         :: gradient norm              0.000524831965 Eh/a0 ::
         :: HOMO-LUMO gap              2.950919857700 eV    ::
         :: SCC energy              -163.685109793551 Eh    ::
         :: -> dispersion             -0.107137447851 Eh    ::
         :: repulsion energy           1.673080182327 Eh    ::

    * Orbital Energies and Occupations

         #    Occupation            Energy/Eh            Energy/eV
      -------------------------------------------------------------
         1        2.0000           -0.9059118             -24.6511
       ...           ...                  ...                  ...
       125        2.0000           -0.4721572             -12.8481
       126        2.0000           -0.4648489             -12.6492
       127        2.0000           -0.4583860             -12.4733
       128        2.0000           -0.4573327             -12.4447
       129        2.0000           -0.4495585             -12.2331
       130        2.0000           -0.4474060             -12.1745
       131        2.0000           -0.4436702             -12.0729
       132        2.0000           -0.4419750             -12.0268
       133        2.0000           -0.4414557             -12.0126
       134        2.0000           -0.4351712             -11.8416
       135        2.0000           -0.4300162             -11.7013
       136        2.0000           -0.4273902             -11.6299
       137        2.0000           -0.4240958             -11.5402 (HOMO)
       138                         -0.3156515              -8.5893 (LUMO)
       139                         -0.3143891              -8.5550
       140                         -0.3034656              -8.2577
       141                         -0.3007648              -8.1842
       142                         -0.2747972              -7.4776
       143                         -0.2659350              -7.2365
       144                         -0.2603536              -7.0846
       145                         -0.2587280              -7.0403
       146                         -0.2510648              -6.8318
       147                         -0.2477228              -6.7409
       148                         -0.2465459              -6.7089
       ...                                ...                  ...
       228                          0.6402794              17.4229
      -------------------------------------------------------------
                  HL-Gap            0.1084443 Eh            2.9509 eV

     #   Z          covCN         q      C6AA      Î±(0)
     1   6 C        2.924    -0.034    28.859     8.810
     2   6 C        2.919    -0.026    28.659     8.779
     3   6 C        2.920    -0.026    28.642     8.776
     4   6 C        2.920    -0.023    28.584     8.767
     5   6 C        2.924    -0.028    28.709     8.787
     6   6 C        2.973     0.003    27.954     8.673
     7   6 C        3.825     0.041    19.861     6.342
     8   6 C        3.812     0.032    20.024     6.369
     9   6 C        2.974    -0.008    28.219     8.714
    10   6 C        2.922    -0.041    29.023     8.835
    11   6 C        2.920    -0.029    28.732     8.790
    12   6 C        2.920    -0.029    28.714     8.787
    13   6 C        2.919    -0.028    28.695     8.784
    14   6 C        2.923    -0.039    28.980     8.828
    15   7 N        2.765    -0.097    23.137     7.144
    16   6 C        2.770     0.275    22.354     7.743
    17   6 C        2.978     0.008    27.828     8.653
    18   6 C        2.923    -0.009    28.238     8.714
    19   6 C        2.978    -0.011    28.289     8.725
    20   6 C        3.336     0.488    17.260     6.579
    21   9 F        0.791    -0.200    11.230     3.959
    22   9 F        0.791    -0.196    11.193     3.952
    23   9 F        0.791    -0.195    11.181     3.950
    24   6 C        2.921    -0.016    28.409     8.741
    25   6 C        2.978    -0.011    28.290     8.725
    26   6 C        3.336     0.489    17.246     6.576
    27   9 F        0.791    -0.205    11.286     3.968
    28   9 F        0.791    -0.192    11.153     3.945
    29   9 F        0.791    -0.196    11.193     3.952
    30   6 C        2.924    -0.016    28.408     8.741
    31   8 O        0.860    -0.400    21.685     6.244
    32   6 C        3.757     0.091    19.118     6.234
    33   6 C        2.686     0.366    20.787     7.461
    34   8 O        1.659    -0.366    20.206     6.068
    35   8 O        0.856    -0.388    21.447     6.209
    36   7 N        2.763    -0.106    23.323     7.173
    37   6 C        2.765     0.272    22.398     7.751
    38   6 C        2.979    -0.003    28.083     8.693
    39   6 C        2.926    -0.011    28.299     8.724
    40   6 C        2.979    -0.008    28.216     8.713
    41   6 C        3.337     0.489    17.236     6.573
    42   9 F        0.791    -0.207    11.309     3.972
    43   9 F        0.791    -0.198    11.219     3.957
    44   9 F        0.791    -0.191    11.146     3.944
    45   6 C        2.920    -0.010    28.272     8.719
    46   6 C        2.979    -0.004    28.113     8.697
    47   6 C        3.336     0.489    17.247     6.577
    48   9 F        0.791    -0.192    11.148     3.944
    49   9 F        0.791    -0.202    11.254     3.963
    50   9 F        0.791    -0.199    11.226     3.958
    51   6 C        2.924    -0.013    28.345     8.731
    52   8 O        0.859    -0.395    21.572     6.227
    53   1 H        0.926     0.026     2.643     2.542
    54   1 H        0.926     0.043     2.411     2.428
    55   1 H        0.926     0.044     2.391     2.418
    56   1 H        0.926     0.046     2.374     2.410
    57   1 H        0.926     0.042     2.422     2.434
    58   1 H        0.924     0.076     2.017     2.221
    59   1 H        0.923     0.056     2.241     2.341
    60   1 H        0.926     0.038     2.482     2.464
    61   1 H        0.926     0.048     2.348     2.396
    62   1 H        0.926     0.053     2.288     2.366
    63   1 H        0.926     0.051     2.306     2.374
    64   1 H        0.926     0.048     2.340     2.392
    65   1 H        0.926     0.091     1.869     2.138
    66   1 H        0.926     0.094     1.844     2.124
    67   1 H        0.926     0.077     2.010     2.217
    68   1 H        0.922     0.067     2.114     2.274
    69   1 H        0.804     0.352     0.583     1.199
    70   1 H        0.926     0.081     1.968     2.194
    71   1 H        0.926     0.097     1.810     2.104
    72   1 H        0.926     0.075     2.031     2.229

Wiberg/Mayer (AO) data.
largest (>0.10) Wiberg bond orders for each atom

     #   Z sym  total        # sym  WBO       # sym  WBO       # sym  WBO
 ---------------------------------------------------------------------------
     1   6 C    3.992 --     2 C    1.447     6 C    1.411    53 H    0.968
                             4 C    0.112
     2   6 C    3.992 --     1 C    1.447     3 C    1.436    54 H    0.970
                             5 C    0.111
     3   6 C    3.990 --     4 C    1.441     2 C    1.436    55 H    0.970
                             6 C    0.110
     4   6 C    3.991 --     5 C    1.442     3 C    1.441    56 H    0.970
                             1 C    0.112
     5   6 C    3.990 --     4 C    1.442     6 C    1.416    57 H    0.968
                             2 C    0.111
     6   6 C    3.983 --     5 C    1.416     1 C    1.411     7 C    0.985
                             3 C    0.110
     7   6 C    3.956 --     6 C    0.985     8 C    0.954    36 N    0.952
                            58 H    0.952
     8   6 C    3.960 --     9 C    0.989    15 N    0.955     7 C    0.954
                            59 H    0.954
     9   6 C    3.984 --    10 C    1.415    14 C    1.405     8 C    0.989
                            12 C    0.109
    10   6 C    3.990 --    11 C    1.440     9 C    1.415    60 H    0.968
                            13 C    0.109
    11   6 C    3.991 --    12 C    1.441    10 C    1.440    61 H    0.970
                            14 C    0.111
    12   6 C    3.989 --    11 C    1.441    13 C    1.434    62 H    0.970
                             9 C    0.109
    13   6 C    3.991 --    14 C    1.449    12 C    1.434    63 H    0.969
                            10 C    0.109
    14   6 C    3.990 --    13 C    1.449     9 C    1.405    64 H    0.966
                            11 C    0.111
    15   7 N    3.489 --    16 C    1.245    32 C    0.976     8 C    0.955
                            31 O    0.198
    16   6 C    3.953 --    31 O    1.663    15 N    1.245    17 C    0.959
    17   6 C    3.988 --    30 C    1.415    18 C    1.397    16 C    0.959
                            24 C    0.109
    18   6 C    3.983 --    19 C    1.429    17 C    1.397    65 H    0.961
                            25 C    0.105
    19   6 C    3.981 --    18 C    1.429    24 C    1.406    20 C    0.948
                            30 C    0.105
    20   6 C    3.839 --    22 F    0.957    23 F    0.951    19 C    0.948
                            21 F    0.948
    21   9 F    1.076 --    20 C    0.948
    22   9 F    1.082 --    20 C    0.957
    23   9 F    1.082 --    20 C    0.951
    24   6 C    3.984 --    25 C    1.425    19 C    1.406    66 H    0.961
                            17 C    0.109
    25   6 C    3.981 --    24 C    1.425    30 C    1.410    26 C    0.949
                            18 C    0.105
    26   6 C    3.838 --    28 F    0.962    29 F    0.952    25 C    0.949
                            27 F    0.940
    27   9 F    1.070 --    26 C    0.940
    28   9 F    1.087 --    26 C    0.962
    29   9 F    1.081 --    26 C    0.952
    30   6 C    3.987 --    17 C    1.415    25 C    1.410    67 H    0.964
                            19 C    0.105
    31   8 O    2.074 --    16 C    1.663    15 N    0.198
    32   6 C    3.963 --    36 N    0.987    15 N    0.976    68 H    0.940
                            33 C    0.906
    33   6 C    3.928 --    35 O    1.770    34 O    1.145    32 C    0.906
    34   8 O    2.205 --    33 C    1.145    69 H    0.851    35 O    0.172
    35   8 O    2.063 --    33 C    1.770    34 O    0.172
    36   7 N    3.474 --    37 C    1.216    32 C    0.987     7 C    0.952
                            52 O    0.201
    37   6 C    3.955 --    52 O    1.706    36 N    1.216    38 C    0.952
    38   6 C    3.987 --    39 C    1.412    51 C    1.405    37 C    0.952
                            45 C    0.109
    39   6 C    3.986 --    40 C    1.415    38 C    1.412    70 H    0.964
                            46 C    0.106
    40   6 C    3.981 --    45 C    1.420    39 C    1.415    41 C    0.950
                            51 C    0.106
    41   6 C    3.836 --    44 F    0.963    40 C    0.950    43 F    0.949
                            42 F    0.940
    42   9 F    1.068 --    41 C    0.940
    43   9 F    1.078 --    41 C    0.949
    44   9 F    1.089 --    41 C    0.963
    45   6 C    3.983 --    40 C    1.420    46 C    1.413    71 H    0.960
                            38 C    0.109
    46   6 C    3.982 --    51 C    1.423    45 C    1.413    47 C    0.949
                            39 C    0.106
    47   6 C    3.838 --    48 F    0.961    50 F    0.951    46 C    0.949
                            49 F    0.942
    48   9 F    1.087 --    47 C    0.961
    49   9 F    1.074 --    47 C    0.942
    50   9 F    1.077 --    47 C    0.951
    51   6 C    3.987 --    46 C    1.423    38 C    1.405    72 H    0.964
                            40 C    0.106
    52   8 O    2.044 --    37 C    1.706    36 N    0.201
    53   1 H    0.999 --     1 C    0.968
    54   1 H    0.998 --     2 C    0.970
    55   1 H    0.997 --     3 C    0.970
    56   1 H    0.997 --     4 C    0.970
    57   1 H    0.998 --     5 C    0.968
    58   1 H    0.994 --     7 C    0.952
    59   1 H    0.996 --     8 C    0.954
    60   1 H    0.999 --    10 C    0.968
    61   1 H    0.997 --    11 C    0.970
    62   1 H    0.997 --    12 C    0.970
    63   1 H    0.997 --    13 C    0.969
    64   1 H    0.998 --    14 C    0.966
    65   1 H    0.991 --    18 C    0.961
    66   1 H    0.991 --    24 C    0.961
    67   1 H    0.994 --    30 C    0.964
    68   1 H    0.995 --    32 C    0.940
    69   1 H    0.876 --    34 O    0.851
    70   1 H    0.993 --    39 C    0.964
    71   1 H    0.990 --    45 C    0.960
    72   1 H    0.994 --    51 C    0.964
 ---------------------------------------------------------------------------

molecular dipole:
                 x           y           z       tot (Debye)
 q only:        0.907      -2.213      -0.409
   full:        1.005      -1.990      -0.442       5.778

           -------------------------------------------------
          | TOTAL ENERGY             -162.008812230791 Eh   |
          | GRADIENT NORM               0.000524831965 Eh/Î± |
          | HOMO-LUMO GAP               2.950919857700 eV   |
           -------------------------------------------------

 * finished run on 2022/03/17 at 00:58:00.967
