   * xtb version 6.3.3 (4ae9cef) compiled by 'conda@95abc7406d43' on 2020-10-14
          program call               : xtb acid_8.xyz --opt --chrg 0 --uhf 0 --gfn 2
          number of atoms            :                    72
          number of electrons        :                   238
          charge                     :                     0
          spin                       :                   0.0

   ID    Z sym.   atoms
    1    6 C      1, 2, 6-15, 19-22, 24-31, 33, 34, 38-45
    2    9 F      3-5, 16-18
    3    7 N      23, 37
    4    8 O      32, 35, 36, 46
    5    1 H      47-72

          :  Hamiltonian                  GFN2-xTB          :
 * total energy  :  -136.6244197 Eh     change       -0.1663381E-08 Eh
 * total energy  :  -136.6416461 Eh     change       -0.1722646E-01 Eh
 * total energy  :  -136.6470685 Eh     change       -0.5422358E-02 Eh
 * total energy  :  -136.6487446 Eh     change       -0.1676095E-02 Eh
 * total energy  :  -136.6499066 Eh     change       -0.1161989E-02 Eh
 * total energy  :  -136.6506722 Eh     change       -0.7656038E-03 Eh
 * total energy  :  -136.6512674 Eh     change       -0.5952720E-03 Eh
 * total energy  :  -136.6519682 Eh     change       -0.7008070E-03 Eh
 * total energy  :  -136.6527322 Eh     change       -0.7639098E-03 Eh
 * total energy  :  -136.6532532 Eh     change       -0.5210671E-03 Eh
 * total energy  :  -136.6555471 Eh     change       -0.2527803E-04 Eh
 * total energy  :  -136.6555678 Eh     change       -0.2065159E-04 Eh
 * total energy  :  -136.6555848 Eh     change       -0.1705301E-04 Eh
 * total energy  :  -136.6556057 Eh     change       -0.2088784E-04 Eh
 * total energy  :  -136.6556197 Eh     change       -0.1402350E-04 Eh
 * total energy  :  -136.6556268 Eh     change       -0.7026004E-05 Eh
 * total energy  :  -136.6556363 Eh     change       -0.9555566E-05 Eh
 * total energy  :  -136.6556424 Eh     change       -0.6034926E-05 Eh
 * total energy  :  -136.6556470 Eh     change       -0.4667252E-05 Eh
   *** GEOMETRY OPTIMIZATION CONVERGED AFTER 66 ITERATIONS ***

 final structure:
================
72
 xtb: 6.3.3 (4ae9cef)
C         1.48690738464613    3.65509997931705    0.76575116348031
C         0.66029332060395    3.92716260298007    1.99104556931299
F         0.90802243360236    5.12237014704485    2.53898766094435
F        -0.66834319026260    3.92046043402286    1.72366566054400
F         0.82906446453073    3.02967790521877    2.97855014435824
C         2.36405770531684    4.64132403520746    0.33060246961120
C         3.12313179139313    4.44749071389677   -0.80688905905652
C         3.00196588076573    3.26738291667071   -1.51892669912146
C         2.12935002448555    2.28761022209733   -1.08852944299600
C         1.36477860171940    2.45801563806727    0.05988418987903
C         0.42102445642511    1.35645683078796    0.46789387586089
C        -0.74876447251277    1.18546175680456   -0.52440550929855
C        -1.97572378777206    1.94298606594932   -0.09116188766522
C        -2.47430947470937    3.04326098440935   -0.78803090703295
C        -1.79725727321781    3.54528821217548   -2.03214214559734
F        -0.51843761003451    3.92822246947010   -1.80048004514884
F        -2.39969676307802    4.61471662023704   -2.56467496093498
F        -1.72413036502911    2.63583601377439   -3.02044626824232
C        -3.59969329103179    3.71646411375631   -0.32827599974112
C        -4.23541056225954    3.30444196863724    0.82654843083084
C        -3.74123078874490    2.22187738672391    1.53259039391240
C        -2.62084794794086    1.55597975624280    1.07792561138961
N        -0.97523952933765   -0.25660753846721   -0.50945337961561
C        -2.11674672699189   -0.81713587888374   -1.00645760336334
C        -2.12993389831630   -2.31317879481248   -0.98640644446256
C        -2.43747360145542   -3.01480237867964    0.17987635504692
C        -2.78456296554423   -2.28578933108049    1.44445340629443
C        -2.43906003307098   -4.40218100982630    0.13402736372016
C        -2.15851642389341   -5.07852079943961   -1.03973911722273
C        -1.89350160817386   -4.37336703283731   -2.20002320513523
C        -1.88534202067519   -2.99131991037567   -2.17254372984973
O        -3.03233417680770   -0.14249289648613   -1.42177442219493
C         0.22513617450444   -0.96856758281816   -0.14300264500319
C         0.88614494251163   -1.64131708606126   -1.36589862572371
O         1.28356294646685   -0.74862810113808   -2.26871461600951
O         0.99379342315992   -2.82608422052895   -1.50459159666305
N         1.06898159890200    0.04964493359233    0.43461397929057
C         2.31657199822518   -0.15159114582920    0.94614685540423
C         2.84132540693744   -1.53438294228709    0.71713294084906
C         3.75700379528175   -1.69955879850049   -0.31723275296931
C         4.26499278662161   -2.95136465949368   -0.60556102264952
C         3.86415138333909   -4.04216230084134    0.14768352697195
C         2.98119502188913   -3.87175211038257    1.19636565209975
C         2.46197643284572   -2.61946809335127    1.50318160837295
C         1.53371733947577   -2.46451508820805    2.67144519637995
O         2.94424866707062    0.73792434880629    1.47494868332858
H         2.44991176652858    5.56130822296056    0.88736682546562
H         3.80342667668508    5.21757348344579   -1.13508158201563
H         3.58677177111808    3.11073631881462   -2.41260996392005
H         2.03792223819980    1.36786933756990   -1.64558091825084
H         0.02905411644305    1.52616867317808    1.47630297116773
H        -0.42315807773376    1.48218840579440   -1.52677070456812
H        -3.97514084745283    4.56454734806505   -0.87919305111627
H        -5.11050759648847    3.83061244236365    1.17395685720159
H        -4.22709305394425    1.89749000290994    2.44024786655667
H        -2.23867029188653    0.71257616906228    1.63278508700357
H        -3.46836231117363   -1.46654256048954    1.22877445370209
H        -3.25803164658243   -2.95972436255093    2.15448272982020
H        -1.89433282283103   -1.86937492279589    1.91836549526403
H        -2.67115359716030   -4.95877541958493    1.03093746834144
H        -2.16098859542817   -6.15810101271041   -1.05100451461172
H        -1.69423127230304   -4.89581853754359   -3.12270293007806
H        -1.69038444672528   -2.42682257459589   -3.07286944182799
H         0.00156488907013   -1.77895317773762    0.56706299155143
H         1.67028799588860   -1.18818048368192   -3.04437701023673
H         4.06264923556834   -0.83547095400864   -0.89025107670911
H         4.96922970568078   -3.07641070095298   -1.41410884304222
H         4.24876602016564   -5.02535410334153   -0.07753463259121
H         2.68435142150619   -4.72147251327849    1.79372536605526
H         1.26591111963430   -1.42258830676143    2.83228657993200
H         0.62961197878854   -3.05606903281662    2.52264306020765
H         2.01775915455993   -2.83178109690656    3.57518326451596

          :  Hamiltonian                  GFN2-xTB          :
         :: total energy            -136.655647032011 Eh    ::
         :: gradient norm              0.000550593804 Eh/a0 ::
         :: HOMO-LUMO gap              3.304919439380 eV    ::
         :: SCC energy              -138.369702159411 Eh    ::
         :: -> dispersion             -0.107923799937 Eh    ::
         :: repulsion energy           1.709174245870 Eh    ::

    * Orbital Energies and Occupations

         #    Occupation            Energy/Eh            Energy/eV
      -------------------------------------------------------------
         1        2.0000           -0.8763130             -23.8457
       ...           ...                  ...                  ...
       107        2.0000           -0.4381113             -11.9216
       108        2.0000           -0.4363190             -11.8728
       109        2.0000           -0.4357015             -11.8560
       110        2.0000           -0.4324978             -11.7689
       111        2.0000           -0.4299064             -11.6983
       112        2.0000           -0.4222342             -11.4896
       113        2.0000           -0.4184454             -11.3865
       114        2.0000           -0.4165039             -11.3336
       115        2.0000           -0.4113917             -11.1945
       116        2.0000           -0.4106403             -11.1741
       117        2.0000           -0.4077719             -11.0960
       118        2.0000           -0.4023812             -10.9494
       119        2.0000           -0.4010271             -10.9125 (HOMO)
       120                         -0.2795736              -7.6076 (LUMO)
       121                         -0.2631564              -7.1608
       122                         -0.2589009              -7.0451
       123                         -0.2531792              -6.8894
       124                         -0.2497548              -6.7962
       125                         -0.2435344              -6.6269
       126                         -0.2415639              -6.5733
       127                         -0.2369205              -6.4469
       128                         -0.2340698              -6.3694
       129                         -0.2265760              -6.1654
       130                         -0.2219814              -6.0404
       ...                                ...                  ...
       210                          0.6526186              17.7587
      -------------------------------------------------------------
                  HL-Gap            0.1214536 Eh            3.3049 eV

     #   Z          covCN         q      C6AA      Î±(0)
     1   6 C        2.976    -0.024    28.596     8.772
     2   6 C        3.336     0.485    17.298     6.587
     3   9 F        0.792    -0.200    11.231     3.959
     4   9 F        0.791    -0.225    11.498     4.006
     5   9 F        0.791    -0.206    11.293     3.970
     6   6 C        2.924    -0.019    28.476     8.751
     7   6 C        2.920    -0.020    28.506     8.755
     8   6 C        2.919    -0.015    28.397     8.739
     9   6 C        2.927    -0.024    28.614     8.772
    10   6 C        2.971     0.026    27.419     8.589
    11   6 C        3.823     0.048    19.753     6.325
    12   6 C        3.826     0.048    19.759     6.325
    13   6 C        2.972     0.028    27.380     8.583
    14   6 C        2.977    -0.023    28.582     8.769
    15   6 C        3.336     0.486    17.295     6.587
    16   9 F        0.791    -0.224    11.489     4.004
    17   9 F        0.792    -0.200    11.232     3.959
    18   9 F        0.791    -0.206    11.294     3.970
    19   6 C        2.923    -0.018    28.458     8.748
    20   6 C        2.921    -0.020    28.496     8.754
    21   6 C        2.919    -0.015    28.388     8.737
    22   6 C        2.928    -0.021    28.535     8.760
    23   7 N        2.767    -0.118    23.566     7.210
    24   6 C        2.761     0.274    22.363     7.744
    25   6 C        2.982    -0.031    28.772     8.799
    26   6 C        2.968     0.017    27.638     8.623
    27   6 C        3.757    -0.109    22.632     6.783
    28   6 C        2.925    -0.036    28.906     8.817
    29   6 C        2.919    -0.025    28.639     8.776
    30   6 C        2.920    -0.025    28.622     8.773
    31   6 C        2.924    -0.021    28.541     8.761
    32   8 O        0.859    -0.412    21.914     6.276
    33   6 C        3.753     0.088    19.183     6.246
    34   6 C        2.687     0.350    21.064     7.511
    35   8 O        1.659    -0.356    20.017     6.040
    36   8 O        0.856    -0.383    21.354     6.196
    37   7 N        2.768    -0.119    23.591     7.214
    38   6 C        2.762     0.274    22.374     7.746
    39   6 C        2.982    -0.033    28.805     8.804
    40   6 C        2.925    -0.028    28.700     8.785
    41   6 C        2.919    -0.029    28.728     8.789
    42   6 C        2.919    -0.023    28.584     8.767
    43   6 C        2.927    -0.033    28.821     8.804
    44   6 C        2.967     0.019    27.593     8.616
    45   6 C        3.757    -0.110    22.646     6.785
    46   8 O        0.859    -0.412    21.930     6.279
    47   1 H        0.926     0.068     2.108     2.271
    48   1 H        0.926     0.058     2.223     2.332
    49   1 H        0.926     0.055     2.262     2.352
    50   1 H        0.926     0.059     2.205     2.322
    51   1 H        0.924     0.062     2.171     2.304
    52   1 H        0.924     0.066     2.133     2.284
    53   1 H        0.926     0.068     2.102     2.267
    54   1 H        0.926     0.059     2.213     2.326
    55   1 H        0.926     0.056     2.241     2.341
    56   1 H        0.926     0.050     2.325     2.384
    57   1 H        0.925     0.053     2.287     2.365
    58   1 H        0.925     0.051     2.312     2.378
    59   1 H        0.924     0.037     2.485     2.465
    60   1 H        0.926     0.039     2.460     2.453
    61   1 H        0.926     0.041     2.432     2.439
    62   1 H        0.926     0.043     2.407     2.426
    63   1 H        0.926     0.034     2.535     2.490
    64   1 H        0.923     0.072     2.066     2.248
    65   1 H        0.804     0.345     0.601     1.217
    66   1 H        0.926     0.034     2.527     2.486
    67   1 H        0.926     0.040     2.451     2.448
    68   1 H        0.926     0.043     2.411     2.428
    69   1 H        0.926     0.044     2.402     2.424
    70   1 H        0.925     0.041     2.442     2.444
    71   1 H        0.924     0.046     2.364     2.404
    72   1 H        0.925     0.060     2.196     2.317

Wiberg/Mayer (AO) data.
largest (>0.10) Wiberg bond orders for each atom

     #   Z sym  total        # sym  WBO       # sym  WBO       # sym  WBO
 ---------------------------------------------------------------------------
     1   6 C    3.969 --     6 C    1.412    10 C    1.386     2 C    0.952
                             8 C    0.104
     2   6 C    3.820 --     3 F    0.957     1 C    0.952     5 F    0.945
                             4 F    0.927
     3   9 F    1.080 --     2 C    0.957
     4   9 F    1.053 --     2 C    0.927
     5   9 F    1.075 --     2 C    0.945
     6   6 C    3.987 --     7 C    1.444     1 C    1.412    47 H    0.966
                             9 C    0.109
     7   6 C    3.988 --     6 C    1.444     8 C    1.432    48 H    0.969
                            10 C    0.108
     8   6 C    3.990 --     9 C    1.450     7 C    1.432    49 H    0.969
                             1 C    0.104
     9   6 C    3.989 --     8 C    1.450    10 C    1.407    50 H    0.961
                             6 C    0.109
    10   6 C    3.986 --     9 C    1.407     1 C    1.386    11 C    0.995
                             7 C    0.108
    11   6 C    3.967 --    10 C    0.995    37 N    0.955    51 H    0.952
                            12 C    0.950
    12   6 C    3.967 --    13 C    0.996    23 N    0.955    52 H    0.952
                            11 C    0.950
    13   6 C    3.986 --    22 C    1.405    14 C    1.386    12 C    0.996
                            20 C    0.108
    14   6 C    3.969 --    19 C    1.411    13 C    1.386    15 C    0.952
                            21 C    0.104
    15   6 C    3.820 --    17 F    0.957    14 C    0.952    18 F    0.945
                            16 F    0.927
    16   9 F    1.054 --    15 C    0.927
    17   9 F    1.080 --    15 C    0.957
    18   9 F    1.074 --    15 C    0.945
    19   6 C    3.987 --    20 C    1.445    14 C    1.411    53 H    0.965
                            22 C    0.109
    20   6 C    3.988 --    19 C    1.445    21 C    1.430    54 H    0.969
                            13 C    0.108
    21   6 C    3.990 --    22 C    1.451    20 C    1.430    55 H    0.969
                            14 C    0.104
    22   6 C    3.990 --    21 C    1.451    13 C    1.405    56 H    0.964
                            19 C    0.109
    23   7 N    3.448 --    24 C    1.187    33 C    0.986    12 C    0.955
                            32 O    0.186
    24   6 C    3.940 --    32 O    1.709    23 N    1.187    25 C    0.957
    25   6 C    3.984 --    31 C    1.412    26 C    1.376    24 C    0.957
                            29 C    0.109
    26   6 C    3.988 --    28 C    1.416    25 C    1.376    27 C    1.024
                            30 C    0.108
    27   6 C    3.995 --    26 C    1.024    58 H    0.983    57 H    0.974
                            59 H    0.966
    28   6 C    3.991 --    29 C    1.442    26 C    1.416    60 H    0.968
                            31 C    0.109
    29   6 C    3.992 --    28 C    1.442    30 C    1.438    61 H    0.970
                            25 C    0.109
    30   6 C    3.991 --    31 C    1.438    29 C    1.438    62 H    0.970
                            26 C    0.108
    31   6 C    3.991 --    30 C    1.438    25 C    1.412    63 H    0.970
                            28 C    0.109
    32   8 O    2.039 --    24 C    1.709    23 N    0.186
    33   6 C    3.970 --    37 N    0.987    23 N    0.986    64 H    0.939
                            34 C    0.906
    34   6 C    3.921 --    36 O    1.784    35 O    1.153    33 C    0.906
    35   8 O    2.225 --    34 C    1.153    65 H    0.855    36 O    0.182
    36   8 O    2.067 --    34 C    1.784    35 O    0.182
    37   7 N    3.449 --    38 C    1.191    33 C    0.987    11 C    0.955
                            46 O    0.190
    38   6 C    3.942 --    46 O    1.707    37 N    1.191    39 C    0.956
    39   6 C    3.985 --    40 C    1.395    44 C    1.386    38 C    0.956
                            42 C    0.106
    40   6 C    3.991 --    41 C    1.449    39 C    1.395    66 H    0.970
                            43 C    0.110
    41   6 C    3.992 --    40 C    1.449    42 C    1.428    67 H    0.970
                            44 C    0.107
    42   6 C    3.991 --    43 C    1.452    41 C    1.428    68 H    0.970
                            39 C    0.106
    43   6 C    3.991 --    42 C    1.452    44 C    1.407    69 H    0.968
                            40 C    0.110
    44   6 C    3.988 --    43 C    1.407    39 C    1.386    45 C    1.025
                            41 C    0.107
    45   6 C    3.996 --    44 C    1.025    70 H    0.983    72 H    0.970
                            71 H    0.970
    46   8 O    2.037 --    38 C    1.707    37 N    0.190
    47   1 H    0.995 --     6 C    0.966
    48   1 H    0.996 --     7 C    0.969
    49   1 H    0.996 --     8 C    0.969
    50   1 H    0.996 --     9 C    0.961
    51   1 H    0.995 --    11 C    0.952
    52   1 H    0.995 --    12 C    0.952
    53   1 H    0.995 --    19 C    0.965
    54   1 H    0.996 --    20 C    0.969
    55   1 H    0.996 --    21 C    0.969
    56   1 H    0.997 --    22 C    0.964
    57   1 H    0.997 --    27 C    0.974
    58   1 H    0.997 --    27 C    0.983
    59   1 H    0.999 --    27 C    0.966
    60   1 H    0.998 --    28 C    0.968
    61   1 H    0.998 --    29 C    0.970
    62   1 H    0.997 --    30 C    0.970
    63   1 H    0.999 --    31 C    0.970
    64   1 H    0.994 --    33 C    0.939
    65   1 H    0.881 --    35 O    0.855
    66   1 H    0.999 --    40 C    0.970
    67   1 H    0.997 --    41 C    0.970
    68   1 H    0.997 --    42 C    0.970
    69   1 H    0.997 --    43 C    0.968
    70   1 H    0.998 --    45 C    0.983
    71   1 H    0.998 --    45 C    0.970
    72   1 H    0.996 --    45 C    0.970
 ---------------------------------------------------------------------------

molecular dipole:
                 x           y           z       tot (Debye)
 q only:        0.304      -1.501      -0.032
   full:        0.419      -1.738      -0.191       4.570

           -------------------------------------------------
          | TOTAL ENERGY             -136.655647032011 Eh   |
          | GRADIENT NORM               0.000550593804 Eh/Î± |
          | HOMO-LUMO GAP               3.304919439380 eV   |
           -------------------------------------------------

 * finished run on 2022/03/17 at 02:06:14.255
