   * xtb version 6.3.3 (4ae9cef) compiled by 'conda@95abc7406d43' on 2020-10-14
          program call               : xtb acid_434.xyz --opt --chrg 0 --uhf 0 --gfn 2
          number of atoms            :                    80
          number of electrons        :                   226
          charge                     :                     0
          spin                       :                   0.0

   ID    Z sym.   atoms
    1    6 C      1, 3-16, 18, 20-28, 30, 31, 35-43
    2    8 O      2, 17, 29, 32, 33, 44
    3    7 N      19, 34
    4    1 H      45-80

          :  Hamiltonian                  GFN2-xTB          :
 * total energy  :  -125.7263409 Eh     change       -0.1926139E-08 Eh
 * total energy  :  -125.7428065 Eh     change       -0.1646563E-01 Eh
 * total energy  :  -125.7483350 Eh     change       -0.5528479E-02 Eh
 * total energy  :  -125.7502328 Eh     change       -0.1897875E-02 Eh
 * total energy  :  -125.7516407 Eh     change       -0.1407891E-02 Eh
 * total energy  :  -125.7526048 Eh     change       -0.9640117E-03 Eh
 * total energy  :  -125.7534501 Eh     change       -0.8453902E-03 Eh
 * total energy  :  -125.7542730 Eh     change       -0.8228971E-03 Eh
 * total energy  :  -125.7550906 Eh     change       -0.8175733E-03 Eh
 * total energy  :  -125.7557635 Eh     change       -0.6728956E-03 Eh
 * total energy  :  -125.7652078 Eh     change       -0.2027486E-04 Eh
 * total energy  :  -125.7652188 Eh     change       -0.1099940E-04 Eh
 * total energy  :  -125.7652259 Eh     change       -0.7104881E-05 Eh
 * total energy  :  -125.7652340 Eh     change       -0.8023298E-05 Eh
 * total energy  :  -125.7652438 Eh     change       -0.9849832E-05 Eh
 * total energy  :  -125.7652522 Eh     change       -0.8403270E-05 Eh
 * total energy  :  -125.7652587 Eh     change       -0.6532748E-05 Eh
 * total energy  :  -125.7652643 Eh     change       -0.5504396E-05 Eh
 * total energy  :  -125.7652691 Eh     change       -0.4884802E-05 Eh
   *** GEOMETRY OPTIMIZATION CONVERGED AFTER 77 ITERATIONS ***

 final structure:
================
80
 xtb: 6.3.3 (4ae9cef)
C        -1.75503505106737    2.79300376336381    0.79952224044014
O        -1.19034232018041    1.72288200028777    1.43726774433478
C        -1.41312233195627    1.57219052911271    2.81710554569519
C        -2.63862142309199    3.67964409559278    1.39928442878905
C        -3.16902577835275    4.73428431803174    0.67545939056029
C        -2.83103406698267    4.91129023488778   -0.65147233655500
C        -1.95500653045295    4.02535098153042   -1.25401644850159
C        -1.40393285411809    2.97272823170013   -0.54683114031096
C        -0.42372545189653    2.04472249304319   -1.20577631786328
C         0.96221649369643    2.02691172533681   -0.48626913479719
C         2.05915017125349    2.62281027750177   -1.33126937935244
C         3.11211785256898    1.87752603377177   -1.82628017535772
C         4.09632270145516    2.46386585270109   -2.60677562770740
C         4.02991105256608    3.81361091103276   -2.88730133891040
C         2.99779512272401    4.58558948526693   -2.37853113276816
C         2.01176169149577    4.00166811210303   -1.59467797032432
O         0.97194601384746    4.67253444797086   -1.02778434017008
C         0.85719321313012    6.05769637329416   -1.24221281336729
N         1.18254323427638    0.62756586532136   -0.16790591804736
C         1.74501604336501    0.23805824964536    1.00926015872311
C         1.69135704515924   -1.24004669335706    1.24638880487469
C         2.80699019748382   -2.01989557560982    0.98109458407878
C         2.78261393447105   -3.39505299891966    1.16220245531559
C         3.99840268622893   -4.21395621240882    0.85567224687627
C         1.61220285610159   -4.00367668696666    1.62587778261632
C         1.54822669250176   -5.48772159680351    1.81665477305934
C         0.50646811947663   -3.21410729871677    1.90801818611311
C         0.53501705449309   -1.84477359176700    1.72269475167257
O         2.28349365199053    1.02295011713381    1.75855237045543
C         0.31041254524928   -0.17708567598539   -0.98537898173199
C         0.97545347907725   -0.47996861346622   -2.34082340708686
O         1.96679115005298   -1.36178824639723   -2.19391738873572
O         0.65305764855403   -0.01488885142122   -3.39546771429640
N        -0.85013762542364    0.64687202875408   -1.16343371858281
C        -2.14120361747131    0.24098442818621   -1.03973753796430
C        -2.30880096066039   -1.20406694554552   -0.68380866426048
C        -1.88802971956550   -2.24358793893302   -1.50215658096166
C        -2.07211951457006   -3.55194338425187   -1.09365407255916
C        -2.66934604228218   -3.85288040356261    0.12294321902863
C        -2.84936459297035   -5.27911016303009    0.54355823309444
C        -3.11394312291468   -2.80866075892541    0.94003474381470
C        -3.77954359990427   -3.09180489400560    2.25197835698067
C        -2.93279412325402   -1.49969260732886    0.52093795096430
O        -3.08802910339301    0.98637407314304   -1.17230165607257
H        -1.12007735604580    2.46870931539910    3.37160322360802
H        -2.46093449058496    1.33629260264998    3.03324672745284
H        -0.78034854188482    0.74336383034146    3.13246358440119
H        -2.92982617682359    3.55428200557729    2.43031790790273
H        -3.85620289605853    5.41316830675161    1.15888988104663
H        -3.25226682933832    5.72814954955681   -1.21775460513747
H        -1.69344507624412    4.14838366311223   -2.29405037718231
H        -0.29019217878521    2.34027516147862   -2.25355165670423
H         0.91502303339236    2.58788738550641    0.45331036475409
H         3.17846523387337    0.82861149117769   -1.58151158188513
H         4.91109525858891    1.86717291974676   -2.98760945552228
H         4.78884596424302    4.28103992731635   -3.49679723656922
H         2.97557969232117    5.64208013149726   -2.59402405125011
H         0.74339391126265    6.29281247164832   -2.30520779414551
H        -0.04412922695116    6.35722070651902   -0.70961051439820
H         1.71804928058523    6.60074911071593   -0.83902740032481
H         3.70733751029004   -1.54267707014678    0.62262200066082
H         4.32875886518984   -4.75632023089752    1.74084125284746
H         3.78068328753445   -4.94810754111390    0.08044367854467
H         4.81242608949189   -3.58014996852850    0.51468201659623
H         1.74475941196876   -6.00352899978394    0.87731765655518
H         0.56789295414851   -5.78800555507304    2.17715071721876
H         2.29766896332105   -5.81559352139928    2.53626288947014
H        -0.39830567519532   -3.67779816343327    2.27234347840623
H        -0.34141435348004   -1.25117044728703    1.93786094004706
H         0.08410179070877   -1.13455533895065   -0.50594861192244
H         2.39696096847899   -1.53919896661816   -3.04723118000088
H        -1.43184915637611   -2.02890822256471   -2.45783762058550
H        -1.74348775437356   -4.35814321391866   -1.73404194131714
H        -2.39796423746786   -5.95427361448506   -0.17867032215257
H        -2.39479651546129   -5.45737300641514    1.51739035602643
H        -3.90882642347808   -5.52058046721106    0.62736074891603
H        -4.08126048745118   -2.16714958545693    2.73672253768295
H        -4.66375268299838   -3.71132768403509    2.10698499624608
H        -3.10681421382346   -3.62895984929293    2.92072933093982
H        -3.27844976328186   -0.68278562368717    1.13760588853367

          :  Hamiltonian                  GFN2-xTB          :
         :: total energy            -125.765269140119 Eh    ::
         :: gradient norm              0.000229018668 Eh/a0 ::
         :: HOMO-LUMO gap              2.946295339655 eV    ::
         :: SCC energy              -127.616073252882 Eh    ::
         :: -> dispersion             -0.113680019362 Eh    ::
         :: repulsion energy           1.845984850668 Eh    ::

    * Orbital Energies and Occupations

         #    Occupation            Energy/Eh            Energy/eV
      -------------------------------------------------------------
         1        2.0000           -0.7678221             -20.8935
       ...           ...                  ...                  ...
       101        2.0000           -0.4179133             -11.3720
       102        2.0000           -0.4054157             -11.0319
       103        2.0000           -0.4043470             -11.0028
       104        2.0000           -0.4041591             -10.9977
       105        2.0000           -0.4007089             -10.9038
       106        2.0000           -0.3966241             -10.7927
       107        2.0000           -0.3960450             -10.7769
       108        2.0000           -0.3915520             -10.6547
       109        2.0000           -0.3904479             -10.6246
       110        2.0000           -0.3839659             -10.4482
       111        2.0000           -0.3805512             -10.3553
       112        2.0000           -0.3777871             -10.2801
       113        2.0000           -0.3664319              -9.9711 (HOMO)
       114                         -0.2581576              -7.0248 (LUMO)
       115                         -0.2349142              -6.3923
       116                         -0.2304334              -6.2704
       117                         -0.2255510              -6.1376
       118                         -0.2251152              -6.1257
       119                         -0.2242876              -6.1032
       120                         -0.2161385              -5.8814
       121                         -0.2136155              -5.8128
       122                         -0.2065601              -5.6208
       123                         -0.2049342              -5.5765
       124                         -0.1908928              -5.1945
       ...                                ...                  ...
       212                          0.6757393              18.3878
      -------------------------------------------------------------
                  HL-Gap            0.1082744 Eh            2.9463 eV

     #   Z          covCN         q      C6AA      Î±(0)
     1   6 C        2.868     0.147    24.808     8.165
     2   8 O        1.705    -0.281    18.660     5.832
     3   6 C        3.644     0.047    20.121     6.448
     4   6 C        2.918    -0.063    29.575     8.918
     5   6 C        2.921    -0.031    28.780     8.798
     6   6 C        2.918    -0.039    28.978     8.828
     7   6 C        2.926    -0.023    28.591     8.769
     8   6 C        2.971     0.003    27.964     8.674
     9   6 C        3.830     0.050    19.721     6.319
    10   6 C        3.833     0.043    19.832     6.336
    11   6 C        2.971    -0.017    28.430     8.746
    12   6 C        2.923    -0.033    28.828     8.805
    13   6 C        2.918    -0.041    29.024     8.834
    14   6 C        2.921    -0.032    28.805     8.801
    15   6 C        2.917    -0.066    29.643     8.928
    16   6 C        2.870     0.139    24.967     8.191
    17   8 O        1.705    -0.272    18.509     5.809
    18   6 C        3.643     0.036    20.305     6.478
    19   7 N        2.766    -0.111    23.413     7.187
    20   6 C        2.762     0.275    22.345     7.741
    21   6 C        2.976    -0.023    28.563     8.767
    22   6 C        2.928    -0.035    28.862     8.810
    23   6 C        2.970     0.012    27.739     8.639
    24   6 C        3.758    -0.110    22.650     6.785
    25   6 C        2.970     0.009    27.804     8.649
    26   6 C        3.758    -0.108    22.621     6.781
    27   6 C        2.924    -0.040    29.003     8.832
    28   6 C        2.921    -0.039    28.964     8.826
    29   8 O        0.859    -0.416    22.006     6.289
    30   6 C        3.785     0.083    19.215     6.244
    31   6 C        2.689     0.353    21.013     7.502
    32   8 O        1.659    -0.371    20.293     6.081
    33   8 O        0.856    -0.376    21.213     6.175
    34   7 N        2.765    -0.107    23.341     7.175
    35   6 C        2.760     0.277    22.322     7.737
    36   6 C        2.975    -0.023    28.584     8.770
    37   6 C        2.919    -0.040    28.987     8.829
    38   6 C        2.924    -0.040    29.001     8.831
    39   6 C        2.970     0.010    27.779     8.645
    40   6 C        3.758    -0.107    22.592     6.776
    41   6 C        2.969     0.011    27.761     8.643
    42   6 C        3.758    -0.107    22.588     6.776
    43   6 C        2.931    -0.032    28.790     8.800
    44   8 O        0.859    -0.420    22.076     6.300
    45   1 H        0.924     0.042     2.427     2.436
    46   1 H        0.924     0.035     2.514     2.480
    47   1 H        0.925     0.058     2.222     2.331
    48   1 H        0.926     0.037     2.492     2.468
    49   1 H        0.926     0.035     2.511     2.478
    50   1 H        0.926     0.036     2.507     2.476
    51   1 H        0.926     0.042     2.422     2.434
    52   1 H        0.924     0.061     2.193     2.316
    53   1 H        0.924     0.090     1.881     2.145
    54   1 H        0.926     0.034     2.536     2.490
    55   1 H        0.926     0.035     2.521     2.483
    56   1 H        0.926     0.038     2.482     2.463
    57   1 H        0.926     0.040     2.455     2.450
    58   1 H        0.924     0.043     2.414     2.430
    59   1 H        0.925     0.065     2.143     2.289
    60   1 H        0.924     0.044     2.399     2.422
    61   1 H        0.926     0.039     2.460     2.453
    62   1 H        0.925     0.050     2.320     2.382
    63   1 H        0.925     0.048     2.351     2.398
    64   1 H        0.925     0.044     2.392     2.418
    65   1 H        0.925     0.047     2.353     2.399
    66   1 H        0.925     0.041     2.437     2.441
    67   1 H        0.925     0.049     2.334     2.389
    68   1 H        0.926     0.033     2.551     2.497
    69   1 H        0.926     0.031     2.569     2.507
    70   1 H        0.924     0.079     1.990     2.206
    71   1 H        0.804     0.342     0.608     1.225
    72   1 H        0.926     0.026     2.638     2.540
    73   1 H        0.926     0.033     2.540     2.492
    74   1 H        0.925     0.042     2.427     2.436
    75   1 H        0.925     0.045     2.389     2.417
    76   1 H        0.925     0.049     2.334     2.389
    77   1 H        0.925     0.043     2.408     2.426
    78   1 H        0.925     0.049     2.329     2.387
    79   1 H        0.925     0.045     2.387     2.416
    80   1 H        0.926     0.042     2.422     2.434

Wiberg/Mayer (AO) data.
largest (>0.10) Wiberg bond orders for each atom

     #   Z sym  total        # sym  WBO       # sym  WBO       # sym  WBO
 ---------------------------------------------------------------------------
     1   6 C    3.933 --     4 C    1.388     8 C    1.323     2 O    1.051
     2   8 O    2.220 --     1 C    1.051     3 C    0.985
     3   6 C    3.947 --     2 O    0.985    47 H    0.977    45 H    0.976
                            46 H    0.976
     4   6 C    3.987 --     5 C    1.431     1 C    1.388    48 H    0.966
                             7 C    0.101
     5   6 C    3.990 --     6 C    1.446     4 C    1.431    49 H    0.971
                             8 C    0.107
     6   6 C    3.991 --     5 C    1.446     7 C    1.424    50 H    0.971
     7   6 C    3.988 --     8 C    1.436     6 C    1.424    51 H    0.967
                             4 C    0.101
     8   6 C    3.984 --     7 C    1.436     1 C    1.323     9 C    0.999
                             5 C    0.107
     9   6 C    3.963 --     8 C    0.999    52 H    0.956    34 N    0.953
                            10 C    0.942
    10   6 C    3.961 --    11 C    0.994    19 N    0.967     9 C    0.942
                            53 H    0.941
    11   6 C    3.984 --    12 C    1.447    16 C    1.313    10 C    0.994
                            14 C    0.106
    12   6 C    3.990 --    11 C    1.447    13 C    1.416    54 H    0.965
                            15 C    0.100
    13   6 C    3.991 --    14 C    1.451    12 C    1.416    55 H    0.971
    14   6 C    3.991 --    13 C    1.451    15 C    1.428    56 H    0.971
                            11 C    0.106
    15   6 C    3.987 --    14 C    1.428    16 C    1.387    57 H    0.966
                            12 C    0.100
    16   6 C    3.934 --    15 C    1.387    11 C    1.313    17 O    1.064
    17   8 O    2.236 --    16 C    1.064    18 C    0.983
    18   6 C    3.943 --    17 O    0.983    59 H    0.978    58 H    0.976
                            60 H    0.976
    19   7 N    3.464 --    20 C    1.198    30 C    0.979    10 C    0.967
                            29 O    0.187
    20   6 C    3.942 --    29 O    1.704    19 N    1.198    21 C    0.957
    21   6 C    3.988 --    22 C    1.408    28 C    1.398    20 C    0.957
                            25 C    0.105
    22   6 C    3.990 --    23 C    1.421    21 C    1.408    61 H    0.967
                            27 C    0.104
    23   6 C    3.988 --    22 C    1.421    25 C    1.373    24 C    1.029
                            28 C    0.106
    24   6 C    3.995 --    23 C    1.029    64 H    0.985    63 H    0.969
                            62 H    0.969
    25   6 C    3.988 --    27 C    1.418    23 C    1.373    26 C    1.029
                            21 C    0.105
    26   6 C    3.996 --    25 C    1.029    66 H    0.985    65 H    0.970
                            67 H    0.969
    27   6 C    3.991 --    28 C    1.440    25 C    1.418    68 H    0.966
                            22 C    0.104
    28   6 C    3.991 --    27 C    1.440    21 C    1.398    69 H    0.966
                            23 C    0.106
    29   8 O    2.023 --    20 C    1.704    19 N    0.187
    30   6 C    3.973 --    34 N    0.996    19 N    0.979    70 H    0.925
                            31 C    0.913
    31   6 C    3.918 --    33 O    1.793    32 O    1.141    30 C    0.913
    32   8 O    2.207 --    31 C    1.141    71 H    0.857    33 O    0.180
    33   8 O    2.069 --    31 C    1.793    32 O    0.180
    34   7 N    3.470 --    35 C    1.205    30 C    0.996     9 C    0.953
                            44 O    0.189
    35   6 C    3.944 --    44 O    1.693    34 N    1.205    36 C    0.962
    36   6 C    3.987 --    43 C    1.401    37 C    1.399    35 C    0.962
                            39 C    0.104
    37   6 C    3.991 --    38 C    1.442    36 C    1.399    72 H    0.969
                            41 C    0.105
    38   6 C    3.991 --    37 C    1.442    39 C    1.417    73 H    0.968
                            43 C    0.104
    39   6 C    3.988 --    38 C    1.417    41 C    1.372    40 C    1.029
                            36 C    0.104
    40   6 C    3.996 --    39 C    1.029    74 H    0.985    75 H    0.971
                            76 H    0.968
    41   6 C    3.988 --    43 C    1.424    39 C    1.372    42 C    1.028
                            37 C    0.105
    42   6 C    3.995 --    41 C    1.028    77 H    0.985    78 H    0.970
                            79 H    0.969
    43   6 C    3.989 --    41 C    1.424    36 C    1.401    80 H    0.966
                            38 C    0.104
    44   8 O    2.023 --    35 C    1.693    34 N    0.189
    45   1 H    0.998 --     3 C    0.976
    46   1 H    0.999 --     3 C    0.976
    47   1 H    0.996 --     3 C    0.977
    48   1 H    0.998 --     4 C    0.966
    49   1 H    0.998 --     5 C    0.971
    50   1 H    0.998 --     6 C    0.971
    51   1 H    0.998 --     7 C    0.967
    52   1 H    0.995 --     9 C    0.956
    53   1 H    0.992 --    10 C    0.941
    54   1 H    0.998 --    12 C    0.965
    55   1 H    0.998 --    13 C    0.971
    56   1 H    0.998 --    14 C    0.971
    57   1 H    0.998 --    15 C    0.966
    58   1 H    0.998 --    18 C    0.976
    59   1 H    0.995 --    18 C    0.978
    60   1 H    0.998 --    18 C    0.976
    61   1 H    0.998 --    22 C    0.967
    62   1 H    0.997 --    24 C    0.969
    63   1 H    0.997 --    24 C    0.969
    64   1 H    0.998 --    24 C    0.985
    65   1 H    0.997 --    26 C    0.970
    66   1 H    0.998 --    26 C    0.985
    67   1 H    0.997 --    26 C    0.969
    68   1 H    0.998 --    27 C    0.966
    69   1 H    0.998 --    28 C    0.966
    70   1 H    0.993 --    30 C    0.925
    71   1 H    0.883 --    32 O    0.857
    72   1 H    0.999 --    37 C    0.969
    73   1 H    0.998 --    38 C    0.968
    74   1 H    0.998 --    40 C    0.985
    75   1 H    0.998 --    40 C    0.971
    76   1 H    0.997 --    40 C    0.968
    77   1 H    0.998 --    42 C    0.985
    78   1 H    0.997 --    42 C    0.970
    79   1 H    0.998 --    42 C    0.969
    80   1 H    0.998 --    43 C    0.966
 ---------------------------------------------------------------------------

molecular dipole:
                 x           y           z       tot (Debye)
 q only:        0.751      -1.322       0.297
   full:        0.825      -1.576       0.277       4.575

           -------------------------------------------------
          | TOTAL ENERGY             -125.765269140119 Eh   |
          | GRADIENT NORM               0.000229018668 Eh/Î± |
          | HOMO-LUMO GAP               2.946295339655 eV   |
           -------------------------------------------------

 * finished run on 2022/03/17 at 01:10:30.128
