   * xtb version 6.3.3 (4ae9cef) compiled by 'conda@95abc7406d43' on 2020-10-14
          program call               : xtb acid_102.xyz --opt --chrg 0 --uhf 0 --gfn 2
          number of atoms            :                    80
          number of electrons        :                   238
          charge                     :                     0
          spin                       :                   0.0

   ID    Z sym.   atoms
    1    6 C      1-22, 24-26, 28-32, 34, 35, 39-45, 47
    2    7 N      23, 38
    3    8 O      27, 33, 36, 37, 46, 48
    4    1 H      49-80

          :  Hamiltonian                  GFN2-xTB          :
 * total energy  :  -132.2443009 Eh     change       -0.6391048E-08 Eh
 * total energy  :  -132.2630183 Eh     change       -0.1871741E-01 Eh
 * total energy  :  -132.2687405 Eh     change       -0.5722200E-02 Eh
 * total energy  :  -132.2706579 Eh     change       -0.1917352E-02 Eh
 * total energy  :  -132.2723733 Eh     change       -0.1715393E-02 Eh
 * total energy  :  -132.2734145 Eh     change       -0.1041233E-02 Eh
 * total energy  :  -132.2741499 Eh     change       -0.7354473E-03 Eh
 * total energy  :  -132.2747479 Eh     change       -0.5979493E-03 Eh
 * total energy  :  -132.2752834 Eh     change       -0.5355405E-03 Eh
 * total energy  :  -132.2757618 Eh     change       -0.4783771E-03 Eh
 * total energy  :  -132.2789628 Eh     change       -0.2281124E-04 Eh
 * total energy  :  -132.2790016 Eh     change       -0.3880062E-04 Eh
 * total energy  :  -132.2790448 Eh     change       -0.4318426E-04 Eh
 * total energy  :  -132.2790578 Eh     change       -0.1297585E-04 Eh
 * total energy  :  -132.2790736 Eh     change       -0.1584161E-04 Eh
 * total energy  :  -132.2790886 Eh     change       -0.1496409E-04 Eh
 * total energy  :  -132.2790915 Eh     change       -0.2863117E-05 Eh
 * total energy  :  -132.2790966 Eh     change       -0.5164912E-05 Eh
 * total energy  :  -132.2790991 Eh     change       -0.2525542E-05 Eh
   *** GEOMETRY OPTIMIZATION CONVERGED AFTER 41 ITERATIONS ***

 final structure:
================
80
 xtb: 6.3.3 (4ae9cef)
C         1.91813919682513    1.45389270878613   -1.67601904438339
C         2.44059043615159    2.51534480977786   -2.35576906830242
C         2.60931079997319    3.76752289168334   -1.72785372868140
C         3.15102883564795    4.88087852315384   -2.40203722734589
C         3.30016914866751    6.07988507142949   -1.76303550550037
C         2.91255482211521    6.22008964739864   -0.42134543283189
C         2.38419045758070    5.15916667894734    0.25928010782263
C         2.22041086751602    3.90801300267683   -0.37047874077402
C         1.69088617977338    2.79199537126555    0.30832894544542
C         1.54831626288714    1.58617719230314   -0.32237609452224
C         0.95442832219351    0.40410310855305    0.39596006125280
C        -0.45967757410875    0.07966022639783   -0.13561770811510
C        -1.53258822498334    0.66030280789276    0.74329477824907
C        -1.75489643302915    0.15673969378754    1.99883230054229
C        -2.78394095071772    0.66342271172717    2.81453738296193
C        -3.05235643653291    0.13580582145772    4.09495654816002
C        -4.07265404967010    0.63425022616418    4.85483174353583
C        -4.86985677866827    1.68391148474673    4.37119380458471
C        -4.63172030961169    2.21930734772860    3.13650365249455
C        -3.58692087055721    1.72749995031153    2.32770287503604
C        -3.31020059405627    2.25572918315927    1.05038819580353
C        -2.30927991233121    1.73749920604487    0.28032884059865
N        -0.48560283487396   -1.37121447089561   -0.16727480245996
C        -1.55848556362773   -2.19554568001523   -0.26511979029638
C        -2.88803451105532   -1.52780726433369   -0.40001020626512
C        -3.17603224586795   -0.78618510399724   -1.55461986812727
O        -2.17568290592581   -0.70727469771124   -2.47348477810065
C        -2.40324666710490   -0.01538755099139   -3.67769118136913
C        -4.42707671969903   -0.19671573992802   -1.68672461869689
C        -5.37246167386076   -0.34446127290937   -0.68574208408925
C        -5.09860897897038   -1.09825728405843    0.43989428130587
C        -3.86060052218454   -1.70236807735903    0.56973226485117
O        -1.42894876334462   -3.40410328234614   -0.22977034648036
C         0.84893555520908   -1.92671225388096   -0.19076510550109
C         1.16084583623245   -2.44919446684457   -1.60643531845072
O         1.33309064371972   -3.76187547735513   -1.62082484110318
O         1.21894617189644   -1.75175505931558   -2.58201242826881
N         1.70086853559289   -0.82357372824514    0.16310167956413
C         3.05589768606858   -0.85535079715078    0.22452703604901
C         3.67013640631709   -2.14093875546375   -0.23740422624434
C         4.39507994239028   -2.12873198481126   -1.41836910600937
C         4.99155205792382   -3.28562362677277   -1.88967085681529
C         4.87680955258010   -4.45394342604267   -1.15961256642439
C         4.17860728316264   -4.47682864405581    0.03622705193375
C         3.57023511894330   -3.32131312518719    0.51115641677919
O         2.86236643419175   -3.23706750902490    1.67175278713937
C         2.70960031555154   -4.39836358202266    2.45468203315190
O         3.71223989230659    0.10333088177468    0.56943586900564
H         1.79317836291822    0.49899834915334   -2.16593969878242
H         2.73528054231605    2.40961422426128   -3.39029259176964
H         3.44917358950814    4.76763509156413   -3.43490262919907
H         3.71842943499682    6.92834519085214   -2.28499388446852
H         3.03811524730005    7.17485616501453    0.06838772596273
H         2.08728731403623    5.26134824582203    1.29337808952352
H         1.40663572631200    2.90133943876391    1.34555319786750
H         0.92133272041496    0.60881303838384    1.47492271910186
H        -0.55615417951437    0.46987689089031   -1.15751320240295
H        -1.15683995786095   -0.66520189744354    2.36725900512529
H        -2.43684532733945   -0.67292175332879    4.46201515561921
H        -4.27431200422920    0.22489038450142    5.83381960664243
H        -5.67273661080655    2.06446733560235    4.98543429643187
H        -5.24193592075998    3.02797623647136    2.76048554201420
H        -3.91070199623588    3.07697067352881    0.68703572539378
H        -2.10393032101069    2.14686419385284   -0.69810403281074
H        -3.21953499783092   -0.46476462573285   -4.25077994601787
H        -2.62233489263029    1.04279595960746   -3.50005584215208
H        -1.47461855949638   -0.10310899660850   -4.23924379813044
H        -4.67269334014509    0.38132589659021   -2.56350757396909
H        -6.33583430048360    0.13014484587141   -0.79802889433130
H        -5.84273582008030   -1.21735021232025    1.21167285660415
H        -3.63112858692768   -2.30285030660622    1.43645441145320
H         0.91541232402257   -2.76876288400101    0.51271020747242
H         1.46926554220849   -4.09218440926354   -2.52386488443768
H         4.47703083285792   -1.20215299526522   -1.96619187663914
H         5.54405242127741   -3.27173390619068   -2.81620378963602
H         5.33899499763835   -5.36270588330593   -1.51576025765011
H         4.11291677132558   -5.40028670887557    0.58842183682075
H         2.11653638532772   -4.09428850648023    3.31550280690724
H         3.67488154490713   -4.78015686952520    2.79948609288933
H         2.17744381736126   -5.18172489222056    1.90625364545518

          :  Hamiltonian                  GFN2-xTB          :
         :: total energy            -132.279099148130 Eh    ::
         :: gradient norm              0.000693659422 Eh/a0 ::
         :: HOMO-LUMO gap              2.788335173594 eV    ::
         :: SCC energy              -134.319724806304 Eh    ::
         :: -> dispersion             -0.119339157224 Eh    ::
         :: repulsion energy           2.036927845260 Eh    ::

    * Orbital Energies and Occupations

         #    Occupation            Energy/Eh            Energy/eV
      -------------------------------------------------------------
         1        2.0000           -0.7590592             -20.6551
       ...           ...                  ...                  ...
       107        2.0000           -0.4143794             -11.2758
       108        2.0000           -0.4119067             -11.2086
       109        2.0000           -0.4089360             -11.1277
       110        2.0000           -0.4081553             -11.1065
       111        2.0000           -0.4004411             -10.8966
       112        2.0000           -0.3977102             -10.8222
       113        2.0000           -0.3915682             -10.6551
       114        2.0000           -0.3894690             -10.5980
       115        2.0000           -0.3875579             -10.5460
       116        2.0000           -0.3849977             -10.4763
       117        2.0000           -0.3841212             -10.4525
       118        2.0000           -0.3823568             -10.4045
       119        2.0000           -0.3717186             -10.1150 (HOMO)
       120                         -0.2692492              -7.3266 (LUMO)
       121                         -0.2560674              -6.9679
       122                         -0.2533577              -6.8942
       123                         -0.2445527              -6.6546
       124                         -0.2357001              -6.4137
       125                         -0.2349858              -6.3943
       126                         -0.2236760              -6.0865
       127                         -0.2235576              -6.0833
       128                         -0.2215946              -6.0299
       129                         -0.2019991              -5.4967
       130                         -0.1990773              -5.4172
       ...                                ...                  ...
       224                          0.7025047              19.1161
      -------------------------------------------------------------
                  HL-Gap            0.1024694 Eh            2.7883 eV

     #   Z          covCN         q      C6AA      Î±(0)
     1   6 C        2.919    -0.035    28.872     8.811
     2   6 C        2.918    -0.033    28.830     8.805
     3   6 C        2.987     0.014    27.700     8.633
     4   6 C        2.918    -0.034    28.857     8.809
     5   6 C        2.916    -0.031    28.762     8.794
     6   6 C        2.916    -0.030    28.752     8.793
     7   6 C        2.919    -0.034    28.840     8.807
     8   6 C        2.987     0.017    27.629     8.622
     9   6 C        2.922    -0.036    28.896     8.815
    10   6 C        2.971     0.012    27.737     8.639
    11   6 C        3.825     0.048    19.751     6.324
    12   6 C        3.821     0.038    19.920     6.351
    13   6 C        2.970    -0.000    28.031     8.684
    14   6 C        2.924    -0.041    29.008     8.832
    15   6 C        2.987     0.015    27.672     8.629
    16   6 C        2.919    -0.033    28.833     8.805
    17   6 C        2.916    -0.028    28.711     8.787
    18   6 C        2.916    -0.029    28.720     8.788
    19   6 C        2.918    -0.034    28.835     8.806
    20   6 C        2.988     0.013    27.719     8.636
    21   6 C        2.918    -0.034    28.852     8.808
    22   6 C        2.920    -0.035    28.883     8.813
    23   7 N        2.766    -0.105    23.295     7.168
    24   6 C        2.765     0.276    22.333     7.739
    25   6 C        2.976    -0.036    28.884     8.816
    26   6 C        2.867     0.145    24.843     8.170
    27   8 O        1.705    -0.272    18.509     5.809
    28   6 C        3.642     0.039    20.257     6.471
    29   6 C        2.917    -0.066    29.638     8.927
    30   6 C        2.922    -0.029    28.730     8.790
    31   6 C        2.918    -0.039    28.980     8.828
    32   6 C        2.924    -0.022    28.550     8.762
    33   8 O        0.859    -0.435    22.390     6.344
    34   6 C        3.763     0.092    19.100     6.229
    35   6 C        2.689     0.358    20.922     7.486
    36   8 O        1.660    -0.352    19.937     6.028
    37   8 O        0.856    -0.393    21.545     6.223
    38   7 N        2.764    -0.108    23.358     7.178
    39   6 C        2.763     0.279    22.275     7.729
    40   6 C        2.976    -0.044    29.084     8.846
    41   6 C        2.925    -0.023    28.580     8.767
    42   6 C        2.917    -0.041    29.027     8.835
    43   6 C        2.921    -0.031    28.763     8.795
    44   6 C        2.917    -0.064    29.586     8.920
    45   6 C        2.866     0.146    24.831     8.168
    46   8 O        1.705    -0.275    18.556     5.816
    47   6 C        3.644     0.037    20.288     6.475
    48   8 O        0.859    -0.417    22.028     6.293
    49   1 H        0.926     0.052     2.300     2.372
    50   1 H        0.926     0.035     2.512     2.478
    51   1 H        0.926     0.031     2.568     2.506
    52   1 H        0.926     0.029     2.594     2.518
    53   1 H        0.926     0.030     2.590     2.517
    54   1 H        0.926     0.032     2.560     2.502
    55   1 H        0.926     0.033     2.550     2.497
    56   1 H        0.923     0.053     2.284     2.363
    57   1 H        0.923     0.063     2.161     2.299
    58   1 H        0.926     0.037     2.483     2.464
    59   1 H        0.926     0.035     2.511     2.478
    60   1 H        0.926     0.035     2.520     2.483
    61   1 H        0.926     0.034     2.528     2.487
    62   1 H        0.926     0.034     2.527     2.486
    63   1 H        0.926     0.038     2.471     2.458
    64   1 H        0.926     0.030     2.589     2.516
    65   1 H        0.924     0.044     2.401     2.423
    66   1 H        0.924     0.039     2.464     2.455
    67   1 H        0.925     0.071     2.073     2.251
    68   1 H        0.926     0.041     2.429     2.437
    69   1 H        0.926     0.040     2.443     2.444
    70   1 H        0.926     0.040     2.443     2.444
    71   1 H        0.926     0.048     2.346     2.395
    72   1 H        0.923     0.090     1.884     2.146
    73   1 H        0.804     0.342     0.608     1.225
    74   1 H        0.926     0.051     2.312     2.378
    75   1 H        0.926     0.042     2.429     2.437
    76   1 H        0.926     0.040     2.447     2.446
    77   1 H        0.926     0.044     2.399     2.422
    78   1 H        0.925     0.065     2.147     2.291
    79   1 H        0.924     0.045     2.385     2.415
    80   1 H        0.924     0.047     2.353     2.399

Wiberg/Mayer (AO) data.
largest (>0.10) Wiberg bond orders for each atom

     #   Z sym  total        # sym  WBO       # sym  WBO       # sym  WBO
 ---------------------------------------------------------------------------
     1   6 C    3.990 --     2 C    1.568    10 C    1.290    49 H    0.962
     2   6 C    3.992 --     1 C    1.568     3 C    1.274    50 H    0.968
                             9 C    0.113
     3   6 C    3.990 --     4 C    1.283     2 C    1.274     8 C    1.252
     4   6 C    3.992 --     5 C    1.555     3 C    1.283    51 H    0.968
                             7 C    0.118
     5   6 C    3.990 --     4 C    1.555     6 C    1.322    52 H    0.971
     6   6 C    3.992 --     7 C    1.556     5 C    1.322    53 H    0.971
     7   6 C    3.990 --     6 C    1.556     8 C    1.280    54 H    0.968
                             4 C    0.118
     8   6 C    3.990 --     7 C    1.280     9 C    1.280     3 C    1.252
     9   6 C    3.989 --    10 C    1.530     8 C    1.280    55 H    0.966
                             2 C    0.113
    10   6 C    3.985 --     9 C    1.530     1 C    1.290    11 C    0.990
    11   6 C    3.960 --    10 C    0.990    38 N    0.956    56 H    0.954
                            12 C    0.950
    12   6 C    3.961 --    13 C    0.993    23 N    0.962    11 C    0.950
                            57 H    0.947
    13   6 C    3.986 --    14 C    1.518    22 C    1.298    12 C    0.993
    14   6 C    3.990 --    13 C    1.518    15 C    1.287    58 H    0.965
                            21 C    0.115
    15   6 C    3.990 --    14 C    1.287    16 C    1.277    20 C    1.248
    16   6 C    3.990 --    17 C    1.559    15 C    1.277    59 H    0.968
                            19 C    0.118
    17   6 C    3.992 --    16 C    1.559    18 C    1.320    60 H    0.971
    18   6 C    3.989 --    19 C    1.557    17 C    1.320    61 H    0.971
    19   6 C    3.992 --    18 C    1.557    20 C    1.282    62 H    0.968
                            16 C    0.118
    20   6 C    3.990 --    19 C    1.282    21 C    1.278    15 C    1.248
    21   6 C    3.991 --    22 C    1.560    20 C    1.278    63 H    0.968
                            14 C    0.115
    22   6 C    3.991 --    21 C    1.560    13 C    1.298    64 H    0.968
    23   7 N    3.474 --    24 C    1.216    34 C    0.976    12 C    0.962
                            33 O    0.190
    24   6 C    3.947 --    33 O    1.676    23 N    1.216    25 C    0.967
    25   6 C    3.984 --    32 C    1.428    26 C    1.315    24 C    0.967
                            30 C    0.106
    26   6 C    3.936 --    29 C    1.378    25 C    1.315    27 O    1.065
    27   8 O    2.238 --    26 C    1.065    28 C    0.980
    28   6 C    3.941 --    27 O    0.980    67 H    0.978    65 H    0.977
                            66 H    0.976
    29   6 C    3.987 --    30 C    1.436    26 C    1.378    68 H    0.965
                            32 C    0.103
    30   6 C    3.991 --    31 C    1.441    29 C    1.436    69 H    0.971
                            25 C    0.106
    31   6 C    3.991 --    30 C    1.441    32 C    1.427    70 H    0.970
    32   6 C    3.989 --    25 C    1.428    31 C    1.427    71 H    0.968
                            29 C    0.103
    33   8 O    2.003 --    24 C    1.676    23 N    0.190
    34   6 C    3.963 --    38 N    0.988    23 N    0.976    72 H    0.939
                            35 C    0.909
    35   6 C    3.917 --    37 O    1.766    36 O    1.168    34 C    0.909
    36   8 O    2.235 --    35 C    1.168    73 H    0.856    37 O    0.183
    37   8 O    2.054 --    35 C    1.766    36 O    0.183
    38   7 N    3.468 --    39 C    1.210    34 C    0.988    11 C    0.956
                            48 O    0.192
    39   6 C    3.948 --    48 O    1.694    38 N    1.210    40 C    0.958
    40   6 C    3.984 --    41 C    1.426    45 C    1.320    39 C    0.958
                            43 C    0.106
    41   6 C    3.989 --    42 C    1.426    40 C    1.426    74 H    0.968
                            44 C    0.103
    42   6 C    3.991 --    43 C    1.442    41 C    1.426    75 H    0.970
    43   6 C    3.991 --    42 C    1.442    44 C    1.436    76 H    0.971
                            40 C    0.106
    44   6 C    3.987 --    43 C    1.436    45 C    1.378    77 H    0.965
                            41 C    0.103
    45   6 C    3.936 --    44 C    1.378    40 C    1.320    46 O    1.062
    46   8 O    2.235 --    45 C    1.062    47 C    0.980
    47   6 C    3.941 --    46 O    0.980    78 H    0.979    79 H    0.977
                            80 H    0.976
    48   8 O    2.025 --    39 C    1.694    38 N    0.192
    49   1 H    0.997 --     1 C    0.962
    50   1 H    0.998 --     2 C    0.968
    51   1 H    0.999 --     4 C    0.968
    52   1 H    0.999 --     5 C    0.971
    53   1 H    0.999 --     6 C    0.971
    54   1 H    0.999 --     7 C    0.968
    55   1 H    0.998 --     9 C    0.966
    56   1 H    0.996 --    11 C    0.954
    57   1 H    0.996 --    12 C    0.947
    58   1 H    0.998 --    14 C    0.965
    59   1 H    0.998 --    16 C    0.968
    60   1 H    0.998 --    17 C    0.971
    61   1 H    0.998 --    18 C    0.971
    62   1 H    0.998 --    19 C    0.968
    63   1 H    0.998 --    21 C    0.968
    64   1 H    0.999 --    22 C    0.968
    65   1 H    0.998 --    28 C    0.977
    66   1 H    0.998 --    28 C    0.976
    67   1 H    0.995 --    28 C    0.978
    68   1 H    0.997 --    29 C    0.965
    69   1 H    0.998 --    30 C    0.971
    70   1 H    0.998 --    31 C    0.970
    71   1 H    0.997 --    32 C    0.968
    72   1 H    0.991 --    34 C    0.939
    73   1 H    0.883 --    36 O    0.856
    74   1 H    0.997 --    41 C    0.968
    75   1 H    0.998 --    42 C    0.970
    76   1 H    0.998 --    43 C    0.971
    77   1 H    0.997 --    44 C    0.965
    78   1 H    0.995 --    47 C    0.979
    79   1 H    0.998 --    47 C    0.977
    80   1 H    0.998 --    47 C    0.976
 ---------------------------------------------------------------------------

molecular dipole:
                 x           y           z       tot (Debye)
 q only:       -1.229       0.159      -0.129
   full:       -1.334      -0.149      -0.318       3.506

           -------------------------------------------------
          | TOTAL ENERGY             -132.279099148130 Eh   |
          | GRADIENT NORM               0.000693659422 Eh/Î± |
          | HOMO-LUMO GAP               2.788335173594 eV   |
           -------------------------------------------------

 * finished run on 2022/03/16 at 21:20:31.674
