   * xtb version 6.3.3 (4ae9cef) compiled by 'conda@95abc7406d43' on 2020-10-14
          program call               : xtb acid_160.xyz --opt --chrg 0 --uhf 0 --gfn 2
          number of atoms            :                    84
          number of electrons        :                   226
          charge                     :                     0
          spin                       :                   0.0

   ID    Z sym.   atoms
    1    6 C      1-14, 16-26, 28, 29, 33-43
    2    7 N      15, 32
    3    8 O      27, 30, 31, 44
    4    1 H      45-84

          :  Hamiltonian                  GFN2-xTB          :
 * total energy  :  -123.9047580 Eh     change       -0.1477233E-08 Eh
 * total energy  :  -123.9215999 Eh     change       -0.1684192E-01 Eh
 * total energy  :  -123.9270739 Eh     change       -0.5474004E-02 Eh
 * total energy  :  -123.9290847 Eh     change       -0.2010757E-02 Eh
 * total energy  :  -123.9303157 Eh     change       -0.1231003E-02 Eh
 * total energy  :  -123.9313277 Eh     change       -0.1012019E-02 Eh
 * total energy  :  -123.9320819 Eh     change       -0.7542040E-03 Eh
 * total energy  :  -123.9328649 Eh     change       -0.7829518E-03 Eh
 * total energy  :  -123.9337119 Eh     change       -0.8470778E-03 Eh
 * total energy  :  -123.9345058 Eh     change       -0.7938779E-03 Eh
 * total energy  :  -123.9456243 Eh     change       -0.1429232E-04 Eh
 * total energy  :  -123.9456362 Eh     change       -0.1193122E-04 Eh
 * total energy  :  -123.9456525 Eh     change       -0.1632733E-04 Eh
 * total energy  :  -123.9456674 Eh     change       -0.1484186E-04 Eh
 * total energy  :  -123.9456765 Eh     change       -0.9141917E-05 Eh
 * total energy  :  -123.9456839 Eh     change       -0.7385198E-05 Eh
 * total energy  :  -123.9456916 Eh     change       -0.7727354E-05 Eh
 * total energy  :  -123.9456984 Eh     change       -0.6813463E-05 Eh
 * total energy  :  -123.9457034 Eh     change       -0.4924873E-05 Eh
   *** GEOMETRY OPTIMIZATION CONVERGED AFTER 53 ITERATIONS ***

 final structure:
================
84
 xtb: 6.3.3 (4ae9cef)
C        -1.45192932322531    1.56590129745755    2.16199884001795
C        -2.25867895004349    2.33337822131245    2.98361512083414
C        -3.23493184959528    3.14851450870360    2.43656670594510
C        -3.39681017626437    3.19848366998258    1.06245031775921
C        -2.59039001641559    2.43164577339542    0.24024639742077
C        -1.61381334956810    1.60407189213253    0.78196637471965
C        -0.78616381379824    0.73947539291673   -0.13910085310820
C         0.72277393075032    0.73329376542458    0.19446345107888
C         1.57303171185398    0.79597454164948   -1.05156153891293
C         1.39361559567255   -0.12351809107190   -2.07826453733447
C         2.14924783577944   -0.03501179404880   -3.23364772093126
C         3.09986520900421    0.96341734813284   -3.36881151305281
C         3.29722474602533    1.86860276518291   -2.34003945474526
C         2.53415621002986    1.78801234939727   -1.18822878707546
N         0.90347958455699   -0.51149621493790    0.92833007674493
C         2.01017802464939   -0.95084717805154    1.58143394782474
C         3.11023581586144    0.05755646876510    1.71245297647556
C         4.40957683427885   -0.05547766893399    1.20047127180392
C         4.91344933213325   -1.30341321626238    0.48804527552519
C         6.28725567879602   -1.09524484432032   -0.16343988517766
C         3.95984860339131   -1.74545826365812   -0.62500456453513
C         5.04835384734762   -2.41408524862951    1.54150506201807
C         5.27323035404832    1.01199983463907    1.44136163995195
C         4.90284709617775    2.11987285186245    2.18055175329267
C         3.64033505813087    2.18688279739895    2.73808221561504
C         2.75645206957815    1.15518818641858    2.49609072989386
O         2.01047084118207   -2.04641228940907    2.11095852990343
C        -0.29508605541251   -1.32843309445272    0.92032874046553
C        -0.03076237761968   -2.80821463459166    0.58095832032165
O         0.69241743261725   -2.93520032872124   -0.53359870853244
O        -0.38487529301502   -3.71757887866079    1.26835636424959
N        -1.14754640038283   -0.66500511882983   -0.03587863135754
C        -2.07725997020719   -1.35017735220154   -0.74525736014590
C        -2.96959474579022   -0.50211241256271   -1.59551762811887
C        -2.39484185016862   -0.04283397109322   -2.77796642102547
C        -3.09674432844043    0.76996571473836   -3.64604686836667
C        -4.39068289765095    1.12870301696160   -3.31883746475700
C        -4.97425505934859    0.64288566632368   -2.16305231236866
C        -4.29756894392288   -0.19270493732982   -1.27564112415661
C        -5.02663304986369   -0.80480504226872   -0.08531796652357
C        -4.19751466173541   -0.76313726939692    1.20436933218025
C        -5.33076876788900   -2.26679746604398   -0.44910865315267
C        -6.35147298747910   -0.08888824775303    0.21085767716126
O        -2.12123042789919   -2.56551105163777   -0.70823174761285
H        -0.69885854779370    0.93114982836224    2.60346960632042
H        -2.12661604245205    2.29060044306732    4.05432558953487
H        -3.86706986485734    3.74222523280558    3.07941944015432
H        -4.15452242833038    3.83332708601062    0.62807288857717
H        -2.72526590677020    2.46794865681672   -0.83111864326567
H        -0.94395215387702    1.08040463805780   -1.16589510058322
H         0.97016887525337    1.59041424308896    0.82949788580186
H         0.68166979756522   -0.92586300833116   -1.96311346862725
H         2.00144218793994   -0.75240421744321   -4.02706477922898
H         3.69121825225320    1.02982335750059   -4.26992396000378
H         4.04598255396246    2.64100927653040   -2.43371149482129
H         2.69009817964224    2.49700499085944   -0.38783263420309
H         6.26713203667369   -0.26393098285220   -0.86557319668635
H         6.55594229618649   -1.99375011655535   -0.71498588515242
H         7.06294968638570   -0.92433606932574    0.57905568384718
H         2.96437138618366   -1.95555241510823   -0.25300604732161
H         3.89174793387947   -0.97371958855295   -1.38755511836890
H         4.33823862749516   -2.65412668627049   -1.08889763306787
H         4.08258836128360   -2.65764101325003    1.97285801144019
H         5.46188073434752   -3.31052745695052    1.08453562854118
H         5.71386914833923   -2.09545599055530    2.34173295585862
H         6.27690866178192    0.98688553739619    1.05311274069787
H         5.61110164739207    2.92022746718406    2.33729971105834
H         3.34626119003603    3.02616883846455    3.35032540398031
H         1.77254334297379    1.18494416159935    2.94443938421780
H        -0.76132957638112   -1.33907401790029    1.92346587651080
H         0.84459006570566   -3.87568966258364   -0.71529992440727
H        -1.38497799946889   -0.34059250575550   -3.02389935767533
H        -2.63807013476458    1.11715475514254   -4.55947166977002
H        -4.95758955846162    1.77578085506048   -3.97200448038261
H        -5.99262128668230    0.92786124074501   -1.96166261590517
H        -4.81694534824128   -1.07939058384424    2.04118966846397
H        -3.35108363808961   -1.43894417379001    1.16310041825979
H        -3.84485827161418    0.24560395351023    1.40457099687666
H        -4.41071117604506   -2.82157411065588   -0.60926883609560
H        -5.92728695286001   -2.31566308670259   -1.35821298193718
H        -5.88543717776289   -2.74221131149406    0.35664248503045
H        -7.07095280142094   -0.22396464642849   -0.59273081911789
H        -6.19010554729382    0.97419206072775    0.37877986891013
H        -6.79094606824748   -0.50977642653471    1.11242702233822

          :  Hamiltonian                  GFN2-xTB          :
         :: total energy            -123.945703368316 Eh    ::
         :: gradient norm              0.000248990931 Eh/a0 ::
         :: HOMO-LUMO gap              3.861311566356 eV    ::
         :: SCC energy              -125.882347625159 Eh    ::
         :: -> dispersion             -0.123398892396 Eh    ::
         :: repulsion energy           1.930604966124 Eh    ::

    * Orbital Energies and Occupations

         #    Occupation            Energy/Eh            Energy/eV
      -------------------------------------------------------------
         1        2.0000           -0.7399579             -20.1353
       ...           ...                  ...                  ...
       101        2.0000           -0.4205793             -11.4445
       102        2.0000           -0.4203267             -11.4377
       103        2.0000           -0.4184937             -11.3878
       104        2.0000           -0.4170444             -11.3484
       105        2.0000           -0.4150631             -11.2944
       106        2.0000           -0.4138993             -11.2628
       107        2.0000           -0.4097422             -11.1497
       108        2.0000           -0.4060764             -11.0499
       109        2.0000           -0.4042446             -11.0001
       110        2.0000           -0.4012408             -10.9183
       111        2.0000           -0.3970245             -10.8036
       112        2.0000           -0.3928905             -10.6911
       113        2.0000           -0.3911289             -10.6432 (HOMO)
       114                         -0.2492283              -6.7818 (LUMO)
       115                         -0.2437006              -6.6314
       116                         -0.2425991              -6.6015
       117                         -0.2408391              -6.5536
       118                         -0.2391805              -6.5084
       119                         -0.2373515              -6.4587
       120                         -0.2326595              -6.3310
       121                         -0.2294340              -6.2432
       122                         -0.2256017              -6.1389
       123                         -0.2179546              -5.9308
       124                         -0.2050023              -5.5784
       ...                                ...                  ...
       216                          0.6764966              18.4084
      -------------------------------------------------------------
                  HL-Gap            0.1419006 Eh            3.8613 eV

     #   Z          covCN         q      C6AA      Î±(0)
     1   6 C        2.923    -0.032    28.793     8.800
     2   6 C        2.919    -0.027    28.671     8.781
     3   6 C        2.920    -0.027    28.688     8.783
     4   6 C        2.919    -0.026    28.649     8.777
     5   6 C        2.925    -0.033    28.822     8.804
     6   6 C        2.971    -0.002    28.080     8.692
     7   6 C        3.826     0.035    19.960     6.357
     8   6 C        3.818     0.037    19.939     6.355
     9   6 C        2.973    -0.001    28.046     8.687
    10   6 C        2.923    -0.031    28.781     8.798
    11   6 C        2.919    -0.027    28.679     8.782
    12   6 C        2.920    -0.029    28.726     8.789
    13   6 C        2.919    -0.027    28.682     8.782
    14   6 C        2.924    -0.034    28.841     8.807
    15   7 N        2.765    -0.118    23.561     7.209
    16   6 C        2.771     0.277    22.323     7.738
    17   6 C        2.978    -0.020    28.492     8.756
    18   6 C        2.970     0.018    27.604     8.618
    19   6 C        3.902     0.027    20.058     6.366
    20   6 C        3.763    -0.108    22.617     6.779
    21   6 C        3.762    -0.107    22.584     6.774
    22   6 C        3.763    -0.113    22.701     6.792
    23   6 C        2.929    -0.039    28.958     8.825
    24   6 C        2.920    -0.031    28.765     8.795
    25   6 C        2.917    -0.034    28.846     8.807
    26   6 C        2.935    -0.032    28.786     8.799
    27   8 O        0.860    -0.435    22.400     6.346
    28   6 C        3.771     0.107    18.854     6.188
    29   6 C        2.686     0.379    20.580     7.424
    30   8 O        1.659    -0.368    20.235     6.073
    31   8 O        0.856    -0.371    21.106     6.160
    32   7 N        2.768    -0.112    23.432     7.189
    33   6 C        2.766     0.280    22.264     7.728
    34   6 C        2.981    -0.020    28.488     8.755
    35   6 C        2.930    -0.032    28.808     8.802
    36   6 C        2.917    -0.034    28.839     8.806
    37   6 C        2.919    -0.031    28.778     8.797
    38   6 C        2.929    -0.038    28.948     8.824
    39   6 C        2.970     0.016    27.653     8.626
    40   6 C        3.901     0.027    20.070     6.368
    41   6 C        3.761    -0.106    22.576     6.773
    42   6 C        3.764    -0.110    22.648     6.783
    43   6 C        3.762    -0.109    22.624     6.780
    44   8 O        0.859    -0.429    22.274     6.328
    45   1 H        0.926     0.036     2.508     2.477
    46   1 H        0.926     0.041     2.431     2.438
    47   1 H        0.926     0.040     2.447     2.446
    48   1 H        0.926     0.038     2.470     2.458
    49   1 H        0.926     0.032     2.560     2.502
    50   1 H        0.924     0.058     2.220     2.330
    51   1 H        0.924     0.053     2.283     2.363
    52   1 H        0.926     0.051     2.312     2.378
    53   1 H        0.926     0.039     2.457     2.451
    54   1 H        0.926     0.037     2.486     2.466
    55   1 H        0.926     0.036     2.498     2.472
    56   1 H        0.926     0.029     2.595     2.519
    57   1 H        0.925     0.032     2.561     2.503
    58   1 H        0.925     0.040     2.455     2.450
    59   1 H        0.925     0.037     2.489     2.467
    60   1 H        0.925     0.043     2.405     2.425
    61   1 H        0.925     0.029     2.607     2.525
    62   1 H        0.925     0.038     2.472     2.459
    63   1 H        0.925     0.070     2.089     2.260
    64   1 H        0.925     0.037     2.489     2.467
    65   1 H        0.925     0.031     2.574     2.509
    66   1 H        0.926     0.046     2.364     2.405
    67   1 H        0.926     0.034     2.535     2.490
    68   1 H        0.926     0.033     2.547     2.496
    69   1 H        0.925     0.025     2.659     2.550
    70   1 H        0.922     0.060     2.202     2.321
    71   1 H        0.804     0.341     0.609     1.225
    72   1 H        0.926     0.031     2.570     2.507
    73   1 H        0.926     0.034     2.530     2.487
    74   1 H        0.926     0.034     2.527     2.486
    75   1 H        0.926     0.046     2.364     2.404
    76   1 H        0.925     0.042     2.427     2.436
    77   1 H        0.925     0.040     2.443     2.444
    78   1 H        0.925     0.026     2.642     2.542
    79   1 H        0.925     0.062     2.170     2.304
    80   1 H        0.925     0.032     2.551     2.498
    81   1 H        0.925     0.041     2.433     2.439
    82   1 H        0.925     0.038     2.474     2.460
    83   1 H        0.925     0.033     2.543     2.494
    84   1 H        0.925     0.040     2.445     2.445

Wiberg/Mayer (AO) data.
largest (>0.10) Wiberg bond orders for each atom

     #   Z sym  total        # sym  WBO       # sym  WBO       # sym  WBO
 ---------------------------------------------------------------------------
     1   6 C    3.991 --     2 C    1.444     6 C    1.412    45 H    0.965
                             4 C    0.111
     2   6 C    3.992 --     1 C    1.444     3 C    1.438    46 H    0.970
                             5 C    0.111
     3   6 C    3.990 --     4 C    1.439     2 C    1.438    47 H    0.971
                             6 C    0.110
     4   6 C    3.992 --     5 C    1.444     3 C    1.439    48 H    0.970
                             1 C    0.111
     5   6 C    3.991 --     4 C    1.444     6 C    1.411    49 H    0.968
                             2 C    0.111
     6   6 C    3.986 --     1 C    1.412     5 C    1.411     7 C    0.984
                             3 C    0.110
     7   6 C    3.967 --     6 C    0.984    32 N    0.961     8 C    0.959
                            50 H    0.952
     8   6 C    3.968 --     9 C    0.986    15 N    0.962     7 C    0.959
                            51 H    0.951
     9   6 C    3.986 --    14 C    1.416    10 C    1.410     8 C    0.986
                            12 C    0.109
    10   6 C    3.990 --    11 C    1.445     9 C    1.410    52 H    0.963
                            13 C    0.112
    11   6 C    3.992 --    10 C    1.445    12 C    1.435    53 H    0.971
                            14 C    0.111
    12   6 C    3.990 --    13 C    1.441    11 C    1.435    54 H    0.971
                             9 C    0.109
    13   6 C    3.992 --    14 C    1.441    12 C    1.441    55 H    0.971
                            10 C    0.112
    14   6 C    3.990 --    13 C    1.441     9 C    1.416    56 H    0.968
                            11 C    0.111
    15   7 N    3.463 --    16 C    1.213    28 C    0.973     8 C    0.962
                            27 O    0.186
    16   6 C    3.940 --    27 O    1.662    15 N    1.213    17 C    0.963
    17   6 C    3.985 --    26 C    1.399    18 C    1.382    16 C    0.963
                            24 C    0.108
    18   6 C    3.983 --    23 C    1.409    17 C    1.382    19 C    0.987
                            25 C    0.107
    19   6 C    3.991 --    20 C    0.997    21 C    0.991    18 C    0.987
                            22 C    0.980
    20   6 C    3.996 --    19 C    0.997    57 H    0.985    58 H    0.984
                            59 H    0.983
    21   6 C    3.995 --    19 C    0.991    62 H    0.984    61 H    0.983
                            60 H    0.973
    22   6 C    3.991 --    65 H    0.987    64 H    0.983    19 C    0.980
                            63 H    0.974
    23   6 C    3.991 --    24 C    1.448    18 C    1.409    66 H    0.963
                            26 C    0.108
    24   6 C    3.991 --    23 C    1.448    25 C    1.430    67 H    0.971
                            17 C    0.108
    25   6 C    3.991 --    26 C    1.444    24 C    1.430    68 H    0.970
                            18 C    0.107
    26   6 C    3.991 --    25 C    1.444    17 C    1.399    69 H    0.966
                            23 C    0.108
    27   8 O    2.023 --    16 C    1.662    15 N    0.186
    28   6 C    3.960 --    32 N    0.979    15 N    0.973    70 H    0.940
                            29 C    0.913
    29   6 C    3.928 --    31 O    1.789    30 O    1.133    28 C    0.913
    30   8 O    2.202 --    29 C    1.133    71 H    0.859    31 O    0.172
    31   8 O    2.077 --    29 C    1.789    30 O    0.172
    32   7 N    3.474 --    33 C    1.217    28 C    0.979     7 C    0.961
                            44 O    0.185
    33   6 C    3.938 --    44 O    1.661    32 N    1.217    34 C    0.958
    34   6 C    3.986 --    35 C    1.404    39 C    1.381    33 C    0.958
                            37 C    0.109
    35   6 C    3.991 --    36 C    1.441    34 C    1.404    72 H    0.965
                            38 C    0.108
    36   6 C    3.991 --    35 C    1.441    37 C    1.433    73 H    0.970
                            39 C    0.108
    37   6 C    3.992 --    38 C    1.447    36 C    1.433    74 H    0.971
                            34 C    0.109
    38   6 C    3.990 --    37 C    1.447    39 C    1.408    75 H    0.963
                            35 C    0.108
    39   6 C    3.983 --    38 C    1.408    34 C    1.381    40 C    0.987
                            36 C    0.108
    40   6 C    3.991 --    43 C    0.998    41 C    0.992    39 C    0.987
                            42 C    0.979
    41   6 C    3.996 --    40 C    0.992    78 H    0.984    76 H    0.983
                            77 H    0.976
    42   6 C    3.992 --    80 H    0.987    81 H    0.983    40 C    0.979
                            79 H    0.979
    43   6 C    3.996 --    40 C    0.998    83 H    0.986    84 H    0.983
                            82 H    0.982
    44   8 O    2.040 --    33 C    1.661    32 N    0.185
    45   1 H    0.999 --     1 C    0.965
    46   1 H    0.998 --     2 C    0.970
    47   1 H    0.998 --     3 C    0.971
    48   1 H    0.998 --     4 C    0.970
    49   1 H    0.999 --     5 C    0.968
    50   1 H    0.995 --     7 C    0.952
    51   1 H    0.996 --     8 C    0.951
    52   1 H    0.997 --    10 C    0.963
    53   1 H    0.998 --    11 C    0.971
    54   1 H    0.998 --    12 C    0.971
    55   1 H    0.998 --    13 C    0.971
    56   1 H    0.999 --    14 C    0.968
    57   1 H    0.999 --    20 C    0.985
    58   1 H    0.998 --    20 C    0.984
    59   1 H    0.999 --    20 C    0.983
    60   1 H    0.998 --    21 C    0.973
    61   1 H    0.999 --    21 C    0.983
    62   1 H    0.998 --    21 C    0.984
    63   1 H    0.995 --    22 C    0.974
    64   1 H    0.997 --    22 C    0.983
    65   1 H    0.999 --    22 C    0.987
    66   1 H    0.997 --    23 C    0.963
    67   1 H    0.998 --    24 C    0.971
    68   1 H    0.998 --    25 C    0.970
    69   1 H    0.999 --    26 C    0.966
    70   1 H    0.995 --    28 C    0.940
    71   1 H    0.883 --    30 O    0.859
    72   1 H    0.999 --    35 C    0.965
    73   1 H    0.997 --    36 C    0.970
    74   1 H    0.998 --    37 C    0.971
    75   1 H    0.997 --    38 C    0.963
    76   1 H    0.998 --    41 C    0.983
    77   1 H    0.998 --    41 C    0.976
    78   1 H    0.999 --    41 C    0.984
    79   1 H    0.996 --    42 C    0.979
    80   1 H    0.999 --    42 C    0.987
    81   1 H    0.997 --    42 C    0.983
    82   1 H    0.999 --    43 C    0.982
    83   1 H    0.999 --    43 C    0.986
    84   1 H    0.998 --    43 C    0.983
 ---------------------------------------------------------------------------

molecular dipole:
                 x           y           z       tot (Debye)
 q only:        0.058       2.783      -1.158
   full:        0.104       3.041      -1.241       8.353

           -------------------------------------------------
          | TOTAL ENERGY             -123.945703368316 Eh   |
          | GRADIENT NORM               0.000248990931 Eh/Î± |
          | HOMO-LUMO GAP               3.861311566356 eV   |
           -------------------------------------------------

 * finished run on 2022/03/16 at 21:58:13.614
