   * xtb version 6.3.3 (4ae9cef) compiled by 'conda@95abc7406d43' on 2020-10-14
          program call               : xtb acid_364.xyz --opt --chrg 0 --uhf 0 --gfn 2
          number of atoms            :                    78
          number of electrons        :                   230
          charge                     :                     0
          spin                       :                   0.0

   ID    Z sym.   atoms
    1    6 C      1-22, 24-30, 33, 34, 38-44
    2    7 N      23, 37
    3    8 O      31, 32, 35, 36, 45, 46
    4    1 H      47-78

          :  Hamiltonian                  GFN2-xTB          :
 * total energy  :  -127.9762174 Eh     change       -0.4620915E-08 Eh
 * total energy  :  -127.9934069 Eh     change       -0.1718958E-01 Eh
 * total energy  :  -127.9981979 Eh     change       -0.4790983E-02 Eh
 * total energy  :  -127.9992507 Eh     change       -0.1052806E-02 Eh
 * total energy  :  -127.9999182 Eh     change       -0.6674660E-03 Eh
 * total energy  :  -128.0002450 Eh     change       -0.3268616E-03 Eh
 * total energy  :  -128.0006093 Eh     change       -0.3642105E-03 Eh
 * total energy  :  -128.0009498 Eh     change       -0.3405506E-03 Eh
 * total energy  :  -128.0013327 Eh     change       -0.3828574E-03 Eh
 * total energy  :  -128.0016801 Eh     change       -0.3473965E-03 Eh
 * total energy  :  -128.0094607 Eh     change       -0.1794901E-04 Eh
 * total energy  :  -128.0094824 Eh     change       -0.2173787E-04 Eh
 * total energy  :  -128.0095065 Eh     change       -0.2407171E-04 Eh
 * total energy  :  -128.0095289 Eh     change       -0.2243900E-04 Eh
 * total energy  :  -128.0095447 Eh     change       -0.1577128E-04 Eh
 * total energy  :  -128.0095543 Eh     change       -0.9597257E-05 Eh
 * total energy  :  -128.0095609 Eh     change       -0.6606611E-05 Eh
 * total energy  :  -128.0095661 Eh     change       -0.5142983E-05 Eh
 * total energy  :  -128.0095702 Eh     change       -0.4161431E-05 Eh
   *** GEOMETRY OPTIMIZATION CONVERGED AFTER 108 ITERATIONS ***

 final structure:
================
78
 xtb: 6.3.3 (4ae9cef)
C         2.16190881176477    1.24503926258903   -1.33958118708483
C         3.28297208749765    1.56529088872643   -2.04849656425412
C         3.83949486205062    2.85899315889085   -1.97739779271439
C         5.00036374020005    3.22038782487639   -2.69124382485529
C         5.51279946846781    4.48383451028911   -2.59606119966208
C         4.88757094181470    5.44287602096237   -1.78365174537126
C         3.76063115572644    5.12299974872825   -1.07995820691441
C         3.20769519447105    3.82763189764612   -1.15545841020416
C         2.05278254200819    3.46475749746353   -0.43468997234304
C         1.53575885178886    2.19992398407449   -0.51473518787012
C         0.28387436560470    1.83238946129193    0.24487100641641
C        -0.89443010109216    1.60398409017389   -0.71917789059952
C        -2.25773471906652    2.00799235095734   -0.20557569000113
C        -2.54258685235837    2.18331546700861    1.12354142663644
C        -3.85487987928303    2.47457157127455    1.55348902974493
C        -4.16652107503733    2.64226592291666    2.91879794676963
C        -5.44690344762972    2.91541243708737    3.31177780057665
C        -6.47164019619340    3.03478762830080    2.35950700629004
C        -6.20064853759761    2.87483013624218    1.02917327342592
C        -4.89102321460234    2.58944829351269    0.59132874218922
C        -4.57028611455446    2.40839997011371   -0.77085034194849
C        -3.29300182385923    2.12477180444893   -1.15784254454250
N        -0.85084543968510    0.15557643756122   -0.90736177942022
C        -1.17026038335648   -0.45411915031277   -2.07772106391465
C        -0.96313804568527   -1.92324086661227   -2.10617882421303
C         0.11283917073112   -2.71208087073981   -1.78994381154460
C        -0.24769857194029   -4.04151491655971   -2.11930213457875
C         0.58336821184361   -5.26438576905145   -1.94017978710627
C        -1.52364796163664   -3.96507382475068   -2.61649899958228
C        -2.44557930763283   -5.02094973296663   -3.11167983963360
O        -1.94784966342369   -2.68819806082510   -2.61935506156147
O        -1.57080807939626    0.16976644718918   -3.03777736003494
C        -0.48629707411470   -0.42443857620123    0.35486609237912
C        -1.73709110931943   -0.63706725136386    1.23928831372003
O        -2.77257182172075   -1.03206449109839    0.50365067554190
O        -1.76146659409717   -0.53274838979759    2.43224999761224
N         0.42308986683582    0.53804223024451    0.91982113933914
C         1.54612714485478    0.30271572072118    1.66439918986100
C         1.81859970705950   -1.09396649094672    2.05403685139096
C         1.05378559619399   -2.18430133769475    2.39011831774525
C         1.95138645045219   -3.22919575441057    2.70940828908436
C         1.60713748057074   -4.61723135307828    3.12623459951244
C         3.20850701142957   -2.70156831972745    2.54462552522513
C         4.55196276659282   -3.31306600635925    2.71889038000623
O         3.12846333597234   -1.41883395106793    2.16110452251395
O         2.29624100717005    1.20970022671373    1.96174828969646
H         1.74715399673529    0.24934153903579   -1.40668553878110
H         3.76170859700612    0.82695176575032   -2.67605716791837
H         5.47875260855858    2.47837407497970   -3.31491127347734
H         6.40351476773727    4.75417641992440   -3.14444986833002
H         5.30704606342075    6.43639124136963   -1.72027183849123
H         3.27652263169101    5.85696803836623   -0.45184304859104
H         1.58349922295110    4.20408348936281    0.19844800244105
H         0.07357192873978    2.61669690690775    0.97665081503573
H        -0.71651835761704    2.07444983511572   -1.69106320332356
H        -1.77978478423683    2.09525009893637    1.88281574324198
H        -3.37374366321768    2.54497071458604    3.64623156070497
H        -5.68024852526804    3.04273679776628    4.35866670281205
H        -7.47707760580503    3.25340864842065    2.68858078745699
H        -6.98570279559008    2.96436618019305    0.29189471875318
H        -5.35678514867782    2.49660780646719   -1.50625366782486
H        -3.05554007631849    1.96909212872605   -2.19902500686896
H         1.06559418744585   -2.39693692777301   -1.41061540551661
H         0.28182090665782   -5.80238094099242   -1.04103557063175
H         1.63219533036756   -4.99626755993870   -1.84391922449205
H         0.46495404153839   -5.93486715639867   -2.78874742529093
H        -1.96486714952131   -5.61156974564965   -3.88992269986134
H        -3.33876346828647   -4.55461162487888   -3.51725757479108
H        -2.73085611274571   -5.69414859383533   -2.30375004903556
H        -0.01862585535411   -1.40990915060624    0.24134493837386
H        -3.56301739821753   -1.16252867969670    1.05263889719323
H        -0.01228702562743   -2.22817994307012    2.46784908468473
H         0.54174426847821   -4.69645189817144    3.32344081207354
H         1.87116406517954   -5.32924578879730    2.34412714750985
H         2.15385089766044   -4.89185619822858    4.02660147653037
H         4.68268021366710   -3.65602114732603    3.74437149377091
H         4.67320327090541   -4.17081766592297    2.05849690262848
H         5.31438820997874   -2.57373054105426    2.49143628427145

          :  Hamiltonian                  GFN2-xTB          :
         :: total energy            -128.009570228851 Eh    ::
         :: gradient norm              0.000322809660 Eh/a0 ::
         :: HOMO-LUMO gap              2.958211710347 eV    ::
         :: SCC energy              -129.930442136966 Eh    ::
         :: -> dispersion             -0.105031126108 Eh    ::
         :: repulsion energy           1.918529235405 Eh    ::

    * Orbital Energies and Occupations

         #    Occupation            Energy/Eh            Energy/eV
      -------------------------------------------------------------
         1        2.0000           -0.7736085             -21.0510
       ...           ...                  ...                  ...
       103        2.0000           -0.4193593             -11.4113
       104        2.0000           -0.4169998             -11.3471
       105        2.0000           -0.4115720             -11.1994
       106        2.0000           -0.4092029             -11.1350
       107        2.0000           -0.4063788             -11.0581
       108        2.0000           -0.4020729             -10.9410
       109        2.0000           -0.3981482             -10.8342
       110        2.0000           -0.3937906             -10.7156
       111        2.0000           -0.3918417             -10.6626
       112        2.0000           -0.3856315             -10.4936
       113        2.0000           -0.3838976             -10.4464
       114        2.0000           -0.3827070             -10.4140
       115        2.0000           -0.3739758             -10.1764 (HOMO)
       116                         -0.2652635              -7.2182 (LUMO)
       117                         -0.2609371              -7.1005
       118                         -0.2559497              -6.9647
       119                         -0.2497362              -6.7957
       120                         -0.2470376              -6.7222
       121                         -0.2335844              -6.3562
       122                         -0.2255046              -6.1363
       123                         -0.1951250              -5.3096
       124                         -0.1923667              -5.2346
       125                         -0.1846783              -5.0254
       126                         -0.1841467              -5.0109
       ...                                ...                  ...
       216                          0.7014161              19.0865
      -------------------------------------------------------------
                  HL-Gap            0.1087123 Eh            2.9582 eV

     #   Z          covCN         q      C6AA      Î±(0)
     1   6 C        2.919    -0.030    28.747     8.792
     2   6 C        2.917    -0.032    28.807     8.801
     3   6 C        2.988     0.015    27.674     8.629
     4   6 C        2.918    -0.034    28.838     8.806
     5   6 C        2.916    -0.030    28.738     8.791
     6   6 C        2.916    -0.029    28.726     8.789
     7   6 C        2.919    -0.033    28.819     8.803
     8   6 C        2.987     0.018    27.597     8.617
     9   6 C        2.923    -0.035    28.861     8.810
    10   6 C        2.970     0.010    27.798     8.648
    11   6 C        3.834     0.041    19.869     6.342
    12   6 C        3.846     0.036    19.933     6.351
    13   6 C        2.968    -0.003    28.094     8.694
    14   6 C        2.920    -0.047    29.160     8.855
    15   6 C        2.987     0.012    27.739     8.639
    16   6 C        2.918    -0.034    28.855     8.809
    17   6 C        2.916    -0.030    28.744     8.792
    18   6 C        2.916    -0.030    28.745     8.792
    19   6 C        2.918    -0.036    28.887     8.814
    20   6 C        2.987     0.011    27.767     8.644
    21   6 C        2.916    -0.035    28.866     8.810
    22   6 C        2.920    -0.036    28.888     8.814
    23   7 N        2.776    -0.108    23.355     7.178
    24   6 C        2.752     0.270    22.436     7.756
    25   6 C        3.092     0.071    26.309     8.407
    26   6 C        3.018    -0.078    29.923     8.973
    27   6 C        3.053    -0.027    28.634     8.776
    28   6 C        3.754    -0.106    22.587     6.777
    29   6 C        3.101     0.108    25.507     8.276
    30   6 C        3.753    -0.117    22.794     6.808
    31   8 O        1.730    -0.174    16.930     5.556
    32   8 O        0.859    -0.410    21.880     6.271
    33   6 C        3.777     0.083    19.232     6.248
    34   6 C        2.687     0.352    21.028     7.505
    35   8 O        1.660    -0.363    20.153     6.060
    36   8 O        0.856    -0.382    21.317     6.190
    37   7 N        2.766    -0.120    23.611     7.217
    38   6 C        2.757     0.268    22.473     7.763
    39   6 C        3.085     0.068    26.391     8.421
    40   6 C        3.018    -0.076    29.867     8.965
    41   6 C        3.051    -0.027    28.626     8.775
    42   6 C        3.754    -0.107    22.594     6.778
    43   6 C        3.097     0.111    25.440     8.266
    44   6 C        3.753    -0.117    22.801     6.809
    45   8 O        1.731    -0.173    16.902     5.551
    46   8 O        0.860    -0.409    21.865     6.269
    47   1 H        0.926     0.020     2.726     2.582
    48   1 H        0.926     0.035     2.519     2.482
    49   1 H        0.926     0.032     2.558     2.501
    50   1 H        0.926     0.031     2.574     2.509
    51   1 H        0.926     0.032     2.564     2.504
    52   1 H        0.926     0.035     2.522     2.484
    53   1 H        0.926     0.038     2.473     2.459
    54   1 H        0.924     0.069     2.101     2.267
    55   1 H        0.924     0.078     1.998     2.210
    56   1 H        0.926     0.041     2.433     2.439
    57   1 H        0.926     0.039     2.461     2.453
    58   1 H        0.926     0.033     2.545     2.495
    59   1 H        0.926     0.032     2.563     2.504
    60   1 H        0.926     0.033     2.544     2.494
    61   1 H        0.926     0.039     2.464     2.455
    62   1 H        0.926     0.060     2.203     2.321
    63   1 H        0.926     0.030     2.581     2.512
    64   1 H        0.924     0.046     2.376     2.411
    65   1 H        0.925     0.049     2.336     2.390
    66   1 H        0.925     0.046     2.367     2.406
    67   1 H        0.925     0.060     2.200     2.320
    68   1 H        0.925     0.068     2.108     2.270
    69   1 H        0.925     0.058     2.220     2.330
    70   1 H        0.924     0.079     1.986     2.204
    71   1 H        0.804     0.344     0.603     1.220
    72   1 H        0.927     0.039     2.464     2.454
    73   1 H        0.925     0.048     2.339     2.392
    74   1 H        0.925     0.044     2.392     2.419
    75   1 H        0.925     0.047     2.355     2.400
    76   1 H        0.925     0.061     2.186     2.312
    77   1 H        0.925     0.058     2.220     2.330
    78   1 H        0.925     0.069     2.094     2.263

Wiberg/Mayer (AO) data.
largest (>0.10) Wiberg bond orders for each atom

     #   Z sym  total        # sym  WBO       # sym  WBO       # sym  WBO
 ---------------------------------------------------------------------------
     1   6 C    3.992 --     2 C    1.565    10 C    1.294    47 H    0.968
     2   6 C    3.992 --     1 C    1.565     3 C    1.276    48 H    0.968
                             9 C    0.114
     3   6 C    3.990 --     4 C    1.282     2 C    1.276     8 C    1.251
     4   6 C    3.992 --     5 C    1.556     3 C    1.282    49 H    0.968
                             7 C    0.118
     5   6 C    3.990 --     4 C    1.556     6 C    1.321    50 H    0.971
     6   6 C    3.992 --     7 C    1.558     5 C    1.321    51 H    0.971
     7   6 C    3.990 --     6 C    1.558     8 C    1.279    52 H    0.968
                             4 C    0.118
     8   6 C    3.990 --     9 C    1.282     7 C    1.279     3 C    1.251
     9   6 C    3.989 --    10 C    1.527     8 C    1.282    53 H    0.965
                             2 C    0.114
    10   6 C    3.985 --     9 C    1.527     1 C    1.294    11 C    0.987
    11   6 C    3.960 --    10 C    0.987    12 C    0.965    37 N    0.953
                            54 H    0.952
    12   6 C    3.956 --    13 C    0.982    11 C    0.965    55 H    0.953
                            23 N    0.948
    13   6 C    3.984 --    14 C    1.530    22 C    1.289    12 C    0.982
    14   6 C    3.990 --    13 C    1.530    15 C    1.276    56 H    0.961
                            21 C    0.113
    15   6 C    3.990 --    16 C    1.280    14 C    1.276    20 C    1.253
    16   6 C    3.990 --    17 C    1.556    15 C    1.280    57 H    0.968
                            19 C    0.118
    17   6 C    3.992 --    16 C    1.556    18 C    1.322    58 H    0.971
    18   6 C    3.990 --    19 C    1.555    17 C    1.322    59 H    0.971
    19   6 C    3.992 --    18 C    1.555    20 C    1.282    60 H    0.968
                            16 C    0.118
    20   6 C    3.990 --    19 C    1.282    21 C    1.274    15 C    1.253
    21   6 C    3.991 --    22 C    1.568    20 C    1.274    61 H    0.967
                            14 C    0.113
    22   6 C    3.988 --    21 C    1.568    13 C    1.289    62 H    0.964
    23   7 N    3.472 --    24 C    1.203    33 C    0.992    12 C    0.948
                            32 O    0.192
    24   6 C    3.954 --    32 O    1.681    23 N    1.203    25 C    0.981
    25   6 C    3.905 --    26 C    1.534    31 O    1.118    24 C    0.981
                            29 C    0.137
    26   6 C    3.979 --    25 C    1.534    27 C    1.288    63 H    0.970
    27   6 C    3.979 --    29 C    1.522    26 C    1.288    28 C    1.030
    28   6 C    3.996 --    27 C    1.030    65 H    0.984    66 H    0.978
                            64 H    0.970
    29   6 C    3.906 --    27 C    1.522    31 O    1.126    30 C    1.029
                            25 C    0.137
    30   6 C    3.993 --    29 C    1.029    68 H    0.982    67 H    0.970
                            69 H    0.968
    31   8 O    2.451 --    29 C    1.126    25 C    1.118
    32   8 O    2.022 --    24 C    1.681    23 N    0.192
    33   6 C    3.974 --    37 N    0.994    23 N    0.992    70 H    0.918
                            34 C    0.908
    34   6 C    3.918 --    36 O    1.778    35 O    1.153    33 C    0.908
    35   8 O    2.217 --    34 C    1.153    71 H    0.856    36 O    0.181
    36   8 O    2.065 --    34 C    1.778    35 O    0.181
    37   7 N    3.443 --    38 C    1.177    33 C    0.994    11 C    0.953
                            46 O    0.185
    38   6 C    3.955 --    46 O    1.679    37 N    1.177    39 C    1.010
    39   6 C    3.903 --    40 C    1.516    45 O    1.107    38 C    1.010
                            43 C    0.133
    40   6 C    3.982 --    39 C    1.516    41 C    1.302    72 H    0.970
    41   6 C    3.980 --    43 C    1.508    40 C    1.302    42 C    1.030
    42   6 C    3.996 --    41 C    1.030    73 H    0.985    75 H    0.976
                            74 H    0.972
    43   6 C    3.909 --    41 C    1.508    45 O    1.138    44 C    1.030
                            39 C    0.133
    44   6 C    3.993 --    43 C    1.030    78 H    0.982    77 H    0.970
                            76 H    0.968
    45   8 O    2.453 --    43 C    1.138    39 C    1.107
    46   8 O    2.023 --    38 C    1.679    37 N    0.185
    47   1 H    0.999 --     1 C    0.968
    48   1 H    0.998 --     2 C    0.968
    49   1 H    0.998 --     4 C    0.968
    50   1 H    0.999 --     5 C    0.971
    51   1 H    0.999 --     6 C    0.971
    52   1 H    0.998 --     7 C    0.968
    53   1 H    0.998 --     9 C    0.965
    54   1 H    0.994 --    11 C    0.952
    55   1 H    0.992 --    12 C    0.953
    56   1 H    0.998 --    14 C    0.961
    57   1 H    0.998 --    16 C    0.968
    58   1 H    0.998 --    17 C    0.971
    59   1 H    0.999 --    18 C    0.971
    60   1 H    0.998 --    19 C    0.968
    61   1 H    0.998 --    21 C    0.967
    62   1 H    0.996 --    22 C    0.964
    63   1 H    0.999 --    26 C    0.970
    64   1 H    0.997 --    28 C    0.970
    65   1 H    0.997 --    28 C    0.984
    66   1 H    0.998 --    28 C    0.978
    67   1 H    0.995 --    30 C    0.970
    68   1 H    0.995 --    30 C    0.982
    69   1 H    0.996 --    30 C    0.968
    70   1 H    0.993 --    33 C    0.918
    71   1 H    0.881 --    35 O    0.856
    72   1 H    0.998 --    40 C    0.970
    73   1 H    0.998 --    42 C    0.985
    74   1 H    0.998 --    42 C    0.972
    75   1 H    0.997 --    42 C    0.976
    76   1 H    0.994 --    44 C    0.968
    77   1 H    0.995 --    44 C    0.970
    78   1 H    0.995 --    44 C    0.982
 ---------------------------------------------------------------------------

molecular dipole:
                 x           y           z       tot (Debye)
 q only:       -0.508      -1.858      -0.003
   full:       -0.674      -2.328       0.132       6.169

           -------------------------------------------------
          | TOTAL ENERGY             -128.009570228851 Eh   |
          | GRADIENT NORM               0.000322809660 Eh/Î± |
          | HOMO-LUMO GAP               2.958211710347 eV   |
           -------------------------------------------------

 * finished run on 2022/03/17 at 00:18:23.077
