   * xtb version 6.3.3 (4ae9cef) compiled by 'conda@95abc7406d43' on 2020-10-14
          program call               : xtb acid_391.xyz --opt --chrg 0 --uhf 0 --gfn 2
          number of atoms            :                    80
          number of electrons        :                   238
          charge                     :                     0
          spin                       :                   0.0

   ID    Z sym.   atoms
    1    6 C      1-22, 24-29, 31, 32, 34, 35, 39-42, 44-47
    2    7 N      23, 38
    3    8 O      30, 33, 36, 37, 43, 48
    4    1 H      49-80

          :  Hamiltonian                  GFN2-xTB          :
 * total energy  :  -132.2261843 Eh     change       -0.1069708E-08 Eh
 * total energy  :  -132.2447789 Eh     change       -0.1859464E-01 Eh
 * total energy  :  -132.2506179 Eh     change       -0.5838975E-02 Eh
 * total energy  :  -132.2524796 Eh     change       -0.1861729E-02 Eh
 * total energy  :  -132.2538816 Eh     change       -0.1401950E-02 Eh
 * total energy  :  -132.2546577 Eh     change       -0.7761659E-03 Eh
 * total energy  :  -132.2552392 Eh     change       -0.5814870E-03 Eh
 * total energy  :  -132.2557516 Eh     change       -0.5123389E-03 Eh
 * total energy  :  -132.2562318 Eh     change       -0.4802459E-03 Eh
 * total energy  :  -132.2566831 Eh     change       -0.4512968E-03 Eh
 * total energy  :  -132.2740599 Eh     change       -0.7406897E-05 Eh
 * total energy  :  -132.2740672 Eh     change       -0.7210810E-05 Eh
 * total energy  :  -132.2740733 Eh     change       -0.6152852E-05 Eh
 * total energy  :  -132.2740784 Eh     change       -0.5090969E-05 Eh
 * total energy  :  -132.2740845 Eh     change       -0.6055513E-05 Eh
 * total energy  :  -132.2740919 Eh     change       -0.7400538E-05 Eh
 * total energy  :  -132.2740984 Eh     change       -0.6552703E-05 Eh
 * total energy  :  -132.2741036 Eh     change       -0.5198999E-05 Eh
 * total energy  :  -132.2741080 Eh     change       -0.4382764E-05 Eh
   *** GEOMETRY OPTIMIZATION CONVERGED AFTER 138 ITERATIONS ***

 final structure:
================
80
 xtb: 6.3.3 (4ae9cef)
C        -5.17326362010451   -1.25794654866136   -0.34695607059967
C        -5.10141514169674   -2.02417544502094    0.78042862021991
C        -3.87426829290176   -2.17495039267200    1.44188985705194
C        -2.75360641682812   -1.54322037958016    0.98223795778405
C        -2.78988305211756   -0.73205813063023   -0.17355996046233
C        -4.03007964741266   -0.60823457921994   -0.85884411143375
C        -4.10509671408183    0.15132339681095   -2.04361538060733
C        -2.99360047078127    0.76141958151092   -2.54998311581775
C        -1.77604715620072    0.66551467925182   -1.86817034610939
C        -1.66300931106669   -0.04005530648341   -0.69456793237797
C        -0.32375879916237   -0.02624560535071    0.00127629773015
C         0.80311395653534   -0.69089526069790   -0.84136755639136
C         1.39780074238882   -1.88603641690600   -0.12755223040332
C         2.64100073378677   -1.81812787311338    0.44498764770575
C         3.17486480061820   -2.89849995357885    1.16172889630615
C         2.45131060904843   -4.04464109763474    1.31612406805036
C         1.17571553447058   -4.16836890138750    0.72729076883543
C         0.64156471409555   -3.08646641765601   -0.02504873303506
C        -0.61560102010771   -3.26605538317546   -0.64214129493378
C        -1.32058997670519   -4.42753856725701   -0.48885010358164
C        -0.80573590034245   -5.47842444967328    0.28250137042506
C         0.42175978670346   -5.35228943925259    0.86802459766813
N         1.75896093069580    0.37891712814917   -1.06970297175686
C         2.65156932165791    0.30706153254712   -2.09654668515495
C         3.57843376245944    1.47387388291538   -2.20335069743670
C         3.14262051104778    2.69265535752229   -2.71531888661720
C         4.03455823338290    3.74252028023588   -2.81018265437843
C         5.34990121845568    3.59982922138576   -2.39986576066653
C         5.79106196773261    2.37931933365875   -1.89993337121179
O         7.05621973941860    2.11901859368546   -1.48140312497786
C         8.00131129257201    3.16088141040017   -1.50277240494798
C         4.89369340743165    1.31419780789123   -1.81275825313758
O         2.67884131842756   -0.65173090160983   -2.83729980026339
C         1.53513850198347    1.47173793008745   -0.16243940917371
C         2.44687176287898    1.37544428852290    1.07966290578902
O         1.79374577999328    0.93164789396491    2.15096923883584
O         3.61114810723857    1.65808405780630    1.07786929664824
N         0.14518067681498    1.33952674598980    0.18760386575420
C        -0.55530840940821    2.41619901985773    0.62800585489941
C        -1.96046403812323    2.13907465701206    1.05103374143190
C        -2.20743525403524    1.35333937293363    2.16190591890446
C        -3.51740073836220    1.09508705666364    2.56649597860037
O        -3.64950839175523    0.29758672347822    3.66041158681382
C        -4.94602285208949   -0.02303663810498    4.10417045041811
C        -4.57292271625137    1.64025586279291    1.84486156797466
C        -4.31326121195082    2.45202886420865    0.75249914456441
C        -3.01844573497939    2.71641202548197    0.35609235790795
O        -0.05208213199709    3.52164700459356    0.66276446548949
H        -6.10915271206181   -1.14200499356910   -0.87483377104733
H        -5.98023621639480   -2.52404052052129    1.16210387574270
H        -3.81719553610029   -2.79490532397831    2.32422483345016
H        -1.82781363660369   -1.68946187783305    1.51472214789833
H        -5.05713536242723    0.23268451669907   -2.54765802404055
H        -3.04497030676971    1.32909015822257   -3.46675914178630
H        -0.91038030894538    1.17589266517957   -2.26609726216880
H        -0.37613156289424   -0.52220679715682    0.97457706631088
H         0.43827655910410   -1.01140452770377   -1.82438014371425
H         3.23998604321126   -0.92605339243454    0.34104427046744
H         4.16047946297237   -2.80612267119080    1.59307674059741
H         2.84616956410496   -4.87677064532696    1.88087683364131
H        -1.02966555589332   -2.48173031832038   -1.25421592908277
H        -2.28231788537848   -4.53880738545541   -0.96766491569179
H        -1.37822423644779   -6.38694927443639    0.39760021041329
H         0.84037978847325   -6.16206041365217    1.44863195884787
H         2.12187481897788    2.81128294157745   -3.04821849242169
H         3.70547915664349    4.69195799171843   -3.20596412832788
H         6.01762520389317    4.44304566418704   -2.47901158223452
H         8.92213515493282    2.73108504198988   -1.11148134204953
H         7.69279215936098    3.99558142084651   -0.86527116247645
H         8.17770554018201    3.52471252169424   -2.52037931254153
H         5.24673021145684    0.37054860800653   -1.42911377321102
H         1.73343594191569    2.44846323813716   -0.62466845249103
H         2.38308421572212    0.89867951430535    2.92252884972182
H        -1.39783694856220    0.93185318819902    2.73695791799406
H        -4.80914152605555   -0.67188562133399    4.96787197757696
H        -5.49935478896626    0.87090113713494    4.40902590751628
H        -5.51011242175612   -0.55764542030082    3.33327494092813
H        -5.59609367681433    1.44714967295175    2.12479118815922
H        -5.14041330335016    2.88202806095924    0.20786113958400
H        -2.81755824702353    3.35148682020208   -0.49205702587057

          :  Hamiltonian                  GFN2-xTB          :
         :: total energy            -132.274107992110 Eh    ::
         :: gradient norm              0.000281877908 Eh/a0 ::
         :: HOMO-LUMO gap              2.832941843690 eV    ::
         :: SCC energy              -134.312842141631 Eh    ::
         :: -> dispersion             -0.124629212120 Eh    ::
         :: repulsion energy           2.034079142352 Eh    ::

    * Orbital Energies and Occupations

         #    Occupation            Energy/Eh            Energy/eV
      -------------------------------------------------------------
         1        2.0000           -0.7672887             -20.8790
       ...           ...                  ...                  ...
       107        2.0000           -0.4222358             -11.4896
       108        2.0000           -0.4127667             -11.2320
       109        2.0000           -0.4125133             -11.2251
       110        2.0000           -0.4056466             -11.0382
       111        2.0000           -0.4056012             -11.0370
       112        2.0000           -0.4026853             -10.9576
       113        2.0000           -0.3976481             -10.8206
       114        2.0000           -0.3953822             -10.7589
       115        2.0000           -0.3897629             -10.6060
       116        2.0000           -0.3884124             -10.5692
       117        2.0000           -0.3852501             -10.4832
       118        2.0000           -0.3819347             -10.3930
       119        2.0000           -0.3784006             -10.2968 (HOMO)
       120                         -0.2742919              -7.4639 (LUMO)
       121                         -0.2650426              -7.2122
       122                         -0.2573922              -7.0040
       123                         -0.2433850              -6.6228
       124                         -0.2398147              -6.5257
       125                         -0.2333842              -6.3507
       126                         -0.2299926              -6.2584
       127                         -0.2251849              -6.1276
       128                         -0.2169128              -5.9025
       129                         -0.2072990              -5.6409
       130                         -0.2043048              -5.5594
       ...                                ...                  ...
       224                          0.6879230              18.7193
      -------------------------------------------------------------
                  HL-Gap            0.1041087 Eh            2.8329 eV

     #   Z          covCN         q      C6AA      Î±(0)
     1   6 C        2.921    -0.035    28.861     8.810
     2   6 C        2.915    -0.031    28.765     8.795
     3   6 C        2.917    -0.027    28.665     8.780
     4   6 C        2.917    -0.031    28.774     8.796
     5   6 C        2.983     0.008    27.828     8.653
     6   6 C        2.989     0.014    27.683     8.631
     7   6 C        2.921    -0.035    28.877     8.812
     8   6 C        2.914    -0.029    28.729     8.789
     9   6 C        2.924    -0.034    28.839     8.807
    10   6 C        2.968    -0.006    28.179     8.707
    11   6 C        3.818     0.036    19.952     6.357
    12   6 C        3.825     0.043    19.828     6.336
    13   6 C        2.966    -0.001    28.060     8.689
    14   6 C        2.920    -0.031    28.773     8.796
    15   6 C        2.914    -0.029    28.731     8.790
    16   6 C        2.919    -0.036    28.902     8.816
    17   6 C        2.988     0.015    27.663     8.628
    18   6 C        2.986     0.007    27.846     8.656
    19   6 C        2.917    -0.036    28.893     8.815
    20   6 C        2.917    -0.028    28.697     8.784
    21   6 C        2.915    -0.029    28.721     8.788
    22   6 C        2.921    -0.034    28.849     8.808
    23   7 N        2.766    -0.116    23.521     7.203
    24   6 C        2.763     0.274    22.373     7.746
    25   6 C        2.977    -0.015    28.383     8.739
    26   6 C        2.920    -0.043    29.069     8.841
    27   6 C        2.921    -0.028    28.695     8.784
    28   6 C        2.918    -0.064    29.600     8.922
    29   6 C        2.867     0.152    24.696     8.146
    30   8 O        1.706    -0.260    18.302     5.776
    31   6 C        3.645     0.036    20.306     6.477
    32   6 C        2.926    -0.041    29.029     8.836
    33   8 O        0.859    -0.416    22.010     6.290
    34   6 C        3.767     0.091    19.112     6.231
    35   6 C        2.687     0.356    20.964     7.493
    36   8 O        1.659    -0.358    20.047     6.044
    37   8 O        0.856    -0.385    21.392     6.201
    38   7 N        2.768    -0.108    23.363     7.179
    39   6 C        2.765     0.272    22.401     7.751
    40   6 C        2.977    -0.011    28.286     8.724
    41   6 C        2.924    -0.054    29.345     8.884
    42   6 C        2.867     0.147    24.810     8.165
    43   8 O        1.706    -0.267    18.425     5.795
    44   6 C        3.645     0.036    20.297     6.475
    45   6 C        2.918    -0.066    29.631     8.926
    46   6 C        2.921    -0.028    28.710     8.787
    47   6 C        2.922    -0.035    28.865     8.810
    48   8 O        0.859    -0.432    22.327     6.335
    49   1 H        0.926     0.036     2.505     2.475
    50   1 H        0.926     0.031     2.565     2.505
    51   1 H        0.926     0.036     2.506     2.476
    52   1 H        0.926     0.032     2.558     2.501
    53   1 H        0.926     0.039     2.463     2.454
    54   1 H        0.926     0.040     2.449     2.447
    55   1 H        0.926     0.036     2.509     2.477
    56   1 H        0.924     0.056     2.241     2.341
    57   1 H        0.924     0.076     2.023     2.224
    58   1 H        0.926     0.031     2.579     2.511
    59   1 H        0.926     0.037     2.490     2.468
    60   1 H        0.926     0.037     2.493     2.469
    61   1 H        0.926     0.029     2.594     2.519
    62   1 H        0.926     0.030     2.579     2.512
    63   1 H        0.926     0.033     2.541     2.493
    64   1 H        0.926     0.035     2.513     2.479
    65   1 H        0.926     0.032     2.562     2.503
    66   1 H        0.926     0.041     2.430     2.438
    67   1 H        0.926     0.040     2.442     2.444
    68   1 H        0.925     0.064     2.156     2.296
    69   1 H        0.924     0.043     2.404     2.425
    70   1 H        0.924     0.041     2.436     2.441
    71   1 H        0.926     0.057     2.235     2.338
    72   1 H        0.923     0.095     1.835     2.119
    73   1 H        0.804     0.341     0.609     1.225
    74   1 H        0.926     0.050     2.323     2.383
    75   1 H        0.925     0.064     2.155     2.296
    76   1 H        0.924     0.043     2.412     2.429
    77   1 H        0.924     0.042     2.428     2.437
    78   1 H        0.926     0.039     2.460     2.453
    79   1 H        0.926     0.041     2.433     2.439
    80   1 H        0.926     0.044     2.399     2.422

Wiberg/Mayer (AO) data.
largest (>0.10) Wiberg bond orders for each atom

     #   Z sym  total        # sym  WBO       # sym  WBO       # sym  WBO
 ---------------------------------------------------------------------------
     1   6 C    3.991 --     2 C    1.558     6 C    1.277    49 H    0.968
                             4 C    0.119
     2   6 C    3.992 --     1 C    1.558     3 C    1.320    50 H    0.971
     3   6 C    3.990 --     4 C    1.555     2 C    1.320    51 H    0.971
     4   6 C    3.992 --     3 C    1.555     5 C    1.281    52 H    0.960
                             1 C    0.119
     5   6 C    3.988 --     4 C    1.281     6 C    1.253    10 C    1.252
     6   6 C    3.990 --     7 C    1.281     1 C    1.277     5 C    1.253
     7   6 C    3.989 --     8 C    1.548     6 C    1.281    53 H    0.968
                            10 C    0.115
     8   6 C    3.992 --     7 C    1.548     9 C    1.332    54 H    0.970
     9   6 C    3.990 --    10 C    1.517     8 C    1.332    55 H    0.968
    10   6 C    3.984 --     9 C    1.517     5 C    1.252    11 C    0.991
                             7 C    0.115
    11   6 C    3.965 --    10 C    0.991    38 N    0.961    56 H    0.947
                            12 C    0.947
    12   6 C    3.961 --    13 C    0.986    23 N    0.967    11 C    0.947
                            57 H    0.945
    13   6 C    3.984 --    14 C    1.533    18 C    1.247    12 C    0.986
                            16 C    0.114
    14   6 C    3.990 --    13 C    1.533    15 C    1.319    58 H    0.964
    15   6 C    3.992 --    16 C    1.559    14 C    1.319    59 H    0.970
    16   6 C    3.990 --    15 C    1.559    17 C    1.276    60 H    0.968
                            13 C    0.114
    17   6 C    3.990 --    22 C    1.281    16 C    1.276    18 C    1.255
    18   6 C    3.989 --    19 C    1.286    17 C    1.255    13 C    1.247
    19   6 C    3.992 --    20 C    1.551    18 C    1.286    61 H    0.962
                            22 C    0.118
    20   6 C    3.992 --    19 C    1.551    21 C    1.325    62 H    0.971
    21   6 C    3.992 --    22 C    1.555    20 C    1.325    63 H    0.971
    22   6 C    3.991 --    21 C    1.555    17 C    1.281    64 H    0.968
                            19 C    0.118
    23   7 N    3.464 --    24 C    1.193    34 C    0.985    12 C    0.967
                            33 O    0.188
    24   6 C    3.942 --    33 O    1.702    23 N    1.193    25 C    0.961
    25   6 C    3.987 --    32 C    1.442    26 C    1.379    24 C    0.961
    26   6 C    3.989 --    27 C    1.449    25 C    1.379    65 H    0.969
    27   6 C    3.991 --    26 C    1.449    28 C    1.435    66 H    0.970
                            32 C    0.108
    28   6 C    3.988 --    27 C    1.435    29 C    1.374    67 H    0.966
    29   6 C    3.938 --    28 C    1.374    32 C    1.344    30 O    1.073
    30   8 O    2.244 --    29 C    1.073    31 C    0.984
    31   6 C    3.945 --    30 O    0.984    68 H    0.980    69 H    0.977
                            70 H    0.976
    32   6 C    3.988 --    25 C    1.442    29 C    1.344    71 H    0.966
                            27 C    0.108
    33   8 O    2.023 --    24 C    1.702    23 N    0.188
    34   6 C    3.967 --    38 N    0.989    23 N    0.985    72 H    0.932
                            35 C    0.907
    35   6 C    3.917 --    37 O    1.783    36 O    1.156    34 C    0.907
    36   8 O    2.222 --    35 C    1.156    73 H    0.857    37 O    0.183
    37   8 O    2.064 --    35 C    1.783    36 O    0.183
    38   7 N    3.470 --    39 C    1.211    34 C    0.989    11 C    0.961
                            48 O    0.190
    39   6 C    3.945 --    48 O    1.682    38 N    1.211    40 C    0.966
    40   6 C    3.987 --    41 C    1.432    47 C    1.381    39 C    0.966
                            45 C    0.100
    41   6 C    3.987 --    40 C    1.432    42 C    1.349    74 H    0.966
                            46 C    0.107
    42   6 C    3.938 --    45 C    1.374    41 C    1.349    43 O    1.066
    43   8 O    2.235 --    42 C    1.066    44 C    0.984
    44   6 C    3.944 --    43 O    0.984    75 H    0.980    76 H    0.977
                            77 H    0.975
    45   6 C    3.988 --    46 C    1.432    42 C    1.374    78 H    0.966
                            40 C    0.100
    46   6 C    3.991 --    47 C    1.452    45 C    1.432    79 H    0.970
                            41 C    0.107
    47   6 C    3.989 --    46 C    1.452    40 C    1.381    80 H    0.969
    48   8 O    2.008 --    39 C    1.682    38 N    0.190
    49   1 H    0.998 --     1 C    0.968
    50   1 H    0.998 --     2 C    0.971
    51   1 H    0.998 --     3 C    0.971
    52   1 H    0.998 --     4 C    0.960
    53   1 H    0.997 --     7 C    0.968
    54   1 H    0.997 --     8 C    0.970
    55   1 H    0.998 --     9 C    0.968
    56   1 H    0.996 --    11 C    0.947
    57   1 H    0.994 --    12 C    0.945
    58   1 H    0.999 --    14 C    0.964
    59   1 H    0.998 --    15 C    0.970
    60   1 H    0.998 --    16 C    0.968
    61   1 H    0.999 --    19 C    0.962
    62   1 H    0.999 --    20 C    0.971
    63   1 H    0.998 --    21 C    0.971
    64   1 H    0.998 --    22 C    0.968
    65   1 H    0.999 --    26 C    0.969
    66   1 H    0.998 --    27 C    0.970
    67   1 H    0.998 --    28 C    0.966
    68   1 H    0.995 --    31 C    0.980
    69   1 H    0.998 --    31 C    0.977
    70   1 H    0.998 --    31 C    0.976
    71   1 H    0.997 --    32 C    0.966
    72   1 H    0.990 --    34 C    0.932
    73   1 H    0.883 --    36 O    0.857
    74   1 H    0.998 --    41 C    0.966
    75   1 H    0.995 --    44 C    0.980
    76   1 H    0.998 --    44 C    0.977
    77   1 H    0.998 --    44 C    0.975
    78   1 H    0.998 --    45 C    0.966
    79   1 H    0.998 --    46 C    0.970
    80   1 H    0.998 --    47 C    0.969
 ---------------------------------------------------------------------------

molecular dipole:
                 x           y           z       tot (Debye)
 q only:       -1.607      -0.775       1.095
   full:       -1.694      -0.530       1.267       5.544

           -------------------------------------------------
          | TOTAL ENERGY             -132.274107992110 Eh   |
          | GRADIENT NORM               0.000281877908 Eh/Î± |
          | HOMO-LUMO GAP               2.832941843690 eV   |
           -------------------------------------------------

 * finished run on 2022/03/17 at 00:38:21.591
