   * xtb version 6.3.3 (4ae9cef) compiled by 'conda@95abc7406d43' on 2020-10-14
          program call               : xtb acid_437.xyz --opt --chrg 0 --uhf 0 --gfn 2
          number of atoms            :                    64
          number of electrons        :                   250
          charge                     :                     0
          spin                       :                   0.0

   ID    Z sym.   atoms
    1    6 C      1, 2, 6-15, 19-22, 24-28, 34, 35, 39-43
    2    9 F      3-5, 16-18
    3    7 N      23, 29, 38, 44
    4    8 O      30-33, 36, 37, 45-48
    5    1 H      49-64

          :  Hamiltonian                  GFN2-xTB          :
 * total energy  :  -148.7065441 Eh     change       -0.3731458E-08 Eh
 * total energy  :  -148.7247513 Eh     change       -0.1820720E-01 Eh
 * total energy  :  -148.7298981 Eh     change       -0.5146850E-02 Eh
 * total energy  :  -148.7312930 Eh     change       -0.1394814E-02 Eh
 * total energy  :  -148.7322535 Eh     change       -0.9605895E-03 Eh
 * total energy  :  -148.7327398 Eh     change       -0.4862038E-03 Eh
 * total energy  :  -148.7331082 Eh     change       -0.3684659E-03 Eh
 * total energy  :  -148.7333592 Eh     change       -0.2510308E-03 Eh
 * total energy  :  -148.7335334 Eh     change       -0.1741034E-03 Eh
 * total energy  :  -148.7336449 Eh     change       -0.1115456E-03 Eh
 * total energy  :  -148.7340993 Eh     change       -0.6266585E-04 Eh
 * total energy  :  -148.7341563 Eh     change       -0.5699542E-04 Eh
 * total energy  :  -148.7341919 Eh     change       -0.3560710E-04 Eh
 * total energy  :  -148.7342104 Eh     change       -0.1844870E-04 Eh
 * total energy  :  -148.7342132 Eh     change       -0.2869063E-05 Eh
 * total energy  :  -148.7342314 Eh     change       -0.1812784E-04 Eh
 * total energy  :  -148.7342369 Eh     change       -0.5518245E-05 Eh
 * total energy  :  -148.7342400 Eh     change       -0.3142736E-05 Eh
 * total energy  :  -148.7342449 Eh     change       -0.4869473E-05 Eh
   *** GEOMETRY OPTIMIZATION CONVERGED AFTER 25 ITERATIONS ***

 final structure:
================
64
 xtb: 6.3.3 (4ae9cef)
C         0.96385422015868   -3.68039796691536    1.28270645475145
C         1.26781720790571   -4.27966644737378   -0.06363572148003
F         1.54623364399987   -5.58674834374531   -0.00229148764972
F         2.30686077810262   -3.70611976423862   -0.69032592295025
F         0.22302488742517   -4.17397581624231   -0.92172894287313
C         1.05926145356158   -4.49544229030624    2.40453803705832
C         0.78802939754357   -3.98716438782872    3.66111840726528
C         0.41524709410755   -2.66179665329933    3.79979803027453
C         0.31582313386634   -1.84905013613372    2.68563206608205
C         0.59483254492514   -2.34006059531180    1.41518326155141
C         0.46529146696362   -1.41472023903940    0.22926178844638
C        -0.99723772860894   -1.01412457844904   -0.03626230466058
C        -1.66332953469155   -1.84398704675877   -1.10577417439462
C        -1.47085853534276   -1.69491441444419   -2.48232599909537
C        -0.61452708988328   -0.62501907079760   -3.10334652763746
F        -0.26026798817984   -0.91506750480561   -4.36100453643126
F         0.54714161329381   -0.37749230996038   -2.46316916201365
F        -1.23629269754580    0.57373699578942   -3.17246257701129
C        -2.13578052435880   -2.53358085190780   -3.37325101426504
C        -2.96945860906089   -3.53419685950811   -2.91559595209579
C        -3.15265354560571   -3.69947570673555   -1.55487762033497
C        -2.50816069921842   -2.85886119945227   -0.66923811708382
N        -0.92949723070772    0.40620769542446   -0.35006452923353
C        -2.10656840220232    1.06546063199937   -0.56002708193877
C        -1.99576337605343    2.54023591043881   -0.75168944611429
C        -1.18844339342426    3.31024293329592   -1.56217184270506
C        -1.61269991807929    4.63851098653559   -1.39416191564987
C        -2.64898987267889    4.57469612222186   -0.49243989157360
N        -3.44420494497802    5.61807513328104    0.05605868842894
O        -3.19100841954794    6.74008952864089   -0.33143315944436
O        -4.30106100015468    5.31868344367394    0.85316327966365
O        -2.88326888869382    3.31038817482413   -0.11589169222432
O        -3.16179316661394    0.48249287682496   -0.62969751423713
C         0.31138260182178    1.00020231959528    0.10007621137568
C         0.00208094504435    1.85505692362438    1.37440185360937
O         0.13129720394596    3.16387370635611    1.29500924980593
O        -0.38316798993339    1.31067074760321    2.36866830414873
N         1.13807045258067   -0.13479125070626    0.44661633634492
C         2.43435832952693   -0.14970687202240    0.84737779255789
C         3.14469994100430    1.14907530138038    0.90727588504410
C         4.43106027520793    1.40367769068951    1.33923587095930
C         4.65830098048128    2.77546608830541    1.14001298183586
C         3.49036657014270    3.26171688288446    0.59725458387100
N         3.06515159763262    4.53349420360121    0.15691876179686
O         1.91096989787516    4.59115107333307   -0.25154288653078
O         3.84366910422132    5.45208706576440    0.20278056960830
O         2.58192646938621    2.27747541737091    0.45813812635205
O         3.01652257550773   -1.17440836290569    1.13568111692654
H         1.35086173234120   -5.52768675062252    2.29011361937787
H         0.87094342046960   -4.62598775816489    4.52629921493204
H         0.20161482451277   -2.25526124666946    4.77616514223218
H         0.02960626221428   -0.81488894077804    2.80401271782801
H         0.90964852488717   -1.87079740179954   -0.65958878087460
H        -1.58248381073026   -1.13441856001560    0.88635021661322
H        -1.99219168918259   -2.40037791495787   -4.43418770613429
H        -3.47286820479292   -4.17613139875907   -3.62083060688127
H        -3.80169033434603   -4.47630806631768   -1.18221762074906
H        -2.66245617462310   -2.98470006358496    0.39151054253775
H        -0.42142538866650    2.96723820909757   -2.22460899299063
H        -1.22147843175760    5.52140289863721   -1.85515803073482
H         0.76084990411169    1.59791170387936   -0.70456626031224
H         0.58352069834199    3.54183424798724    0.50703409258925
H         5.10671046319242    0.67701601678080    1.74079264721265
H         5.54260137335752    3.33916084071747    1.35638416722619

          :  Hamiltonian                  GFN2-xTB          :
         :: total energy            -148.734244894249 Eh    ::
         :: gradient norm              0.000599050505 Eh/a0 ::
         :: HOMO-LUMO gap              1.507551668264 eV    ::
         :: SCC energy              -150.188760733866 Eh    ::
         :: -> dispersion             -0.096452570053 Eh    ::
         :: repulsion energy           1.451651582274 Eh    ::

    * Orbital Energies and Occupations

         #    Occupation            Energy/Eh            Energy/eV
      -------------------------------------------------------------
         1        2.0000           -0.8986901             -24.4546
       ...           ...                  ...                  ...
       113        2.0000           -0.4667916             -12.7020
       114        2.0000           -0.4627690             -12.5926
       115        2.0000           -0.4616952             -12.5634
       116        2.0000           -0.4607300             -12.5371
       117        2.0000           -0.4564846             -12.4216
       118        2.0000           -0.4528458             -12.3226
       119        2.0000           -0.4517370             -12.2924
       120        2.0000           -0.4501740             -12.2499
       121        2.0000           -0.4496457             -12.2355
       122        2.0000           -0.4468746             -12.1601
       123        2.0000           -0.4408272             -11.9955
       124        2.0000           -0.4354225             -11.8484
       125        2.0000           -0.4292636             -11.6809 (HOMO)
       126                         -0.3738621             -10.1733 (LUMO)
       127                         -0.3350847              -9.1181
       128                         -0.3082799              -8.3887
       129                         -0.2889436              -7.8626
       130                         -0.2821718              -7.6783
       131                         -0.2794533              -7.6043
       132                         -0.2752594              -7.4902
       133                         -0.2685467              -7.3075
       134                         -0.2642260              -7.1900
       135                         -0.2453822              -6.6772
       136                         -0.2263626              -6.1596
       ...                                ...                  ...
       208                          0.6356807              17.2978
      -------------------------------------------------------------
                  HL-Gap            0.0554015 Eh            1.5076 eV

     #   Z          covCN         q      C6AA      Î±(0)
     1   6 C        2.975    -0.026    28.648     8.780
     2   6 C        3.335     0.484    17.317     6.592
     3   9 F        0.792    -0.198    11.215     3.956
     4   9 F        0.791    -0.201    11.246     3.961
     5   9 F        0.791    -0.226    11.509     4.007
     6   6 C        2.923    -0.021    28.534     8.760
     7   6 C        2.919    -0.022    28.546     8.761
     8   6 C        2.919    -0.017    28.425     8.743
     9   6 C        2.925    -0.033    28.825     8.805
    10   6 C        2.971     0.020    27.548     8.609
    11   6 C        3.823     0.043    19.834     6.338
    12   6 C        3.831     0.046    19.777     6.327
    13   6 C        2.967     0.023    27.495     8.601
    14   6 C        2.974    -0.026    28.652     8.780
    15   6 C        3.337     0.487    17.262     6.578
    16   9 F        0.793    -0.198    11.212     3.955
    17   9 F        0.792    -0.220    11.446     3.996
    18   9 F        0.791    -0.219    11.432     3.994
    19   6 C        2.927    -0.019    28.479     8.752
    20   6 C        2.920    -0.018    28.457     8.748
    21   6 C        2.919    -0.012    28.316     8.726
    22   6 C        2.930    -0.021    28.526     8.759
    23   7 N        2.762    -0.114    23.493     7.199
    24   6 C        2.761     0.273    22.379     7.747
    25   6 C        3.134     0.097    25.651     8.290
    26   6 C        3.030    -0.061    29.490     8.907
    27   6 C        3.008    -0.041    28.995     8.833
    28   6 C        3.097     0.116    25.328     8.248
    29   7 N        2.755     0.546    13.522     5.461
    30   8 O        0.933    -0.378    21.205     6.176
    31   8 O        0.931    -0.353    20.725     6.105
    32   8 O        1.729    -0.118    16.086     5.415
    33   8 O        0.859    -0.373    21.150     6.166
    34   6 C        3.743     0.067    19.535     6.305
    35   6 C        2.686     0.350    21.064     7.511
    36   8 O        1.657    -0.359    20.075     6.048
    37   8 O        0.857    -0.352    20.744     6.106
    38   7 N        2.761    -0.084    22.870     7.103
    39   6 C        2.760     0.264    22.545     7.776
    40   6 C        3.113     0.109    25.450     8.264
    41   6 C        3.028    -0.036    28.863     8.812
    42   6 C        3.001    -0.031    28.768     8.798
    43   6 C        3.080     0.113    25.426     8.267
    44   7 N        2.756     0.544    13.544     5.466
    45   8 O        0.934    -0.406    21.757     6.256
    46   8 O        0.931    -0.343    20.536     6.078
    47   8 O        1.728    -0.170    16.859     5.544
    48   8 O        0.860    -0.394    21.557     6.225
    49   1 H        0.926     0.070     2.086     2.259
    50   1 H        0.926     0.061     2.192     2.315
    51   1 H        0.926     0.062     2.171     2.304
    52   1 H        0.926     0.080     1.983     2.202
    53   1 H        0.924     0.081     1.968     2.194
    54   1 H        0.923     0.078     2.002     2.213
    55   1 H        0.926     0.071     2.072     2.251
    56   1 H        0.926     0.065     2.145     2.290
    57   1 H        0.926     0.065     2.144     2.290
    58   1 H        0.926     0.057     2.236     2.339
    59   1 H        0.927     0.075     2.030     2.228
    60   1 H        0.927     0.100     1.781     2.087
    61   1 H        0.923     0.076     2.023     2.224
    62   1 H        0.802     0.361     0.564     1.180
    63   1 H        0.926     0.103     1.762     2.076
    64   1 H        0.926     0.103     1.762     2.076

Wiberg/Mayer (AO) data.
largest (>0.10) Wiberg bond orders for each atom

     #   Z sym  total        # sym  WBO       # sym  WBO       # sym  WBO
 ---------------------------------------------------------------------------
     1   6 C    3.970 --     6 C    1.414    10 C    1.384     2 C    0.950
                             8 C    0.106
     2   6 C    3.821 --     3 F    0.958     1 C    0.950     4 F    0.949
                             5 F    0.925
     3   9 F    1.081 --     2 C    0.958
     4   9 F    1.080 --     2 C    0.949
     5   9 F    1.052 --     2 C    0.925
     6   6 C    3.987 --     7 C    1.441     1 C    1.414    49 H    0.965
                             9 C    0.109
     7   6 C    3.988 --     6 C    1.441     8 C    1.436    50 H    0.968
                            10 C    0.108
     8   6 C    3.989 --     9 C    1.444     7 C    1.436    51 H    0.968
                             1 C    0.106
     9   6 C    3.985 --     8 C    1.444    10 C    1.412    52 H    0.956
                             6 C    0.109
    10   6 C    3.984 --     9 C    1.412     1 C    1.384    11 C    0.990
                             7 C    0.108
    11   6 C    3.958 --    10 C    0.990    12 C    0.956    38 N    0.952
                            53 H    0.948
    12   6 C    3.961 --    13 C    0.992    23 N    0.956    11 C    0.956
                            54 H    0.946
    13   6 C    3.986 --    22 C    1.409    14 C    1.386    12 C    0.992
                            20 C    0.108
    14   6 C    3.968 --    19 C    1.408    13 C    1.386    15 C    0.953
                            21 C    0.106
    15   6 C    3.817 --    16 F    0.959    14 C    0.953    17 F    0.934
                            18 F    0.931
    16   9 F    1.081 --    15 C    0.959
    17   9 F    1.060 --    15 C    0.934
    18   9 F    1.062 --    15 C    0.931
    19   6 C    3.987 --    20 C    1.446    14 C    1.408    55 H    0.965
                            22 C    0.108
    20   6 C    3.988 --    19 C    1.446    21 C    1.432    56 H    0.968
                            13 C    0.108
    21   6 C    3.988 --    22 C    1.448    20 C    1.432    57 H    0.968
                            14 C    0.106
    22   6 C    3.988 --    21 C    1.448    13 C    1.409    58 H    0.966
                            19 C    0.108
    23   7 N    3.447 --    24 C    1.188    34 C    0.979    12 C    0.956
                            33 O    0.195
    24   6 C    3.959 --    33 O    1.716    23 N    1.188    25 C    0.970
    25   6 C    3.909 --    26 C    1.495    32 O    1.159    24 C    0.970
                            28 C    0.122
    26   6 C    3.980 --    25 C    1.495    27 C    1.354    59 H    0.968
    27   6 C    3.980 --    28 C    1.477    26 C    1.354    60 H    0.965
    28   6 C    3.897 --    27 C    1.477    32 O    1.129    29 N    0.995
                            25 C    0.122
    29   7 N    3.922 --    31 O    1.452    30 O    1.426    28 C    0.995
    30   8 O    1.921 --    29 N    1.426    31 O    0.368
    31   8 O    1.954 --    29 N    1.452    30 O    0.368
    32   8 O    2.507 --    25 C    1.159    28 C    1.129
    33   8 O    2.064 --    24 C    1.716    23 N    0.195
    34   6 C    3.959 --    38 N    0.990    23 N    0.979    61 H    0.940
                            35 C    0.884
    35   6 C    3.928 --    37 O    1.784    36 O    1.191    34 C    0.884
    36   8 O    2.245 --    35 C    1.191    62 H    0.798    37 O    0.179
    37   8 O    2.092 --    35 C    1.784    36 O    0.179
    38   7 N    3.497 --    39 C    1.219    34 C    0.990    11 C    0.952
                            48 O    0.209
    39   6 C    3.965 --    48 O    1.663    38 N    1.219    40 C    1.000
    40   6 C    3.906 --    41 C    1.488    47 O    1.130    39 C    1.000
                            43 C    0.117
    41   6 C    3.979 --    40 C    1.488    42 C    1.364    63 H    0.966
    42   6 C    3.978 --    43 C    1.462    41 C    1.364    64 H    0.965
    43   6 C    3.889 --    42 C    1.462    47 O    1.099    44 N    1.019
                            40 C    0.117
    44   7 N    3.919 --    46 O    1.463    45 O    1.378    43 C    1.019
    45   8 O    1.913 --    44 N    1.378    46 O    0.343
    46   8 O    1.958 --    44 N    1.463    45 O    0.343
    47   8 O    2.458 --    40 C    1.130    43 C    1.099
    48   8 O    2.031 --    39 C    1.663    38 N    0.209
    49   1 H    0.995 --     6 C    0.965
    50   1 H    0.995 --     7 C    0.968
    51   1 H    0.995 --     8 C    0.968
    52   1 H    0.993 --     9 C    0.956
    53   1 H    0.992 --    11 C    0.948
    54   1 H    0.993 --    12 C    0.946
    55   1 H    0.995 --    19 C    0.965
    56   1 H    0.995 --    20 C    0.968
    57   1 H    0.995 --    21 C    0.968
    58   1 H    0.996 --    22 C    0.966
    59   1 H    0.994 --    26 C    0.968
    60   1 H    0.989 --    27 C    0.965
    61   1 H    0.994 --    34 C    0.940
    62   1 H    0.870 --    36 O    0.798
    63   1 H    0.989 --    41 C    0.966
    64   1 H    0.989 --    42 C    0.965
 ---------------------------------------------------------------------------

molecular dipole:
                 x           y           z       tot (Debye)
 q only:        1.711      -2.757       0.642
   full:        2.069      -2.366       0.251       8.014

           -------------------------------------------------
          | TOTAL ENERGY             -148.734244894249 Eh   |
          | GRADIENT NORM               0.000599050505 Eh/Î± |
          | HOMO-LUMO GAP               1.507551668264 eV   |
           -------------------------------------------------

 * finished run on 2022/03/17 at 01:11:43.677
