   * xtb version 6.3.3 (4ae9cef) compiled by 'conda@95abc7406d43' on 2020-10-14
          program call               : xtb acid_287.xyz --opt --chrg 0 --uhf 0 --gfn 2
          number of atoms            :                    78
          number of electrons        :                   262
          charge                     :                     0
          spin                       :                   0.0

   ID    Z sym.   atoms
    1    6 C      1, 2, 6-15, 19-22, 24-34, 36, 37, 41-51
    2    9 F      3-5, 16-18
    3    7 N      23, 40
    4    8 O      35, 38, 39, 52
    5    1 H      53-78

          :  Hamiltonian                  GFN2-xTB          :
 * total energy  :  -149.4626419 Eh     change       -0.7015075E-08 Eh
 * total energy  :  -149.4819439 Eh     change       -0.1930195E-01 Eh
 * total energy  :  -149.4874695 Eh     change       -0.5525602E-02 Eh
 * total energy  :  -149.4890810 Eh     change       -0.1611463E-02 Eh
 * total energy  :  -149.4902687 Eh     change       -0.1187734E-02 Eh
 * total energy  :  -149.4909676 Eh     change       -0.6989248E-03 Eh
 * total energy  :  -149.4915247 Eh     change       -0.5571096E-03 Eh
 * total energy  :  -149.4920664 Eh     change       -0.5416508E-03 Eh
 * total energy  :  -149.4925709 Eh     change       -0.5045586E-03 Eh
 * total energy  :  -149.4929884 Eh     change       -0.4175047E-03 Eh
 * total energy  :  -149.4947349 Eh     change       -0.1609625E-04 Eh
 * total energy  :  -149.4947523 Eh     change       -0.1742518E-04 Eh
 * total energy  :  -149.4947687 Eh     change       -0.1644426E-04 Eh
 * total energy  :  -149.4947826 Eh     change       -0.1382913E-04 Eh
 * total energy  :  -149.4947927 Eh     change       -0.1017895E-04 Eh
 * total energy  :  -149.4948024 Eh     change       -0.9618424E-05 Eh
 * total energy  :  -149.4948118 Eh     change       -0.9437110E-05 Eh
 * total energy  :  -149.4948216 Eh     change       -0.9799065E-05 Eh
 * total energy  :  -149.4948259 Eh     change       -0.4339218E-05 Eh
   *** GEOMETRY OPTIMIZATION CONVERGED AFTER 44 ITERATIONS ***

 final structure:
================
78
 xtb: 6.3.3 (4ae9cef)
C        -2.52465019862323   -3.97848818151979   -0.71604143452445
C        -2.28003228221158   -4.61564779532410    0.62375920418995
F        -0.98450973378704   -4.96577426216373    0.79685319940092
F        -2.98265759837443   -5.74136676419937    0.80352279686782
F        -2.58309258231237   -3.82394314947830    1.66563489025668
C        -3.41453713973761   -4.59127727536243   -1.58951563299352
C        -3.65123385629536   -4.04998905393505   -2.83820902752680
C        -2.99263404808935   -2.89528978087577   -3.22178596476219
C        -2.10483878901844   -2.28922176674019   -2.35529805546419
C        -1.86036326466070   -2.81111166728623   -1.09029054355502
C        -0.86786647240659   -2.10649855279919   -0.20273088334257
C         0.57955102436255   -2.23177695493820   -0.72514760025671
C         1.35887768566065   -3.29445107021380    0.00731803228453
C         1.74962896643282   -4.49299778930343   -0.58979633932567
C         1.39664533565889   -4.80253570609300   -2.01695005956717
F         1.82366990213740   -6.00565106141577   -2.41753849054316
F         1.89338758703048   -3.92327033473476   -2.90669306075675
F         0.05800209677547   -4.80496023797582   -2.22834595457445
C         2.45454060357666   -5.44316253125806    0.13893770932501
C         2.77470029842749   -5.20863103594734    1.46212677899182
C         2.38236922315838   -4.02641316559318    2.06461710664385
C         1.67773855171527   -3.08183021155600    1.34376972550771
N         1.13783317978365   -0.90360220907414   -0.49193504576889
C         2.47883096102435   -0.66009023223898   -0.53148251749801
C         2.83513013317248    0.74812194444831   -0.16839896186309
C         3.47554074780569    0.97196404570005    1.06640506952916
C         3.79241225594309    2.24207052149230    1.45433474029253
C         3.49299547441616    3.34814892161075    0.63147454120592
C         3.79416267829861    4.67201453952871    1.01299203640931
C         3.49580743932730    5.72139296355154    0.18976954393914
C         2.88326554361168    5.49722526113750   -1.05364540678207
C         2.58076525977008    4.22658000992068   -1.45476572672866
C         2.87662270041892    3.12208099726090   -0.62782259681634
C         2.56435221954177    1.80013065647070   -1.00625718115291
O         3.28738353754347   -1.51356483352023   -0.81139171523716
C         0.13163892370536    0.07814100817779   -0.17261057703480
C         0.37641134765411    0.66457332695914    1.24793047078271
O         0.35821482992664    1.99244462251625    1.35927614606689
O         0.54748377989499   -0.04633528428436    2.19304155256942
N        -1.10444698911494   -0.66559972124290   -0.20965525921738
C        -2.34458799237848   -0.16253224463231    0.07212837455033
C        -2.39359286413467    1.32721953711302    0.17600863355467
C        -2.78260253820619    1.90189079661558    1.35837944047143
C        -2.81330426408712    3.30348202215744    1.50471779190825
C        -3.19714919650918    3.91908332414996    2.71384228223122
C        -3.21560784545373    5.28116537920071    2.82511547607483
C        -2.84979019335354    6.08838353639550    1.73625273558142
C        -2.47318682062110    5.52180302869614    0.55065958347927
C        -2.44796758625278    4.12022885466301    0.40178594930427
C        -2.09241370433496    3.50153234576293   -0.81662718163182
C        -2.06810383065703    2.14028552312976   -0.93119909284319
O        -3.31015444333144   -0.87731581981326    0.20914186442282
H        -3.92085608622312   -5.49438446340345   -1.28696625405682
H        -4.34568379816923   -4.53117855983186   -3.50875030231924
H        -3.16865913979853   -2.46770239892156   -4.19715430497617
H        -1.59262662790006   -1.38756704885524   -2.65754783433995
H        -0.92226245846471   -2.46689338279649    0.82962468483841
H         0.57184989440031   -2.41661235709955   -1.80461362278237
H         2.75047801215882   -6.36616234892597   -0.33451804462244
H         3.32528525270314   -5.95042101049761    2.01928312153011
H         2.62200790443256   -3.83756713143104    3.09985676240440
H         1.37495880880982   -2.16142517511509    1.82130372765028
H         3.70087872520027    0.12384626594118    1.69418321292097
H         4.27718856611061    2.41723800442654    2.40301467085810
H         4.26724608421209    4.83981741333697    1.96936070933104
H         3.73215852184758    6.73206615784518    0.48730896979445
H         2.65652956943526    6.33845988625170   -1.69171050645822
H         2.11414350308933    4.04790141642479   -2.41344846273490
H         2.11996885974297    1.62811989641759   -1.97801422941878
H         0.11785968445628    0.89141224884136   -0.91726898311085
H         0.20000489403938    2.46630691860062    0.52978491345611
H        -3.05898495356228    1.27513538612738    2.19295247539627
H        -3.47591013339751    3.29200836492600    3.54745191232008
H        -3.51246957128860    5.74783233189335    3.75241461059035
H        -2.87096757102628    7.16271125501769    1.84322974450841
H        -2.19414910383952    6.13903780488418   -0.29128611734116
H        -1.85243329356257    4.12629276946782   -1.66527975396070
H        -1.83419459623934    1.67509128335105   -1.87886746557645

          :  Hamiltonian                  GFN2-xTB          :
         :: total energy            -149.494825931177 Eh    ::
         :: gradient norm              0.000350797837 Eh/a0 ::
         :: HOMO-LUMO gap              3.096455284918 eV    ::
         :: SCC energy              -151.491606878404 Eh    ::
         :: -> dispersion             -0.118640666104 Eh    ::
         :: repulsion energy           1.992575328643 Eh    ::

    * Orbital Energies and Occupations

         #    Occupation            Energy/Eh            Energy/eV
      -------------------------------------------------------------
         1        2.0000           -0.8728742             -23.7521
       ...           ...                  ...                  ...
       119        2.0000           -0.4370848             -11.8937
       120        2.0000           -0.4362619             -11.8713
       121        2.0000           -0.4327056             -11.7745
       122        2.0000           -0.4304306             -11.7126
       123        2.0000           -0.4272678             -11.6265
       124        2.0000           -0.4260372             -11.5931
       125        2.0000           -0.4229556             -11.5092
       126        2.0000           -0.4222742             -11.4907
       127        2.0000           -0.4104394             -11.1686
       128        2.0000           -0.4078466             -11.0981
       129        2.0000           -0.4055344             -11.0352
       130        2.0000           -0.4035391             -10.9809
       131        2.0000           -0.4014714             -10.9246 (HOMO)
       132                         -0.2876787              -7.8281 (LUMO)
       133                         -0.2861790              -7.7873
       134                         -0.2751789              -7.4880
       135                         -0.2627459              -7.1497
       136                         -0.2613824              -7.1126
       137                         -0.2557508              -6.9593
       138                         -0.2542502              -6.9185
       139                         -0.2514437              -6.8421
       140                         -0.2449349              -6.6650
       141                         -0.2305917              -6.2747
       142                         -0.2272154              -6.1828
       ...                                ...                  ...
       234                          0.6753653              18.3776
      -------------------------------------------------------------
                  HL-Gap            0.1137926 Eh            3.0965 eV

     #   Z          covCN         q      C6AA      Î±(0)
     1   6 C        2.977    -0.021    28.522     8.760
     2   6 C        3.335     0.486    17.292     6.587
     3   9 F        0.791    -0.222    11.466     4.000
     4   9 F        0.792    -0.200    11.237     3.960
     5   9 F        0.791    -0.202    11.260     3.964
     6   6 C        2.923    -0.017    28.446     8.746
     7   6 C        2.921    -0.020    28.504     8.755
     8   6 C        2.919    -0.016    28.412     8.741
     9   6 C        2.928    -0.022    28.550     8.763
    10   6 C        2.972     0.026    27.408     8.587
    11   6 C        3.824     0.049    19.738     6.322
    12   6 C        3.820     0.048    19.750     6.324
    13   6 C        2.972     0.024    27.467     8.597
    14   6 C        2.976    -0.024    28.595     8.772
    15   6 C        3.336     0.485    17.301     6.588
    16   9 F        0.792    -0.200    11.231     3.959
    17   9 F        0.791    -0.207    11.308     3.972
    18   9 F        0.791    -0.226    11.504     4.007
    19   6 C        2.923    -0.019    28.480     8.752
    20   6 C        2.920    -0.020    28.510     8.756
    21   6 C        2.919    -0.015    28.377     8.736
    22   6 C        2.926    -0.026    28.652     8.778
    23   7 N        2.767    -0.119    23.582     7.212
    24   6 C        2.761     0.272    22.399     7.750
    25   6 C        2.974    -0.024    28.600     8.772
    26   6 C        2.919    -0.022    28.563     8.764
    27   6 C        2.918    -0.027    28.686     8.783
    28   6 C        2.987     0.017    27.633     8.623
    29   6 C        2.918    -0.031    28.783     8.798
    30   6 C        2.916    -0.027    28.683     8.782
    31   6 C        2.916    -0.028    28.694     8.784
    32   6 C        2.918    -0.038    28.956     8.824
    33   6 C        2.987     0.009    27.799     8.649
    34   6 C        2.920    -0.046    29.149     8.854
    35   8 O        0.859    -0.403    21.740     6.251
    36   6 C        3.749     0.080    19.313     6.268
    37   6 C        2.686     0.346    21.128     7.522
    38   8 O        1.659    -0.354    19.973     6.033
    39   8 O        0.856    -0.342    20.558     6.079
    40   7 N        2.766    -0.123    23.661     7.224
    41   6 C        2.763     0.271    22.421     7.754
    42   6 C        2.972    -0.028    28.699     8.787
    43   6 C        2.923    -0.025    28.627     8.774
    44   6 C        2.987     0.018    27.593     8.617
    45   6 C        2.918    -0.029    28.734     8.790
    46   6 C        2.916    -0.025    28.624     8.773
    47   6 C        2.916    -0.025    28.631     8.774
    48   6 C        2.918    -0.034    28.859     8.809
    49   6 C        2.987     0.012    27.739     8.639
    50   6 C        2.917    -0.042    29.038     8.837
    51   6 C        2.916    -0.044    29.081     8.843
    52   8 O        0.859    -0.403    21.737     6.251
    53   1 H        0.926     0.070     2.085     2.258
    54   1 H        0.926     0.059     2.211     2.325
    55   1 H        0.926     0.056     2.250     2.346
    56   1 H        0.926     0.045     2.388     2.416
    57   1 H        0.924     0.071     2.079     2.255
    58   1 H        0.924     0.065     2.142     2.289
    59   1 H        0.926     0.067     2.120     2.277
    60   1 H        0.926     0.057     2.232     2.336
    61   1 H        0.926     0.058     2.221     2.331
    62   1 H        0.926     0.071     2.070     2.250
    63   1 H        0.926     0.050     2.318     2.381
    64   1 H        0.926     0.049     2.331     2.388
    65   1 H        0.926     0.041     2.434     2.439
    66   1 H        0.926     0.039     2.468     2.457
    67   1 H        0.926     0.037     2.490     2.468
    68   1 H        0.926     0.032     2.555     2.500
    69   1 H        0.925     0.029     2.601     2.522
    70   1 H        0.923     0.044     2.397     2.421
    71   1 H        0.805     0.329     0.639     1.255
    72   1 H        0.926     0.054     2.270     2.356
    73   1 H        0.926     0.045     2.379     2.412
    74   1 H        0.926     0.041     2.432     2.439
    75   1 H        0.926     0.039     2.458     2.452
    76   1 H        0.926     0.037     2.495     2.470
    77   1 H        0.926     0.039     2.463     2.454
    78   1 H        0.925     0.029     2.607     2.525

Wiberg/Mayer (AO) data.
largest (>0.10) Wiberg bond orders for each atom

     #   Z sym  total        # sym  WBO       # sym  WBO       # sym  WBO
 ---------------------------------------------------------------------------
     1   6 C    3.971 --     6 C    1.413    10 C    1.387     2 C    0.952
                             8 C    0.105
     2   6 C    3.823 --     4 F    0.956     1 C    0.952     5 F    0.947
                             3 F    0.929
     3   9 F    1.057 --     2 C    0.929
     4   9 F    1.078 --     2 C    0.956
     5   9 F    1.078 --     2 C    0.947
     6   6 C    3.987 --     7 C    1.444     1 C    1.413    53 H    0.965
                             9 C    0.109
     7   6 C    3.988 --     6 C    1.444     8 C    1.432    54 H    0.969
                            10 C    0.109
     8   6 C    3.990 --     9 C    1.450     7 C    1.432    55 H    0.969
                             1 C    0.105
     9   6 C    3.990 --     8 C    1.450    10 C    1.408    56 H    0.967
                             6 C    0.109
    10   6 C    3.986 --     9 C    1.408     1 C    1.387    11 C    0.995
                             7 C    0.109
    11   6 C    3.964 --    10 C    0.995    40 N    0.954    12 C    0.952
                            57 H    0.951
    12   6 C    3.965 --    13 C    0.993    23 N    0.954    58 H    0.952
                            11 C    0.952
    13   6 C    3.986 --    22 C    1.409    14 C    1.386    12 C    0.993
                            20 C    0.108
    14   6 C    3.969 --    19 C    1.411    13 C    1.386    15 C    0.953
                            21 C    0.105
    15   6 C    3.819 --    16 F    0.958    14 C    0.953    17 F    0.943
                            18 F    0.926
    16   9 F    1.080 --    15 C    0.958
    17   9 F    1.073 --    15 C    0.943
    18   9 F    1.053 --    15 C    0.926
    19   6 C    3.987 --    20 C    1.444    14 C    1.411    59 H    0.966
                            22 C    0.109
    20   6 C    3.989 --    19 C    1.444    21 C    1.433    60 H    0.969
                            13 C    0.108
    21   6 C    3.990 --    22 C    1.448    20 C    1.433    61 H    0.969
                            14 C    0.105
    22   6 C    3.987 --    21 C    1.448    13 C    1.409    62 H    0.959
                            19 C    0.109
    23   7 N    3.448 --    24 C    1.190    36 C    0.990    12 C    0.954
                            35 O    0.191
    24   6 C    3.944 --    35 O    1.715    23 N    1.190    25 C    0.956
    25   6 C    3.986 --    34 C    1.514    26 C    1.286    24 C    0.956
    26   6 C    3.989 --    27 C    1.559    25 C    1.286    63 H    0.968
    27   6 C    3.990 --    26 C    1.559    28 C    1.279    64 H    0.966
                            34 C    0.115
    28   6 C    3.990 --    29 C    1.280    27 C    1.279    33 C    1.249
    29   6 C    3.991 --    30 C    1.558    28 C    1.280    65 H    0.968
                            32 C    0.118
    30   6 C    3.990 --    29 C    1.558    31 C    1.320    66 H    0.971
    31   6 C    3.992 --    32 C    1.559    30 C    1.320    67 H    0.971
    32   6 C    3.989 --    31 C    1.559    33 C    1.277    68 H    0.968
                            29 C    0.118
    33   6 C    3.990 --    34 C    1.282    32 C    1.277    28 C    1.249
    34   6 C    3.990 --    25 C    1.514    33 C    1.282    69 H    0.966
                            27 C    0.115
    35   8 O    2.043 --    24 C    1.715    23 N    0.191
    36   6 C    3.971 --    23 N    0.990    40 N    0.986    70 H    0.939
                            37 C    0.896
    37   6 C    3.921 --    39 O    1.801    38 O    1.147    36 C    0.896
    38   8 O    2.231 --    37 C    1.147    71 H    0.858    39 O    0.170
    39   8 O    2.097 --    37 C    1.801    38 O    0.170
    40   7 N    3.439 --    41 C    1.180    36 C    0.986    11 C    0.954
                            52 O    0.186
    41   6 C    3.943 --    52 O    1.715    40 N    1.180    42 C    0.964
    42   6 C    3.986 --    43 C    1.519    51 C    1.280    41 C    0.964
    43   6 C    3.988 --    42 C    1.519    44 C    1.281    72 H    0.965
                            50 C    0.112
    44   6 C    3.990 --    43 C    1.281    45 C    1.278    49 C    1.250
    45   6 C    3.988 --    46 C    1.557    44 C    1.278    73 H    0.967
                            48 C    0.118
    46   6 C    3.991 --    45 C    1.557    47 C    1.322    74 H    0.970
    47   6 C    3.989 --    48 C    1.555    46 C    1.322    75 H    0.971
    48   6 C    3.991 --    47 C    1.555    49 C    1.283    76 H    0.968
                            45 C    0.118
    49   6 C    3.990 --    48 C    1.283    50 C    1.274    44 C    1.250
    50   6 C    3.991 --    51 C    1.561    49 C    1.274    77 H    0.967
                            43 C    0.112
    51   6 C    3.990 --    50 C    1.561    42 C    1.280    78 H    0.967
    52   8 O    2.043 --    41 C    1.715    40 N    0.186
    53   1 H    0.995 --     6 C    0.965
    54   1 H    0.996 --     7 C    0.969
    55   1 H    0.996 --     8 C    0.969
    56   1 H    0.998 --     9 C    0.967
    57   1 H    0.995 --    11 C    0.951
    58   1 H    0.995 --    12 C    0.952
    59   1 H    0.995 --    19 C    0.966
    60   1 H    0.996 --    20 C    0.969
    61   1 H    0.996 --    21 C    0.969
    62   1 H    0.995 --    22 C    0.959
    63   1 H    0.997 --    26 C    0.968
    64   1 H    0.997 --    27 C    0.966
    65   1 H    0.998 --    29 C    0.968
    66   1 H    0.998 --    30 C    0.971
    67   1 H    0.998 --    31 C    0.971
    68   1 H    0.998 --    32 C    0.968
    69   1 H    0.999 --    34 C    0.966
    70   1 H    0.998 --    36 C    0.939
    71   1 H    0.891 --    38 O    0.858
    72   1 H    0.997 --    43 C    0.965
    73   1 H    0.997 --    45 C    0.967
    74   1 H    0.998 --    46 C    0.970
    75   1 H    0.998 --    47 C    0.971
    76   1 H    0.998 --    48 C    0.968
    77   1 H    0.997 --    50 C    0.967
    78   1 H    0.999 --    51 C    0.967
 ---------------------------------------------------------------------------

molecular dipole:
                 x           y           z       tot (Debye)
 q only:       -0.051       3.069      -0.230
   full:       -0.089       3.477      -0.555       8.952

           -------------------------------------------------
          | TOTAL ENERGY             -149.494825931177 Eh   |
          | GRADIENT NORM               0.000350797837 Eh/Î± |
          | HOMO-LUMO GAP               3.096455284918 eV   |
           -------------------------------------------------

 * finished run on 2022/03/16 at 23:24:29.004
