   * xtb version 6.3.3 (4ae9cef) compiled by 'conda@95abc7406d43' on 2020-10-14
          program call               : xtb acid_61.xyz --opt --chrg 0 --uhf 0 --gfn 2
          number of atoms            :                    70
          number of electrons        :                   258
          charge                     :                     0
          spin                       :                   0.0

   ID    Z sym.   atoms
    1    6 C      1, 2, 6-15, 19-22, 24-26, 30-33, 35, 36, 40-46
    2    9 F      3-5, 16-18
    3    7 N      23, 27, 39, 47
    4    8 O      28, 29, 34, 37, 38, 48-50
    5    1 H      51-70

          :  Hamiltonian                  GFN2-xTB          :
 * total energy  :  -151.1780019 Eh     change       -0.2170424E-08 Eh
 * total energy  :  -151.2003809 Eh     change       -0.2237900E-01 Eh
 * total energy  :  -151.2072058 Eh     change       -0.6824856E-02 Eh
 * total energy  :  -151.2102396 Eh     change       -0.3033862E-02 Eh
 * total energy  :  -151.2125655 Eh     change       -0.2325832E-02 Eh
 * total energy  :  -151.2141912 Eh     change       -0.1625704E-02 Eh
 * total energy  :  -151.2154862 Eh     change       -0.1295070E-02 Eh
 * total energy  :  -151.2165389 Eh     change       -0.1052649E-02 Eh
 * total energy  :  -151.2175178 Eh     change       -0.9789293E-03 Eh
 * total energy  :  -151.2181125 Eh     change       -0.5947034E-03 Eh
 * total energy  :  -151.2346936 Eh     change       -0.1187427E-04 Eh
 * total energy  :  -151.2347041 Eh     change       -0.1055998E-04 Eh
 * total energy  :  -151.2347093 Eh     change       -0.5197607E-05 Eh
 * total energy  :  -151.2347157 Eh     change       -0.6389886E-05 Eh
 * total energy  :  -151.2347235 Eh     change       -0.7825354E-05 Eh
 * total energy  :  -151.2347308 Eh     change       -0.7233852E-05 Eh
 * total energy  :  -151.2347369 Eh     change       -0.6184077E-05 Eh
 * total energy  :  -151.2347422 Eh     change       -0.5272044E-05 Eh
 * total energy  :  -151.2347463 Eh     change       -0.4095198E-05 Eh
   *** GEOMETRY OPTIMIZATION CONVERGED AFTER 158 ITERATIONS ***

 final structure:
================
70
 xtb: 6.3.3 (4ae9cef)
C        -1.65387311171372   -3.24662701195720   -1.57283959361021
C        -2.16449941775031   -3.87952275105517   -0.30865753879742
F        -2.74802666945312   -5.06630369599493   -0.51455430209552
F        -1.17034521503978   -4.11389870295910    0.58184928758998
F        -3.06653621754793   -3.13385425720580    0.34964339911501
C        -1.84861717639794   -3.91155358876185   -2.77736334605367
C        -1.35838778809670   -3.37944572328822   -3.95410303945013
C        -0.65896932586107   -2.18559318861812   -3.92973973954032
C        -0.46397453478756   -1.52547994595795   -2.73279036701007
C        -0.96633418247120   -2.03471893197142   -1.54033940086309
C        -0.70615325845264   -1.26449569251019   -0.27066151932448
C         0.79313655363034   -1.26130837026760    0.09671998605632
C         1.13608406363917   -2.26338196168803    1.16929322416267
C         1.86979599714923   -3.42373812381671    0.92085848676017
C         2.35585295790389   -3.76064841347258   -0.46208498876773
F         1.34133557631143   -3.86120030096413   -1.35241662309982
F         3.20047143720528   -2.85411921704859   -0.97864990525580
F         2.99822655489167   -4.93414420559423   -0.51856206464452
C         2.14590957272069   -4.31370269256663    1.95169715471708
C         1.69512707702745   -4.06018574106072    3.23290548545962
C         0.95848207357166   -2.91709625883916    3.48656495405829
C         0.68259572098678   -2.03178523143184    2.46239377290739
N         1.02019837063391    0.10376164137096    0.55920955495421
C         2.25184659320228    0.49609136453033    0.96125593643283
C         2.35564470048586    1.94541401604579    1.36382656246780
C         2.81173471729564    2.93706600328191    0.49638382172027
N         3.03700095731707    2.63306116610639   -0.89192729479104
O         3.74978036882386    3.37282576180524   -1.52761211294797
O         2.45950744692241    1.66345258754575   -1.34759918221333
C         3.02897879273754    4.23807993716840    0.93458442858597
C         2.77622692993848    4.56140396517666    2.25291514745069
C         2.32684279311930    3.58413407755273    3.12854923046041
C         2.13185794601001    2.28422497400237    2.69191897376949
O         3.18243016550454   -0.26161706807002    1.10257074379796
C        -0.03660621232472    1.00195556220133    0.17927942482382
C        -0.65884607676331    1.72109179101998    1.39830808342045
O        -0.85458009586529    0.90724828426479    2.41730269245491
O        -0.91599775992378    2.89548708282952    1.39587076287689
N        -1.00112392880341    0.15050461920311   -0.46791871405227
C        -2.14920967361548    0.56519847803853   -1.05662668480999
C        -2.25097402626030    2.04965990119651   -1.29086081334626
C        -1.59941684901853    2.61543315599399   -2.37841194819206
C        -1.79502295862278    3.95059516742860   -2.69391144070640
C        -2.65757415247018    4.73497872509595   -1.94226184969211
C        -3.32161112155466    4.18639361386381   -0.86247672003867
C        -3.11043849888959    2.85156048647700   -0.54289657942277
N        -3.74612454674494    2.30586415692927    0.62145984096156
O        -3.24616681507488    1.30587501979883    1.10466939782855
O        -4.70655532901384    2.88074049255595    1.07446098987864
O        -2.99441034684970   -0.18919347102523   -1.47871091179006
H        -2.38314738850590   -4.84841069210341   -2.78826464636838
H        -1.51599902346506   -3.90098517468563   -4.88504135490289
H        -0.26046042513774   -1.77029105934520   -4.84278398999769
H         0.09023441862438   -0.59822845750043   -2.71579341760843
H        -1.30264813012301   -1.63856221098964    0.56734182277980
H         1.40134826320165   -1.42034666696545   -0.79985697352470
H         2.71380892661737   -5.20743006363400    1.74625904185268
H         1.91501859753119   -4.75719826187779    4.02625770491284
H         0.59375748900876   -2.71622809447555    4.48251051875739
H         0.10415437100370   -1.14337126737475    2.66092049049059
H         3.38617465256733    4.97257908040918    0.22872196050962
H         2.93234008405123    5.57086720242402    2.59892074419713
H         2.13586626138435    3.83428662946472    4.16074260201015
H         1.81497249296517    1.51668941093001    3.38174085248471
H         0.31677193028769    1.78392331648907   -0.51426749735927
H        -1.38046144920841    1.32875509825675    3.11777070673528
H        -0.94514312864986    2.00457322002612   -2.98196534131333
H        -1.27410967210183    4.37915147182340   -3.53644770347560
H        -2.80864812505440    5.77220439500796   -2.19674787830808
H        -3.99252222265749    4.76953563874854   -0.25053130403972

          :  Hamiltonian                  GFN2-xTB          :
         :: total energy            -151.234746310185 Eh    ::
         :: gradient norm              0.000754018867 Eh/a0 ::
         :: HOMO-LUMO gap              2.007727374942 eV    ::
         :: SCC energy              -152.910332120464 Eh    ::
         :: -> dispersion             -0.108895061252 Eh    ::
         :: repulsion energy           1.670858481594 Eh    ::

    * Orbital Energies and Occupations

         #    Occupation            Energy/Eh            Energy/eV
      -------------------------------------------------------------
         1        2.0000           -0.8745511             -23.7977
       ...           ...                  ...                  ...
       117        2.0000           -0.4565214             -12.4226
       118        2.0000           -0.4553353             -12.3903
       119        2.0000           -0.4543669             -12.3640
       120        2.0000           -0.4520300             -12.3004
       121        2.0000           -0.4515712             -12.2879
       122        2.0000           -0.4387866             -11.9400
       123        2.0000           -0.4373262             -11.9003
       124        2.0000           -0.4352721             -11.8444
       125        2.0000           -0.4345745             -11.8254
       126        2.0000           -0.4291769             -11.6785
       127        2.0000           -0.4219220             -11.4811
       128        2.0000           -0.4168867             -11.3441
       129        2.0000           -0.4155009             -11.3064 (HOMO)
       130                         -0.3417183              -9.2986 (LUMO)
       131                         -0.3367736              -9.1641
       132                         -0.2860637              -7.7842
       133                         -0.2803183              -7.6278
       134                         -0.2762212              -7.5164
       135                         -0.2650374              -7.2120
       136                         -0.2621949              -7.1347
       137                         -0.2599113              -7.0725
       138                         -0.2572827              -7.0010
       139                         -0.2548382              -6.9345
       140                         -0.2507586              -6.8235
       ...                                ...                  ...
       220                          0.6325120              17.2115
      -------------------------------------------------------------
                  HL-Gap            0.0737826 Eh            2.0077 eV

     #   Z          covCN         q      C6AA      Î±(0)
     1   6 C        2.976    -0.021    28.520     8.760
     2   6 C        3.335     0.486    17.298     6.588
     3   9 F        0.792    -0.199    11.227     3.958
     4   9 F        0.791    -0.224    11.489     4.004
     5   9 F        0.791    -0.202    11.252     3.962
     6   6 C        2.923    -0.018    28.448     8.747
     7   6 C        2.920    -0.019    28.494     8.754
     8   6 C        2.919    -0.015    28.393     8.738
     9   6 C        2.927    -0.024    28.592     8.769
    10   6 C        2.973     0.026    27.429     8.591
    11   6 C        3.824     0.045    19.805     6.333
    12   6 C        3.825     0.043    19.827     6.336
    13   6 C        2.972     0.024    27.467     8.597
    14   6 C        2.976    -0.022    28.539     8.763
    15   6 C        3.335     0.485    17.300     6.588
    16   9 F        0.791    -0.223    11.480     4.002
    17   9 F        0.791    -0.201    11.244     3.961
    18   9 F        0.792    -0.200    11.234     3.959
    19   6 C        2.924    -0.019    28.472     8.750
    20   6 C        2.920    -0.020    28.516     8.757
    21   6 C        2.919    -0.017    28.438     8.745
    22   6 C        2.927    -0.030    28.752     8.793
    23   7 N        2.766    -0.096    23.110     7.140
    24   6 C        2.764     0.281    22.251     7.725
    25   6 C        2.972    -0.006    28.160     8.704
    26   6 C        2.919     0.006    27.892     8.661
    27   7 N        2.760     0.547    13.510     5.459
    28   8 O        0.930    -0.364    20.937     6.137
    29   8 O        0.930    -0.402    21.680     6.244
    30   6 C        2.919    -0.017    28.445     8.746
    31   6 C        2.920    -0.018    28.457     8.748
    32   6 C        2.919    -0.012    28.303     8.724
    33   6 C        2.925    -0.021    28.529     8.759
    34   8 O        0.859    -0.396    21.602     6.231
    35   6 C        3.753     0.084    19.236     6.254
    36   6 C        2.687     0.357    20.946     7.490
    37   8 O        1.659    -0.336    19.649     5.984
    38   8 O        0.856    -0.410    21.880     6.271
    39   7 N        2.767    -0.098    23.159     7.147
    40   6 C        2.760     0.283    22.213     7.718
    41   6 C        2.973    -0.003    28.094     8.694
    42   6 C        2.924    -0.022    28.557     8.764
    43   6 C        2.919    -0.013    28.346     8.731
    44   6 C        2.920    -0.019    28.483     8.752
    45   6 C        2.919    -0.014    28.361     8.733
    46   6 C        2.921     0.014    27.696     8.630
    47   7 N        2.761     0.554    13.439     5.445
    48   8 O        0.931    -0.406    21.760     6.256
    49   8 O        0.930    -0.362    20.910     6.133
    50   8 O        0.859    -0.398    21.644     6.238
    51   1 H        0.926     0.070     2.081     2.256
    52   1 H        0.926     0.060     2.200     2.320
    53   1 H        0.926     0.058     2.220     2.330
    54   1 H        0.926     0.052     2.293     2.368
    55   1 H        0.924     0.078     2.004     2.214
    56   1 H        0.924     0.078     1.995     2.209
    57   1 H        0.926     0.070     2.084     2.257
    58   1 H        0.926     0.059     2.214     2.327
    59   1 H        0.926     0.055     2.256     2.349
    60   1 H        0.926     0.065     2.143     2.289
    61   1 H        0.926     0.086     1.914     2.164
    62   1 H        0.926     0.067     2.119     2.276
    63   1 H        0.926     0.066     2.132     2.283
    64   1 H        0.926     0.060     2.199     2.319
    65   1 H        0.923     0.073     2.058     2.243
    66   1 H        0.804     0.355     0.578     1.194
    67   1 H        0.926     0.061     2.182     2.310
    68   1 H        0.926     0.066     2.128     2.281
    69   1 H        0.926     0.065     2.136     2.286
    70   1 H        0.926     0.087     1.904     2.158

Wiberg/Mayer (AO) data.
largest (>0.10) Wiberg bond orders for each atom

     #   Z sym  total        # sym  WBO       # sym  WBO       # sym  WBO
 ---------------------------------------------------------------------------
     1   6 C    3.971 --     6 C    1.411    10 C    1.389     2 C    0.952
                             8 C    0.105
     2   6 C    3.823 --     3 F    0.957     1 C    0.952     5 F    0.948
                             4 F    0.927
     3   9 F    1.080 --     2 C    0.957
     4   9 F    1.054 --     2 C    0.927
     5   9 F    1.079 --     2 C    0.948
     6   6 C    3.986 --     7 C    1.445     1 C    1.411    51 H    0.965
                             9 C    0.109
     7   6 C    3.988 --     6 C    1.445     8 C    1.431    52 H    0.969
                            10 C    0.109
     8   6 C    3.990 --     9 C    1.450     7 C    1.431    53 H    0.969
                             1 C    0.105
     9   6 C    3.990 --     8 C    1.450    10 C    1.407    54 H    0.966
                             6 C    0.109
    10   6 C    3.986 --     9 C    1.407     1 C    1.389    11 C    0.993
                             7 C    0.109
    11   6 C    3.961 --    10 C    0.993    39 N    0.953    12 C    0.952
                            55 H    0.951
    12   6 C    3.961 --    13 C    0.994    11 C    0.952    23 N    0.951
                            56 H    0.950
    13   6 C    3.986 --    22 C    1.411    14 C    1.387    12 C    0.994
                            20 C    0.109
    14   6 C    3.971 --    19 C    1.414    13 C    1.387    15 C    0.951
                            21 C    0.105
    15   6 C    3.822 --    18 F    0.956    14 C    0.951    17 F    0.949
                            16 F    0.928
    16   9 F    1.055 --    15 C    0.928
    17   9 F    1.080 --    15 C    0.949
    18   9 F    1.079 --    15 C    0.956
    19   6 C    3.987 --    20 C    1.443    14 C    1.414    57 H    0.965
                            22 C    0.109
    20   6 C    3.989 --    19 C    1.443    21 C    1.434    58 H    0.969
                            13 C    0.109
    21   6 C    3.990 --    22 C    1.447    20 C    1.434    59 H    0.969
                            14 C    0.105
    22   6 C    3.988 --    21 C    1.447    13 C    1.411    60 H    0.960
                            19 C    0.109
    23   7 N    3.469 --    24 C    1.213    35 C    0.991    12 C    0.951
                            34 O    0.194
    24   6 C    3.954 --    34 O    1.707    23 N    1.213    25 C    0.941
    25   6 C    3.984 --    33 C    1.413    26 C    1.356    24 C    0.941
                            31 C    0.104
    26   6 C    3.961 --    30 C    1.378    25 C    1.356    27 N    0.966
    27   7 N    3.912 --    28 O    1.469    29 O    1.429    26 C    0.966
    28   8 O    1.954 --    27 N    1.469    29 O    0.357
    29   8 O    1.929 --    27 N    1.429    28 O    0.357
    30   6 C    3.984 --    31 C    1.454    26 C    1.378    61 H    0.959
                            33 C    0.105
    31   6 C    3.989 --    30 C    1.454    32 C    1.426    62 H    0.967
                            25 C    0.104
    32   6 C    3.988 --    33 C    1.437    31 C    1.426    63 H    0.967
    33   6 C    3.989 --    32 C    1.437    25 C    1.413    64 H    0.967
                            30 C    0.105
    34   8 O    2.052 --    24 C    1.707    23 N    0.194
    35   6 C    3.969 --    23 N    0.991    39 N    0.985    65 H    0.936
                            36 C    0.905
    36   6 C    3.922 --    38 O    1.754    37 O    1.184    35 C    0.905
    37   8 O    2.252 --    36 C    1.184    66 H    0.846    38 O    0.183
    38   8 O    2.038 --    36 C    1.754    37 O    0.183
    39   7 N    3.468 --    40 C    1.208    35 C    0.985    11 C    0.953
                            50 O    0.190
    40   6 C    3.952 --    50 O    1.702    39 N    1.208    41 C    0.944
    41   6 C    3.984 --    42 C    1.415    46 C    1.354    40 C    0.944
                            44 C    0.105
    42   6 C    3.989 --    43 C    1.435    41 C    1.415    67 H    0.966
                            45 C    0.105
    43   6 C    3.987 --    42 C    1.435    44 C    1.428    68 H    0.967
    44   6 C    3.989 --    45 C    1.452    43 C    1.428    69 H    0.967
                            41 C    0.105
    45   6 C    3.983 --    44 C    1.452    46 C    1.379    70 H    0.959
                            42 C    0.105
    46   6 C    3.962 --    45 C    1.379    41 C    1.354    47 N    0.970
    47   7 N    3.915 --    49 O    1.471    48 O    1.425    46 C    0.970
    48   8 O    1.932 --    47 N    1.425    49 O    0.353
    49   8 O    1.953 --    47 N    1.471    48 O    0.353
    50   8 O    2.051 --    40 C    1.702    39 N    0.190
    51   1 H    0.995 --     6 C    0.965
    52   1 H    0.996 --     7 C    0.969
    53   1 H    0.996 --     8 C    0.969
    54   1 H    0.997 --     9 C    0.966
    55   1 H    0.994 --    11 C    0.951
    56   1 H    0.993 --    12 C    0.950
    57   1 H    0.995 --    19 C    0.965
    58   1 H    0.996 --    20 C    0.969
    59   1 H    0.996 --    21 C    0.969
    60   1 H    0.995 --    22 C    0.960
    61   1 H    0.992 --    30 C    0.959
    62   1 H    0.994 --    31 C    0.967
    63   1 H    0.995 --    32 C    0.967
    64   1 H    0.996 --    33 C    0.967
    65   1 H    0.994 --    35 C    0.936
    66   1 H    0.874 --    37 O    0.846
    67   1 H    0.996 --    42 C    0.966
    68   1 H    0.995 --    43 C    0.967
    69   1 H    0.995 --    44 C    0.967
    70   1 H    0.992 --    45 C    0.959
 ---------------------------------------------------------------------------

molecular dipole:
                 x           y           z       tot (Debye)
 q only:        0.400       2.385       0.910
   full:        0.355       2.730       1.033       7.473

           -------------------------------------------------
          | TOTAL ENERGY             -151.234746310185 Eh   |
          | GRADIENT NORM               0.000754018867 Eh/Î± |
          | HOMO-LUMO GAP               2.007727374942 eV   |
           -------------------------------------------------

 * finished run on 2022/03/17 at 01:55:12.028
