   * xtb version 6.3.3 (4ae9cef) compiled by 'conda@95abc7406d43' on 2020-10-14
          program call               : xtb acid_65.xyz --opt --chrg 0 --uhf 0 --gfn 2
          number of atoms            :                    60
          number of electrons        :                   218
          charge                     :                     0
          spin                       :                   0.0

   ID    Z sym.   atoms
    1    6 C      1, 2, 6-15, 19-22, 24-26, 28, 29, 31, 32, 36-38, 40, 41
    2    9 F      3-5, 16-18
    3    7 N      23, 35
    4    8 O      27, 30, 33, 34, 39, 42
    5    1 H      43-60

          :  Hamiltonian                  GFN2-xTB          :
 * total energy  :  -127.7916149 Eh     change       -0.1545942E-08 Eh
 * total energy  :  -127.8062987 Eh     change       -0.1468379E-01 Eh
 * total energy  :  -127.8106541 Eh     change       -0.4355455E-02 Eh
 * total energy  :  -127.8122852 Eh     change       -0.1631115E-02 Eh
 * total energy  :  -127.8135199 Eh     change       -0.1234657E-02 Eh
 * total energy  :  -127.8144313 Eh     change       -0.9113546E-03 Eh
 * total energy  :  -127.8152623 Eh     change       -0.8310840E-03 Eh
 * total energy  :  -127.8161490 Eh     change       -0.8866369E-03 Eh
 * total energy  :  -127.8169132 Eh     change       -0.7642424E-03 Eh
 * total energy  :  -127.8175972 Eh     change       -0.6840156E-03 Eh
 * total energy  :  -127.8286557 Eh     change        0.9271065E-05 Eh
 * total energy  :  -127.8286674 Eh     change       -0.1172616E-04 Eh
 * total energy  :  -127.8286734 Eh     change       -0.6011813E-05 Eh
 * total energy  :  -127.8286645 Eh     change        0.8963170E-05 Eh
 * total energy  :  -127.8286756 Eh     change       -0.1112205E-04 Eh
 * total energy  :  -127.8286812 Eh     change       -0.5630928E-05 Eh
 * total energy  :  -127.8286731 Eh     change        0.8061462E-05 Eh
 * total energy  :  -127.8286829 Eh     change       -0.9707207E-05 Eh
 * total energy  :  -127.8286873 Eh     change       -0.4498123E-05 Eh
   *** GEOMETRY OPTIMIZATION CONVERGED AFTER 57 ITERATIONS ***

 final structure:
================
60
 xtb: 6.3.3 (4ae9cef)
C        -2.58669305472176    2.28338195715720   -0.80195583563202
C        -1.88324031503694    2.80636920648885   -2.02600109338963
F        -1.68287309178645    1.89144243034827   -2.98681219688536
F        -0.65805012658799    3.30431613384188   -1.73985770278301
F        -2.54440609742082    3.81044838640954   -2.61605276108764
C        -3.72713052023163    2.95894348826976   -0.38220247685112
C        -4.41549716359204    2.54627282527131    0.74254740598683
C        -3.96561488837888    1.44871401096876    1.45266191144971
C        -2.82925586065746    0.77850230293078    1.03989011446005
C        -2.11622736205746    1.18000359199657   -0.08362929557683
C        -0.87293365304875    0.41540112487944   -0.47226259084146
C         0.37314686728580    0.81945616150337    0.36070558962701
C         1.29317649378628    1.76415193299534   -0.36337967043662
C         1.58842202707787    3.04028790367014    0.11549658667166
C         0.97073522575999    3.54230397514684    1.38940654305439
F        -0.38100035399624    3.57544637241077    1.32927022052032
F         1.35307078672218    4.77921731409890    1.71342521677732
F         1.25829151838706    2.77259120306077    2.46071330395878
C         2.44132606709976    3.87715117751144   -0.59177988611151
C         3.00710823990045    3.44982146525349   -1.77751129601715
C         2.71916553109688    2.18596879681605   -2.26195880774889
C         1.86873883636162    1.35449469865106   -1.56018369763166
N         1.02589749179157   -0.46754213939761    0.61245281307754
C         2.36449173232559   -0.62323241128033    0.84867410394410
C         2.82881774937710   -2.02923474489410    0.90695626866318
C         2.72479539843323   -3.00309617339019   -0.05003835163983
O         3.35100083846940   -4.11612934399257    0.34402125320417
C         3.86662034665927   -3.87881409954861    1.55952622943055
C         3.59003414509509   -2.60981413258563    1.95993018046545
O         3.10542833631830    0.32076252602347    1.00939028726810
C        -0.00440293520406   -1.46929893432194    0.70640559995064
C        -0.55635244918926   -1.56891360756224    2.16709480698935
O         0.16134808126615   -0.96564703532363    3.10344608175360
O        -1.54740592062905   -2.18693185668444    2.42372245320716
N        -1.00491684036396   -1.02289336550270   -0.22962373116458
C        -1.58976377332393   -1.77155075309606   -1.22345003174794
C        -1.46565662740458   -3.23554369786973   -1.13705865588229
C        -1.32737450171843   -4.04277820426082   -2.23762319717459
O        -1.27147914514071   -5.32572564143604   -1.88068791599049
C        -1.40079376162787   -5.37352471920866   -0.54338449154052
C        -1.51956285672428   -4.12409270079251   -0.02270500723908
O        -2.16640404599926   -1.22313965479983   -2.13741070113670
H        -4.07740215454524    3.81103599391045   -0.94312717508785
H        -5.29910851575401    3.07939237766844    1.05616206451001
H        -4.49519171603672    1.10903756803827    2.32913131451249
H        -2.50339846922199   -0.08615124654707    1.59395092981489
H        -0.67997321036295    0.54444081417903   -1.54184920737442
H         0.02610632548498    1.24210309990738    1.30998357252495
H         2.65926647792321    4.86208890590878   -0.20978436424120
H         3.67011746103587    4.10421045672270   -2.32113156909306
H         3.15537911602339    1.84630971241236   -3.18862272380882
H         1.65197719494658    0.36650163914405   -1.94001733161119
H         2.27776976069832   -3.00441526907261   -1.02544101157756
H         4.40452418509691   -4.67584206105028    2.03187440232039
H         3.87568597481788   -2.13207168433264    2.87340925468765
H         0.35610379949698   -2.47161058943423    0.44603346366848
H         0.92195890757532   -0.46317295207402    2.76712605183875
H        -1.24637998604878   -3.79818585544548   -3.27770839957047
H        -1.39484151204072   -6.34058271596472   -0.08220999479267
H        -1.67717600745868   -3.86063496373327    1.00205014732320

          :  Hamiltonian                  GFN2-xTB          :
         :: total energy            -127.828687350044 Eh    ::
         :: gradient norm              0.000765815653 Eh/a0 ::
         :: HOMO-LUMO gap              3.716598153678 eV    ::
         :: SCC energy              -129.230399405514 Eh    ::
         :: -> dispersion             -0.086908369500 Eh    ::
         :: repulsion energy           1.398359246052 Eh    ::

    * Orbital Energies and Occupations

         #    Occupation            Energy/Eh            Energy/eV
      -------------------------------------------------------------
         1        2.0000           -0.8829140             -24.0253
       ...           ...                  ...                  ...
        97        2.0000           -0.4580599             -12.4644
        98        2.0000           -0.4543648             -12.3639
        99        2.0000           -0.4482703             -12.1981
       100        2.0000           -0.4466231             -12.1532
       101        2.0000           -0.4416676             -12.0184
       102        2.0000           -0.4410838             -12.0025
       103        2.0000           -0.4384335             -11.9304
       104        2.0000           -0.4337612             -11.8032
       105        2.0000           -0.4304114             -11.7121
       106        2.0000           -0.4241223             -11.5410
       107        2.0000           -0.4233716             -11.5205
       108        2.0000           -0.4156546             -11.3105
       109        2.0000           -0.4130064             -11.2385 (HOMO)
       110                         -0.2764239              -7.5219 (LUMO)
       111                         -0.2721855              -7.4065
       112                         -0.2703017              -7.3553
       113                         -0.2648878              -7.2080
       114                         -0.2612111              -7.1079
       115                         -0.2596281              -7.0648
       116                         -0.2546866              -6.9304
       117                         -0.2405898              -6.5468
       118                         -0.2249180              -6.1203
       119                         -0.1897845              -5.1643
       120                         -0.1628284              -4.4308
       ...                                ...                  ...
       186                          0.6751119              18.3707
      -------------------------------------------------------------
                  HL-Gap            0.1365825 Eh            3.7166 eV

     #   Z          covCN         q      C6AA      Î±(0)
     1   6 C        2.975    -0.026    28.637     8.778
     2   6 C        3.336     0.485    17.307     6.589
     3   9 F        0.791    -0.201    11.247     3.962
     4   9 F        0.791    -0.224    11.487     4.003
     5   9 F        0.792    -0.200    11.234     3.959
     6   6 C        2.924    -0.020    28.508     8.756
     7   6 C        2.919    -0.021    28.521     8.758
     8   6 C        2.919    -0.016    28.412     8.741
     9   6 C        2.927    -0.027    28.678     8.782
    10   6 C        2.968     0.017    27.632     8.622
    11   6 C        3.830     0.040    19.887     6.345
    12   6 C        3.833     0.046    19.781     6.328
    13   6 C        2.972     0.025    27.447     8.594
    14   6 C        2.977    -0.021    28.522     8.760
    15   6 C        3.336     0.487    17.284     6.585
    16   9 F        0.791    -0.221    11.451     3.997
    17   9 F        0.792    -0.196    11.189     3.951
    18   9 F        0.791    -0.213    11.368     3.983
    19   6 C        2.923    -0.016    28.412     8.741
    20   6 C        2.921    -0.017    28.446     8.746
    21   6 C        2.919    -0.014    28.356     8.732
    22   6 C        2.927    -0.020    28.509     8.756
    23   7 N        2.766    -0.142    24.077     7.288
    24   6 C        2.752     0.268    22.472     7.762
    25   6 C        3.077    -0.053    29.221     8.863
    26   6 C        3.074     0.067    26.437     8.430
    27   8 O        1.731    -0.153    16.603     5.502
    28   6 C        3.077     0.072    26.311     8.410
    29   6 C        3.015    -0.056    29.365     8.889
    30   8 O        0.859    -0.409    21.855     6.268
    31   6 C        3.769     0.068    19.483     6.290
    32   6 C        2.684     0.347    21.113     7.519
    33   8 O        1.659    -0.343    19.770     6.002
    34   8 O        0.856    -0.349    20.691     6.099
    35   7 N        2.760    -0.123    23.672     7.226
    36   6 C        2.763     0.271    22.417     7.754
    37   6 C        3.074    -0.051    29.192     8.859
    38   6 C        3.080     0.081    26.108     8.377
    39   8 O        1.730    -0.154    16.619     5.504
    40   6 C        3.081     0.068    26.383     8.421
    41   6 C        3.013    -0.073    29.791     8.953
    42   8 O        0.860    -0.410    21.887     6.272
    43   1 H        0.926     0.070     2.084     2.257
    44   1 H        0.926     0.060     2.199     2.319
    45   1 H        0.926     0.061     2.182     2.310
    46   1 H        0.926     0.059     2.211     2.325
    47   1 H        0.924     0.082     1.960     2.190
    48   1 H        0.924     0.054     2.269     2.355
    49   1 H        0.926     0.071     2.073     2.252
    50   1 H        0.926     0.062     2.180     2.309
    51   1 H        0.926     0.059     2.208     2.324
    52   1 H        0.926     0.046     2.364     2.404
    53   1 H        0.926     0.054     2.265     2.354
    54   1 H        0.926     0.067     2.113     2.273
    55   1 H        0.927     0.061     2.186     2.312
    56   1 H        0.924     0.078     2.005     2.214
    57   1 H        0.804     0.340     0.613     1.230
    58   1 H        0.926     0.070     2.083     2.257
    59   1 H        0.926     0.061     2.184     2.311
    60   1 H        0.927     0.070     2.080     2.255

Wiberg/Mayer (AO) data.
largest (>0.10) Wiberg bond orders for each atom

     #   Z sym  total        # sym  WBO       # sym  WBO       # sym  WBO
 ---------------------------------------------------------------------------
     1   6 C    3.970 --     6 C    1.416    10 C    1.383     2 C    0.951
                             8 C    0.107
     2   6 C    3.821 --     5 F    0.956     1 C    0.951     3 F    0.949
                             4 F    0.928
     3   9 F    1.081 --     2 C    0.949
     4   9 F    1.055 --     2 C    0.928
     5   9 F    1.079 --     2 C    0.956
     6   6 C    3.987 --     7 C    1.441     1 C    1.416    43 H    0.965
                             9 C    0.109
     7   6 C    3.988 --     6 C    1.441     8 C    1.437    44 H    0.968
                            10 C    0.108
     8   6 C    3.989 --     9 C    1.442     7 C    1.437    45 H    0.968
                             1 C    0.107
     9   6 C    3.989 --     8 C    1.442    10 C    1.416    46 H    0.962
                             6 C    0.109
    10   6 C    3.985 --     9 C    1.416     1 C    1.383    11 C    0.993
                             7 C    0.108
    11   6 C    3.964 --    10 C    0.993    35 N    0.961    47 H    0.948
                            12 C    0.946
    12   6 C    3.966 --    13 C    0.999    48 H    0.954    23 N    0.951
                            11 C    0.946
    13   6 C    3.987 --    22 C    1.409    14 C    1.385    12 C    0.999
                            20 C    0.109
    14   6 C    3.971 --    19 C    1.413    13 C    1.385    15 C    0.953
                            21 C    0.105
    15   6 C    3.821 --    17 F    0.962    14 C    0.953    18 F    0.936
                            16 F    0.930
    16   9 F    1.058 --    15 C    0.930
    17   9 F    1.085 --    15 C    0.962
    18   9 F    1.066 --    15 C    0.936
    19   6 C    3.986 --    20 C    1.443    14 C    1.413    49 H    0.965
                            22 C    0.109
    20   6 C    3.988 --    19 C    1.443    21 C    1.433    50 H    0.968
                            13 C    0.109
    21   6 C    3.990 --    22 C    1.448    20 C    1.433    51 H    0.969
                            14 C    0.105
    22   6 C    3.991 --    21 C    1.448    13 C    1.409    52 H    0.967
                            19 C    0.109
    23   7 N    3.450 --    24 C    1.176    31 C    0.987    12 C    0.951
                            30 O    0.189
    24   6 C    3.948 --    30 O    1.700    23 N    1.176    25 C    0.983
    25   6 C    3.976 --    26 C    1.545    29 C    1.260    24 C    0.983
    26   6 C    3.912 --    25 C    1.545    27 O    1.158    53 H    0.965
                            28 C    0.146
    27   8 O    2.478 --    26 C    1.158    28 C    1.142
    28   6 C    3.907 --    29 C    1.615    27 O    1.142    54 H    0.965
                            26 C    0.146
    29   6 C    3.982 --    28 C    1.615    25 C    1.260    55 H    0.973
    30   8 O    2.038 --    24 C    1.700    23 N    0.189
    31   6 C    3.966 --    35 N    0.993    23 N    0.987    56 H    0.927
                            32 C    0.891
    32   6 C    3.923 --    34 O    1.788    33 O    1.173    31 C    0.891
    33   8 O    2.249 --    32 C    1.173    57 H    0.846    34 O    0.175
    34   8 O    2.092 --    32 C    1.788    33 O    0.175
    35   7 N    3.427 --    36 C    1.159    31 C    0.993    11 C    0.961
                            42 O    0.177
    36   6 C    3.947 --    42 O    1.699    35 N    1.159    37 C    1.011
    37   6 C    3.976 --    38 C    1.536    41 C    1.248    36 C    1.011
    38   6 C    3.914 --    37 C    1.536    39 O    1.171    58 H    0.964
                            40 C    0.141
    39   8 O    2.478 --    38 C    1.171    40 C    1.132
    40   6 C    3.906 --    41 C    1.623    39 O    1.132    59 H    0.966
                            38 C    0.141
    41   6 C    3.981 --    40 C    1.623    37 C    1.248    60 H    0.963
    42   8 O    2.030 --    36 C    1.699    35 N    0.177
    43   1 H    0.995 --     6 C    0.965
    44   1 H    0.995 --     7 C    0.968
    45   1 H    0.995 --     8 C    0.968
    46   1 H    0.996 --     9 C    0.962
    47   1 H    0.993 --    11 C    0.948
    48   1 H    0.997 --    12 C    0.954
    49   1 H    0.995 --    19 C    0.965
    50   1 H    0.995 --    20 C    0.968
    51   1 H    0.996 --    21 C    0.969
    52   1 H    0.997 --    22 C    0.967
    53   1 H    0.997 --    26 C    0.965
    54   1 H    0.995 --    28 C    0.965
    55   1 H    0.996 --    29 C    0.973
    56   1 H    0.993 --    31 C    0.927
    57   1 H    0.884 --    33 O    0.846
    58   1 H    0.995 --    38 C    0.964
    59   1 H    0.995 --    40 C    0.966
    60   1 H    0.995 --    41 C    0.963
 ---------------------------------------------------------------------------

molecular dipole:
                 x           y           z       tot (Debye)
 q only:        0.811      -1.184       0.255
   full:        1.157      -1.410       0.116       4.644

           -------------------------------------------------
          | TOTAL ENERGY             -127.828687350044 Eh   |
          | GRADIENT NORM               0.000765815653 Eh/Î± |
          | HOMO-LUMO GAP               3.716598153678 eV   |
           -------------------------------------------------

 * finished run on 2022/03/17 at 01:57:57.414
