   * xtb version 6.3.3 (4ae9cef) compiled by 'conda@95abc7406d43' on 2020-10-14
          program call               : xtb acid_159.xyz --opt --chrg 0 --uhf 0 --gfn 2
          number of atoms            :                    56
          number of electrons        :                   192
          charge                     :                     0
          spin                       :                   0.0

   ID    Z sym.   atoms
    1    6 C      1, 2, 6-11, 13, 14, 18-21, 25-28, 30-35
    2    9 F      3-5, 22-24
    3    7 N      12, 17
    4    8 O      15, 16, 29, 36
    5    1 H      37-56

          :  Hamiltonian                  GFN2-xTB          :
 * total energy  :  -112.1661554 Eh     change       -0.4323553E-08 Eh
 * total energy  :  -112.1796051 Eh     change       -0.1344969E-01 Eh
 * total energy  :  -112.1833614 Eh     change       -0.3756319E-02 Eh
 * total energy  :  -112.1840310 Eh     change       -0.6695619E-03 Eh
 * total energy  :  -112.1844822 Eh     change       -0.4511429E-03 Eh
 * total energy  :  -112.1847992 Eh     change       -0.3170722E-03 Eh
 * total energy  :  -112.1851054 Eh     change       -0.3061434E-03 Eh
 * total energy  :  -112.1854245 Eh     change       -0.3191108E-03 Eh
 * total energy  :  -112.1858213 Eh     change       -0.3967995E-03 Eh
 * total energy  :  -112.1861541 Eh     change       -0.3327912E-03 Eh
 * total energy  :  -112.1923119 Eh     change       -0.3051103E-04 Eh
 * total energy  :  -112.1923355 Eh     change       -0.2356851E-04 Eh
 * total energy  :  -112.1923501 Eh     change       -0.1459906E-04 Eh
 * total energy  :  -112.1923790 Eh     change       -0.2892072E-04 Eh
 * total energy  :  -112.1923888 Eh     change       -0.9832232E-05 Eh
 * total energy  :  -112.1924077 Eh     change       -0.1888568E-04 Eh
 * total energy  :  -112.1924142 Eh     change       -0.6530020E-05 Eh
 * total energy  :  -112.1924227 Eh     change       -0.8469756E-05 Eh
 * total energy  :  -112.1924276 Eh     change       -0.4900295E-05 Eh
   *** GEOMETRY OPTIMIZATION CONVERGED AFTER 50 ITERATIONS ***

 final structure:
================
56
 xtb: 6.3.3 (4ae9cef)
C        -3.03501528124834   -1.64382094274108   -0.53760658387769
C        -3.55490138924467   -0.97946166825597   -1.78154071344819
F        -2.97102456750952    0.19540849242900   -2.06283320300611
F        -4.87403534959365   -0.75654517926525   -1.73867932835266
F        -3.34386882463665   -1.74645026179498   -2.87499047132748
C        -3.19027385711901   -3.02037163892550   -0.41877695231949
C        -2.72563812701869   -3.67148288512396    0.70849638376875
C        -2.11358976232034   -2.95114666176269    1.72174113599331
C        -1.96780397070765   -1.58056500305532    1.60772351731357
C        -2.42182941738076   -0.91302661531611    0.47470671954345
C        -2.29376265759215    0.58786467910994    0.41905674902570
N        -1.04606614133824    1.01769619498737    0.11874542515922
C         0.05848291772455    0.18809550313534   -0.31190803260102
C        -0.00434698638869    0.00608336337495   -1.84306167254107
O        -0.50123865568987   -1.18836063576815   -2.15844388562989
O         0.33390247499597    0.83101122449139   -2.64050420892387
N         1.23464157193865    0.94190892093448    0.06548388049694
C         2.46352598196095    0.41067297743869    0.25369542630883
C         2.59521479077714   -0.99625569845540   -0.27112329682908
C         2.46850709506942   -2.11477365865859    0.55012549538638
C         2.16794141282707   -1.96424893813727    2.01644958975650
F         1.34975224635211   -0.92976616048205    2.29151521346214
F         3.26625494977675   -1.79114118738428    2.75956761182462
F         1.54250500860834   -3.04829083123007    2.51553852312211
C         2.64479045877496   -3.39236867883781    0.03266338059483
C         2.94278909528823   -3.55693542558009   -1.30761281435915
C         3.07223338781562   -2.44984995552311   -2.12964591972505
C         2.90063746368274   -1.17707612985816   -1.61453029621876
O         3.38982914566152    1.01505153085543    0.74119314008443
C         0.85595848477732    2.26431071274754    0.54377190074372
C        -0.58058713146060    2.39646403075839    0.04343080783711
C        -1.29708928105575    3.46138468771472    0.85843877404215
C        -0.30554784998694    4.61211444492067    1.12667369200518
C         0.78850212635363    4.70155439323441    0.05852072221586
C         1.67471919803884    3.44115742142983    0.02968720414106
O        -3.22131467922790    1.31853093440396    0.67632867480776
H        -3.66914234983605   -3.57150472633724   -1.21345062968299
H        -2.84399796432593   -4.74008258449230    0.79672400240704
H        -1.74702013163555   -3.45649366273371    2.60194811231757
H        -1.49829431120434   -1.01446098390088    2.39789161302351
H         0.01935440671960   -0.80455309930904    0.15184592260032
H        -0.61480969001208   -1.28122889834483   -3.12036104082289
H         2.54654878262992   -4.24925624331945    0.68102473590574
H         3.07942138866158   -4.54976431796322   -1.70642776295572
H         3.31239175615645   -2.57690250954147   -3.17421544143363
H         3.01084150922731   -0.30981209825688   -2.24743537936165
H         0.87302278006864    2.24266126774203    1.64064398085948
H        -0.56454275314513    2.67943775658361   -1.01685746185948
H        -2.17225417045014    3.81440949418507    0.31588279923968
H        -1.64451650743080    3.04075680141534    1.80119513461459
H         0.16834198953058    4.47547260500067    2.09989784562318
H        -0.85122163824516    5.55534365036917    1.16232542260771
H         0.31841487400295    4.84906190700756   -0.91462354978234
H         1.40994414737566    5.57582207460855    0.25408816590578
H         2.00286078331947    3.23652413208498   -0.98975992929862
H         2.56240021768963    3.56719707939171    0.64759887161752

          :  Hamiltonian                  GFN2-xTB          :
         :: total energy            -112.192427612336 Eh    ::
         :: gradient norm              0.000773668943 Eh/a0 ::
         :: HOMO-LUMO gap              3.395113706132 eV    ::
         :: SCC energy              -113.385704972101 Eh    ::
         :: -> dispersion             -0.075583929563 Eh    ::
         :: repulsion energy           1.190232291309 Eh    ::

    * Orbital Energies and Occupations

         #    Occupation            Energy/Eh            Energy/eV
      -------------------------------------------------------------
         1        2.0000           -0.8916033             -24.2618
       ...           ...                  ...                  ...
        84        2.0000           -0.4649571             -12.6521
        85        2.0000           -0.4638545             -12.6221
        86        2.0000           -0.4570626             -12.4373
        87        2.0000           -0.4520642             -12.3013
        88        2.0000           -0.4515533             -12.2874
        89        2.0000           -0.4486781             -12.2092
        90        2.0000           -0.4448410             -12.1047
        91        2.0000           -0.4414553             -12.0126
        92        2.0000           -0.4343551             -11.8194
        93        2.0000           -0.4171516             -11.3513
        94        2.0000           -0.4128618             -11.2345
        95        2.0000           -0.4109585             -11.1828
        96        2.0000           -0.4096160             -11.1462 (HOMO)
        97                         -0.2848478              -7.7511 (LUMO)
        98                         -0.2777166              -7.5571
        99                         -0.2755132              -7.4971
       100                         -0.2718801              -7.3982
       101                         -0.2685620              -7.3079
       102                         -0.2341942              -6.3727
       103                         -0.2275422              -6.1917
       104                         -0.1490665              -4.0563
       105                         -0.1439146              -3.9161
       106                         -0.0528843              -1.4391
       107                         -0.0438939              -1.1944
       ...                                ...                  ...
       164                          0.6393833              17.3985
      -------------------------------------------------------------
                  HL-Gap            0.1247681 Eh            3.3951 eV

     #   Z          covCN         q      C6AA      Î±(0)
     1   6 C        2.977    -0.022    28.541     8.763
     2   6 C        3.336     0.489    17.248     6.577
     3   9 F        0.791    -0.210    11.339     3.978
     4   9 F        0.791    -0.195    11.179     3.949
     5   9 F        0.792    -0.218    11.418     3.992
     6   6 C        2.923    -0.021    28.527     8.759
     7   6 C        2.920    -0.022    28.560     8.764
     8   6 C        2.918    -0.019    28.476     8.751
     9   6 C        2.925    -0.024    28.612     8.772
    10   6 C        2.975    -0.010    28.263     8.720
    11   6 C        2.755     0.274    22.362     7.744
    12   7 N        2.772    -0.108    23.353     7.177
    13   6 C        3.785     0.083    19.219     6.244
    14   6 C        2.689     0.350    21.059     7.510
    15   8 O        1.659    -0.378    20.419     6.100
    16   8 O        0.856    -0.365    20.988     6.142
    17   7 N        2.769    -0.110    23.395     7.184
    18   6 C        2.760     0.272    22.398     7.750
    19   6 C        2.976    -0.012    28.314     8.728
    20   6 C        2.976    -0.028    28.686     8.785
    21   6 C        3.335     0.487    17.278     6.584
    22   9 F        0.791    -0.216    11.400     3.988
    23   9 F        0.791    -0.192    11.155     3.945
    24   9 F        0.792    -0.212    11.356     3.981
    25   6 C        2.922    -0.022    28.562     8.764
    26   6 C        2.920    -0.022    28.560     8.764
    27   6 C        2.919    -0.019    28.471     8.750
    28   6 C        2.925    -0.024    28.596     8.769
    29   8 O        0.858    -0.398    21.633     6.236
    30   6 C        3.839     0.045    19.789     6.329
    31   6 C        3.853     0.042    19.832     6.334
    32   6 C        3.805    -0.065    21.752     6.639
    33   6 C        3.804    -0.066    21.770     6.643
    34   6 C        3.804    -0.066    21.760     6.641
    35   6 C        3.805    -0.068    21.790     6.645
    36   8 O        0.858    -0.398    21.637     6.237
    37   1 H        0.926     0.065     2.145     2.290
    38   1 H        0.926     0.060     2.203     2.321
    39   1 H        0.926     0.065     2.145     2.290
    40   1 H        0.926     0.061     2.182     2.310
    41   1 H        0.924     0.062     2.172     2.305
    42   1 H        0.804     0.353     0.581     1.198
    43   1 H        0.926     0.067     2.124     2.279
    44   1 H        0.926     0.060     2.196     2.317
    45   1 H        0.926     0.060     2.195     2.317
    46   1 H        0.926     0.061     2.183     2.310
    47   1 H        0.924     0.060     2.193     2.316
    48   1 H        0.924     0.067     2.123     2.279
    49   1 H        0.925     0.064     2.152     2.294
    50   1 H        0.925     0.059     2.213     2.326
    51   1 H        0.924     0.043     2.414     2.430
    52   1 H        0.924     0.048     2.350     2.397
    53   1 H        0.924     0.044     2.401     2.423
    54   1 H        0.924     0.047     2.355     2.400
    55   1 H        0.924     0.054     2.274     2.358
    56   1 H        0.925     0.065     2.140     2.287

Wiberg/Mayer (AO) data.
largest (>0.10) Wiberg bond orders for each atom

     #   Z sym  total        # sym  WBO       # sym  WBO       # sym  WBO
 ---------------------------------------------------------------------------
     1   6 C    3.973 --     6 C    1.407    10 C    1.394     2 C    0.950
                             8 C    0.106
     2   6 C    3.823 --     4 F    0.955     1 C    0.950     3 F    0.946
                             5 F    0.934
     3   9 F    1.074 --     2 C    0.946
     4   9 F    1.086 --     2 C    0.955
     5   9 F    1.057 --     2 C    0.934
     6   6 C    3.988 --     7 C    1.448     1 C    1.407    37 H    0.966
                             9 C    0.111
     7   6 C    3.990 --     6 C    1.448     8 C    1.431    38 H    0.969
                            10 C    0.109
     8   6 C    3.988 --     9 C    1.447     7 C    1.431    39 H    0.967
                             1 C    0.106
     9   6 C    3.989 --     8 C    1.447    10 C    1.400    40 H    0.967
                             6 C    0.111
    10   6 C    3.986 --     9 C    1.400     1 C    1.394    11 C    0.944
                             7 C    0.109
    11   6 C    3.953 --    36 O    1.703    12 N    1.219    10 C    0.944
    12   7 N    3.479 --    11 C    1.219    13 C    0.982    31 C    0.949
                            36 O    0.196
    13   6 C    3.974 --    17 N    0.985    12 N    0.982    41 H    0.944
                            14 C    0.906
    14   6 C    3.921 --    16 O    1.795    15 O    1.148    13 C    0.906
    15   8 O    2.208 --    14 C    1.148    42 H    0.849    16 O    0.184
    16   8 O    2.080 --    14 C    1.795    15 O    0.184
    17   7 N    3.474 --    18 C    1.225    13 C    0.985    30 C    0.950
                            29 O    0.200
    18   6 C    3.955 --    29 O    1.705    17 N    1.225    19 C    0.943
    19   6 C    3.986 --    28 C    1.407    20 C    1.387    18 C    0.943
                            26 C    0.109
    20   6 C    3.972 --    25 C    1.411    19 C    1.387    21 C    0.950
                            27 C    0.107
    21   6 C    3.824 --    23 F    0.958    20 C    0.950    24 F    0.942
                            22 F    0.937
    22   9 F    1.065 --    21 C    0.937
    23   9 F    1.089 --    21 C    0.958
    24   9 F    1.064 --    21 C    0.942
    25   6 C    3.987 --    26 C    1.444    20 C    1.411    43 H    0.966
                            28 C    0.111
    26   6 C    3.990 --    25 C    1.444    27 C    1.436    44 H    0.968
                            19 C    0.109
    27   6 C    3.989 --    28 C    1.443    26 C    1.436    45 H    0.968
                            20 C    0.107
    28   6 C    3.989 --    27 C    1.443    19 C    1.407    46 H    0.967
                            25 C    0.111
    29   8 O    2.041 --    18 C    1.705    17 N    0.200
    30   6 C    3.956 --    35 C    0.992    31 C    0.976    47 H    0.955
                            17 N    0.950
    31   6 C    3.954 --    32 C    0.996    30 C    0.976    48 H    0.952
                            12 N    0.949
    32   6 C    3.987 --    33 C    0.997    31 C    0.996    49 H    0.977
                            50 H    0.975
    33   6 C    3.995 --    34 C    1.010    32 C    0.997    51 H    0.979
                            52 H    0.978
    34   6 C    3.995 --    33 C    1.010    35 C    0.998    53 H    0.979
                            54 H    0.978
    35   6 C    3.988 --    34 C    0.998    30 C    0.992    56 H    0.977
                            55 H    0.976
    36   8 O    2.044 --    11 C    1.703    12 N    0.196
    37   1 H    0.995 --     6 C    0.966
    38   1 H    0.996 --     7 C    0.969
    39   1 H    0.995 --     8 C    0.967
    40   1 H    0.996 --     9 C    0.967
    41   1 H    0.996 --    13 C    0.944
    42   1 H    0.875 --    15 O    0.849
    43   1 H    0.995 --    25 C    0.966
    44   1 H    0.996 --    26 C    0.968
    45   1 H    0.995 --    27 C    0.968
    46   1 H    0.996 --    28 C    0.967
    47   1 H    0.996 --    30 C    0.955
    48   1 H    0.995 --    31 C    0.952
    49   1 H    0.996 --    32 C    0.977
    50   1 H    0.996 --    32 C    0.975
    51   1 H    0.998 --    33 C    0.979
    52   1 H    0.997 --    33 C    0.978
    53   1 H    0.998 --    34 C    0.979
    54   1 H    0.997 --    34 C    0.978
    55   1 H    0.997 --    35 C    0.976
    56   1 H    0.995 --    35 C    0.977
 ---------------------------------------------------------------------------

molecular dipole:
                 x           y           z       tot (Debye)
 q only:        0.600      -1.348      -0.680
   full:        0.523      -1.867      -0.873       5.405

           -------------------------------------------------
          | TOTAL ENERGY             -112.192427612336 Eh   |
          | GRADIENT NORM               0.000773668943 Eh/Î± |
          | HOMO-LUMO GAP               3.395113706132 eV   |
           -------------------------------------------------

 * finished run on 2022/03/16 at 21:57:19.109
