   * xtb version 6.3.3 (4ae9cef) compiled by 'conda@95abc7406d43' on 2020-10-14
          program call               : xtb acid_86.xyz --opt --chrg 0 --uhf 0 --gfn 2
          number of atoms            :                    72
          number of electrons        :                   226
          charge                     :                     0
          spin                       :                   0.0

   ID    Z sym.   atoms
    1    6 C      1-22, 24-26, 28-31, 33, 34, 38-44
    2    7 N      23, 37
    3   35 Br     27, 45
    4    8 O      32, 35, 36, 46
    5    1 H      47-72

          :  Hamiltonian                  GFN2-xTB          :
 * total energy  :  -124.9246205 Eh     change       -0.1648374E-08 Eh
 * total energy  :  -124.9424158 Eh     change       -0.1779531E-01 Eh
 * total energy  :  -124.9471386 Eh     change       -0.4722783E-02 Eh
 * total energy  :  -124.9484644 Eh     change       -0.1325832E-02 Eh
 * total energy  :  -124.9491919 Eh     change       -0.7275050E-03 Eh
 * total energy  :  -124.9495404 Eh     change       -0.3485321E-03 Eh
 * total energy  :  -124.9497878 Eh     change       -0.2473572E-03 Eh
 * total energy  :  -124.9500946 Eh     change       -0.3068202E-03 Eh
 * total energy  :  -124.9503913 Eh     change       -0.2966395E-03 Eh
 * total energy  :  -124.9506247 Eh     change       -0.2334745E-03 Eh
 * total energy  :  -124.9590382 Eh     change       -0.9308826E-05 Eh
 * total energy  :  -124.9590461 Eh     change       -0.7929523E-05 Eh
 * total energy  :  -124.9590530 Eh     change       -0.6867805E-05 Eh
 * total energy  :  -124.9590601 Eh     change       -0.7066445E-05 Eh
 * total energy  :  -124.9590678 Eh     change       -0.7678597E-05 Eh
 * total energy  :  -124.9590759 Eh     change       -0.8193606E-05 Eh
 * total energy  :  -124.9590843 Eh     change       -0.8321526E-05 Eh
 * total energy  :  -124.9590919 Eh     change       -0.7610397E-05 Eh
 * total energy  :  -124.9590939 Eh     change       -0.2060277E-05 Eh
   *** GEOMETRY OPTIMIZATION CONVERGED AFTER 68 ITERATIONS ***

 final structure:
================
72
 xtb: 6.3.3 (4ae9cef)
C         3.92790729137650    3.08617390023834   -2.63027581707902
C         4.76935467507264    3.06446746779869   -1.55545208177713
C         4.29561226402706    2.62428564702263   -0.31266548570329
C         3.00255590364566    2.20501403041590   -0.16334290310536
C         2.10693583884922    2.19852360510783   -1.25488174487067
C         2.58819796517943    2.66229900522975   -2.51198941301798
C         1.72691643402711    2.69554439722559   -3.62805976204568
C         0.42960368534728    2.29344618150028   -3.51309463240450
C        -0.05035315467988    1.81834382302996   -2.28138733880146
C         0.75407208317746    1.75981123083525   -1.16291117479901
C         0.23566690820229    1.17246314788877    0.13684635652024
C        -1.28766745792830    0.97975599855677    0.21306826792382
C        -1.75388747857914    0.97090836154293    1.65242578348779
C        -2.14418368063906   -0.18658776332586    2.27179764771571
C        -2.54204040340703   -0.19700953240158    3.61618705453268
C        -2.54502756931335    0.95987839495126    4.33825153985546
C        -2.16299964362217    2.17826419875607    3.73924668111819
C        -1.76237056625003    2.19557284171364    2.37591932393111
C        -1.39670306834379    3.43511402280324    1.80513927519671
C        -1.42076517828709    4.58552254999615    2.54417457890468
C        -1.80976902053543    4.56306204845893    3.89070516459495
C        -2.17488934948257    3.38292301834863    4.47276932231887
N        -1.44568051816762   -0.30404458557131   -0.45971821954762
C        -2.57759003304507   -0.61957774583970   -1.14032920042537
C        -2.56292621640688   -1.97704151270616   -1.77510441728052
C        -2.45114014700916   -2.11285117226762   -3.15337541854486
Br       -2.23423601398565   -0.56976276695927   -4.23523156396848
C        -2.46580219674399   -3.35814059565704   -3.75502006971455
C        -2.61302888076445   -4.48650341209415   -2.96911231350337
C        -2.75206010088867   -4.36850243122536   -1.59624912293802
C        -2.72905150716145   -3.12009811957741   -1.00302568276745
O        -3.50693006736773    0.15046395539251   -1.23472917934442
C        -0.27183803190945   -1.13121081230045   -0.27678671467446
C         0.22443203731612   -1.82370262443964   -1.57906084346775
O         0.47685485983160   -1.05218623980880   -2.61238395999503
O         0.37876988920809   -3.01428502009804   -1.59911366807405
N         0.70132631977188   -0.21250580785837    0.28253443216936
C         1.55643932690390   -0.57290938706122    1.28310405685461
C         1.89062704973475   -2.03174166928505    1.27760625753614
C         1.38382491402089   -2.88396460285797    2.24978648871032
C         1.70358769505727   -4.23025700937618    2.23068954025580
C         2.54016683760246   -4.73062930211913    1.24664218755364
C         3.07235894325738   -3.88885725339020    0.28610971740911
C         2.74390639613996   -2.54562123097471    0.30857631264629
Br        3.49919086050476   -1.37808144682558   -0.99394821811104
O         2.04069135132310    0.22074825155366    2.05717747986537
H         4.27338778761049    3.42812506309905   -3.59508500879541
H         5.79527192108048    3.38630901116824   -1.65402044683811
H         4.96095869538145    2.61422945439288    0.53734489291568
H         2.68405783892207    1.86844101746743    0.80851714261602
H         2.11374019087863    3.04993054321238   -4.57162306991130
H        -0.24351406561827    2.31762698940268   -4.35555140263373
H        -1.09197618329781    1.53748636160725   -2.24418223198278
H         0.60869782478841    1.73805084014722    0.99385010577155
H        -1.85977549789995    1.72955146765312   -0.33859762204756
H        -2.16690158837595   -1.11806385907283    1.72554932882501
H        -2.84249082518153   -1.13046046781323    4.06884396488091
H        -2.84351651456367    0.96221821449948    5.37636835302047
H        -1.09796860555774    3.48659511712604    0.76957941396685
H        -1.13896431453050    5.52322548760338    2.08862303884320
H        -1.82160327187844    5.48182035683335    4.45783873093003
H        -2.48228216776921    3.35130714394601    5.50818979218226
H        -2.35848812513377   -3.43929482721967   -4.82566538824562
H        -2.62027709817137   -5.46031390487988   -3.43357648013441
H        -2.87432218474919   -5.24970697682075   -0.98606586493946
H        -2.84791123562553   -3.02384482525646    0.06644553070688
H        -0.45584650458842   -1.95953724839850    0.42940315729257
H         0.36529097094537   -0.08444354461602   -2.45625752069980
H         0.73803573190875   -2.47904095644458    3.01560073705203
H         1.29978690510931   -4.88814660446299    2.98477189850837
H         2.78682256179889   -5.78091754971704    1.22690719761010
H         3.73172250941480   -4.26766433780611   -0.47871577202723

          :  Hamiltonian                  GFN2-xTB          :
         :: total energy            -124.959093940474 Eh    ::
         :: gradient norm              0.000183544256 Eh/a0 ::
         :: HOMO-LUMO gap              3.076320846410 eV    ::
         :: SCC energy              -126.874943919072 Eh    ::
         :: -> dispersion             -0.121344297293 Eh    ::
         :: repulsion energy           1.910814698420 Eh    ::

    * Orbital Energies and Occupations

         #    Occupation            Energy/Eh            Energy/eV
      -------------------------------------------------------------
         1        2.0000           -0.8420394             -22.9131
       ...           ...                  ...                  ...
       101        2.0000           -0.4251758             -11.5696
       102        2.0000           -0.4234964             -11.5239
       103        2.0000           -0.4190948             -11.4041
       104        2.0000           -0.4150522             -11.2941
       105        2.0000           -0.4143201             -11.2742
       106        2.0000           -0.4120036             -11.2112
       107        2.0000           -0.4119878             -11.2108
       108        2.0000           -0.4110841             -11.1862
       109        2.0000           -0.4094570             -11.1419
       110        2.0000           -0.4074343             -11.0869
       111        2.0000           -0.4064087             -11.0589
       112        2.0000           -0.3892668             -10.5925
       113        2.0000           -0.3885870             -10.5740 (HOMO)
       114                         -0.2755342              -7.4977 (LUMO)
       115                         -0.2714561              -7.3867
       116                         -0.2712416              -7.3809
       117                         -0.2641699              -7.1884
       118                         -0.2584080              -7.0316
       119                         -0.2567911              -6.9876
       120                         -0.2549011              -6.9362
       121                         -0.2410984              -6.5606
       122                         -0.2399805              -6.5302
       123                         -0.2392640              -6.5107
       124                         -0.2316694              -6.3040
       ...                                ...                  ...
       220                          0.6848440              18.6356
      -------------------------------------------------------------
                  HL-Gap            0.1130527 Eh            3.0763 eV

     #   Z          covCN         q      C6AA      Î±(0)
     1   6 C        2.922    -0.033    28.814     8.803
     2   6 C        2.915    -0.025    28.619     8.772
     3   6 C        2.917    -0.023    28.582     8.767
     4   6 C        2.917    -0.038    28.956     8.824
     5   6 C        2.983     0.010    27.783     8.646
     6   6 C        2.988     0.017    27.613     8.620
     7   6 C        2.920    -0.031    28.777     8.797
     8   6 C        2.912    -0.034    28.848     8.807
     9   6 C        2.919    -0.059    29.474     8.903
    10   6 C        2.963    -0.016    28.408     8.742
    11   6 C        3.832     0.037    19.930     6.352
    12   6 C        3.832     0.042    19.848     6.339
    13   6 C        2.968    -0.005    28.134     8.700
    14   6 C        2.920    -0.032    28.802     8.801
    15   6 C        2.914    -0.030    28.756     8.793
    16   6 C        2.920    -0.034    28.840     8.807
    17   6 C        2.988     0.018    27.606     8.619
    18   6 C        2.986     0.008    27.828     8.653
    19   6 C        2.917    -0.037    28.932     8.820
    20   6 C        2.917    -0.026    28.655     8.778
    21   6 C        2.915    -0.027    28.672     8.781
    22   6 C        2.921    -0.032    28.794     8.800
    23   7 N        2.772    -0.128    23.784     7.243
    24   6 C        2.765     0.278    22.303     7.734
    25   6 C        3.047    -0.029    28.678     8.783
    26   6 C        2.920     0.084    26.129     8.382
    27  35 Br       1.080    -0.146   189.067    22.170
    28   6 C        2.999    -0.027    28.654     8.781
    29   6 C        2.924    -0.019    28.488     8.753
    30   6 C        2.918    -0.022    28.557     8.763
    31   6 C        2.926    -0.024    28.606     8.771
    32   8 O        0.859    -0.409    21.854     6.268
    33   6 C        3.756     0.081    19.290     6.262
    34   6 C        2.684     0.352    21.027     7.504
    35   8 O        1.657    -0.343    19.779     6.004
    36   8 O        0.857    -0.385    21.384     6.200
    37   7 N        2.772    -0.130    23.825     7.250
    38   6 C        2.769     0.283    22.209     7.718
    39   6 C        3.046    -0.025    28.581     8.768
    40   6 C        2.924    -0.024    28.605     8.771
    41   6 C        2.918    -0.027    28.669     8.780
    42   6 C        2.923    -0.021    28.542     8.761
    43   6 C        2.992    -0.024    28.602     8.773
    44   6 C        2.920     0.084    26.134     8.383
    45  35 Br       1.071    -0.156   189.368    22.188
    46   8 O        0.858    -0.406    21.810     6.261
    47   1 H        0.926     0.038     2.474     2.460
    48   1 H        0.926     0.037     2.483     2.464
    49   1 H        0.926     0.041     2.439     2.442
    50   1 H        0.926     0.061     2.188     2.313
    51   1 H        0.926     0.044     2.398     2.422
    52   1 H        0.926     0.050     2.315     2.379
    53   1 H        0.926     0.047     2.364     2.404
    54   1 H        0.924     0.086     1.923     2.168
    55   1 H        0.924     0.082     1.956     2.187
    56   1 H        0.926     0.018     2.759     2.597
    57   1 H        0.926     0.033     2.544     2.494
    58   1 H        0.926     0.038     2.472     2.459
    59   1 H        0.926     0.031     2.579     2.511
    60   1 H        0.926     0.036     2.500     2.473
    61   1 H        0.926     0.036     2.497     2.471
    62   1 H        0.926     0.037     2.487     2.466
    63   1 H        0.926     0.063     2.164     2.301
    64   1 H        0.926     0.054     2.272     2.357
    65   1 H        0.926     0.051     2.309     2.376
    66   1 H        0.926     0.037     2.484     2.465
    67   1 H        0.923     0.050     2.321     2.383
    68   1 H        0.802     0.346     0.598     1.215
    69   1 H        0.926     0.048     2.346     2.395
    70   1 H        0.926     0.051     2.310     2.377
    71   1 H        0.926     0.054     2.267     2.355
    72   1 H        0.926     0.066     2.126     2.280

Wiberg/Mayer (AO) data.
largest (>0.10) Wiberg bond orders for each atom

     #   Z sym  total        # sym  WBO       # sym  WBO       # sym  WBO
 ---------------------------------------------------------------------------
     1   6 C    3.991 --     2 C    1.555     6 C    1.281    47 H    0.968
                             4 C    0.119
     2   6 C    3.991 --     1 C    1.555     3 C    1.325    48 H    0.970
     3   6 C    3.991 --     4 C    1.551     2 C    1.325    49 H    0.970
     4   6 C    3.989 --     3 C    1.551     5 C    1.286    50 H    0.954
                             1 C    0.119
     5   6 C    3.988 --     4 C    1.286     6 C    1.250    10 C    1.250
     6   6 C    3.990 --     1 C    1.281     7 C    1.278     5 C    1.250
     7   6 C    3.989 --     8 C    1.558     6 C    1.278    51 H    0.967
                            10 C    0.112
     8   6 C    3.990 --     7 C    1.558     9 C    1.308    52 H    0.968
     9   6 C    3.990 --    10 C    1.500     8 C    1.308    53 H    0.957
    10   6 C    3.983 --     9 C    1.500     5 C    1.250    11 C    0.984
                             7 C    0.112
    11   6 C    3.956 --    10 C    0.984    12 C    0.963    54 H    0.943
                            37 N    0.943
    12   6 C    3.959 --    13 C    0.984    11 C    0.963    23 N    0.957
                            55 H    0.940
    13   6 C    3.984 --    14 C    1.534    18 C    1.245    12 C    0.984
                            16 C    0.114
    14   6 C    3.991 --    13 C    1.534    15 C    1.318    56 H    0.965
    15   6 C    3.992 --    16 C    1.560    14 C    1.318    57 H    0.971
    16   6 C    3.991 --    15 C    1.560    17 C    1.275    58 H    0.968
                            13 C    0.114
    17   6 C    3.990 --    22 C    1.280    16 C    1.275    18 C    1.257
    18   6 C    3.989 --    19 C    1.285    17 C    1.257    13 C    1.245
    19   6 C    3.992 --    20 C    1.553    18 C    1.285    59 H    0.966
                            22 C    0.119
    20   6 C    3.992 --    19 C    1.553    21 C    1.324    60 H    0.971
    21   6 C    3.992 --    22 C    1.556    20 C    1.324    61 H    0.971
    22   6 C    3.991 --    21 C    1.556    17 C    1.280    62 H    0.968
                            19 C    0.119
    23   7 N    3.463 --    24 C    1.207    33 C    0.981    12 C    0.957
                            32 O    0.195
    24   6 C    3.949 --    32 O    1.701    23 N    1.207    25 C    0.955
    25   6 C    3.987 --    31 C    1.400    26 C    1.380    24 C    0.955
                            29 C    0.107
    26   6 C    3.945 --    28 C    1.413    25 C    1.380    27 Br   0.986
    27  35 Br   1.140 --    26 C    0.986
    28   6 C    3.989 --    29 C    1.440    26 C    1.413    63 H    0.967
                            31 C    0.109
    29   6 C    3.990 --    28 C    1.440    30 C    1.431    64 H    0.968
                            25 C    0.107
    30   6 C    3.991 --    31 C    1.444    29 C    1.431    65 H    0.969
    31   6 C    3.991 --    30 C    1.444    25 C    1.400    66 H    0.967
                            28 C    0.109
    32   8 O    2.037 --    24 C    1.701    23 N    0.195
    33   6 C    3.964 --    23 N    0.981    37 N    0.980    67 H    0.944
                            34 C    0.897
    34   6 C    3.929 --    36 O    1.762    35 O    1.202    33 C    0.897
    35   8 O    2.263 --    34 C    1.202    68 H    0.794    36 O    0.179
    36   8 O    2.057 --    34 C    1.762    35 O    0.179
    37   7 N    3.443 --    38 C    1.194    33 C    0.980    11 C    0.943
                            46 O    0.185
    38   6 C    3.946 --    46 O    1.708    37 N    1.194    39 C    0.957
    39   6 C    3.986 --    40 C    1.405    44 C    1.378    38 C    0.957
                            42 C    0.107
    40   6 C    3.989 --    41 C    1.439    39 C    1.405    69 H    0.968
                            43 C    0.109
    41   6 C    3.991 --    40 C    1.439    42 C    1.435    70 H    0.969
                            44 C    0.101
    42   6 C    3.990 --    43 C    1.438    41 C    1.435    71 H    0.968
                            39 C    0.107
    43   6 C    3.988 --    42 C    1.438    44 C    1.413    72 H    0.966
                            40 C    0.109
    44   6 C    3.942 --    43 C    1.413    39 C    1.378    45 Br   0.985
                            41 C    0.101
    45  35 Br   1.137 --    44 C    0.985
    46   8 O    2.044 --    38 C    1.708    37 N    0.185
    47   1 H    0.998 --     1 C    0.968
    48   1 H    0.998 --     2 C    0.970
    49   1 H    0.998 --     3 C    0.970
    50   1 H    0.996 --     4 C    0.954
    51   1 H    0.997 --     7 C    0.967
    52   1 H    0.996 --     8 C    0.968
    53   1 H    0.997 --     9 C    0.957
    54   1 H    0.991 --    11 C    0.943
    55   1 H    0.992 --    12 C    0.940
    56   1 H    0.999 --    14 C    0.965
    57   1 H    0.998 --    15 C    0.971
    58   1 H    0.997 --    16 C    0.968
    59   1 H    0.999 --    19 C    0.966
    60   1 H    0.998 --    20 C    0.971
    61   1 H    0.998 --    21 C    0.971
    62   1 H    0.998 --    22 C    0.968
    63   1 H    0.996 --    28 C    0.967
    64   1 H    0.997 --    29 C    0.968
    65   1 H    0.996 --    30 C    0.969
    66   1 H    0.999 --    31 C    0.967
    67   1 H    0.997 --    33 C    0.944
    68   1 H    0.880 --    35 O    0.794
    69   1 H    0.998 --    40 C    0.968
    70   1 H    0.996 --    41 C    0.969
    71   1 H    0.997 --    42 C    0.968
    72   1 H    0.995 --    43 C    0.966
 ---------------------------------------------------------------------------

molecular dipole:
                 x           y           z       tot (Debye)
 q only:        0.324      -0.157       0.664
   full:       -0.101      -1.042       1.413       4.470

           -------------------------------------------------
          | TOTAL ENERGY             -124.959093940474 Eh   |
          | GRADIENT NORM               0.000183544256 Eh/Î± |
          | HOMO-LUMO GAP               3.076320846410 eV   |
           -------------------------------------------------

 * finished run on 2022/03/17 at 02:10:51.892
