   * xtb version 6.3.3 (4ae9cef) compiled by 'conda@95abc7406d43' on 2020-10-14
          program call               : xtb acid_214.xyz --opt --chrg 0 --uhf 0 --gfn 2
          number of atoms            :                    66
          number of electrons        :                   194
          charge                     :                     0
          spin                       :                   0.0

   ID    Z sym.   atoms
    1    6 C      1-14, 16-19, 21-23, 25, 26, 30-33, 35-37
    2    7 N      15, 29
    3    8 O      20, 24, 27, 28, 34, 38
    4    1 H      39-66

          :  Hamiltonian                  GFN2-xTB          :
 * total energy  :  -108.8165588 Eh     change       -0.1783349E-08 Eh
 * total energy  :  -108.8279396 Eh     change       -0.1138081E-01 Eh
 * total energy  :  -108.8311887 Eh     change       -0.3249171E-02 Eh
 * total energy  :  -108.8324185 Eh     change       -0.1229777E-02 Eh
 * total energy  :  -108.8334226 Eh     change       -0.1004033E-02 Eh
 * total energy  :  -108.8340702 Eh     change       -0.6476439E-03 Eh
 * total energy  :  -108.8345468 Eh     change       -0.4765963E-03 Eh
 * total energy  :  -108.8349783 Eh     change       -0.4315310E-03 Eh
 * total energy  :  -108.8353777 Eh     change       -0.3993643E-03 Eh
 * total energy  :  -108.8357029 Eh     change       -0.3252432E-03 Eh
 * total energy  :  -108.8387121 Eh     change       -0.2174819E-04 Eh
 * total energy  :  -108.8387348 Eh     change       -0.2273665E-04 Eh
 * total energy  :  -108.8387540 Eh     change       -0.1918961E-04 Eh
 * total energy  :  -108.8387725 Eh     change       -0.1848113E-04 Eh
 * total energy  :  -108.8387816 Eh     change       -0.9064427E-05 Eh
 * total energy  :  -108.8387920 Eh     change       -0.1046179E-04 Eh
 * total energy  :  -108.8387993 Eh     change       -0.7284208E-05 Eh
 * total energy  :  -108.8388052 Eh     change       -0.5922881E-05 Eh
 * total energy  :  -108.8388098 Eh     change       -0.4583956E-05 Eh
   *** GEOMETRY OPTIMIZATION CONVERGED AFTER 44 ITERATIONS ***

 final structure:
================
66
 xtb: 6.3.3 (4ae9cef)
C        -1.39255747569524   -3.31170492079678   -0.87680594733187
C        -1.88107569455970   -3.94778396795511   -2.00437946333676
C        -2.19641092960750   -3.21327170511076   -3.13445014433600
C        -2.01957966449027   -1.83986702768526   -3.13417828381090
C        -1.52694997198818   -1.20161900018534   -2.01038572539929
C        -1.21576522706574   -1.93619853873901   -0.87275937681171
C        -0.64900121539883   -1.24366458803612    0.34298931959242
C         0.80798423049163   -0.79409411357055    0.09808932090115
C         1.78125609443374   -1.28626679930794    1.14011690216281
C         1.67695610558948   -0.87221569863806    2.46209037646153
C         2.59044015058361   -1.30759355442412    3.40530351882405
C         3.61550193590227   -2.16299385420391    3.03708564227577
C         3.72113495162159   -2.58474973651647    1.72247468236545
C         2.80860585943715   -2.14739485261034    0.77881045160889
N         0.72442253195769    0.65345297828735    0.08842111699370
C         1.62779934076043    1.51293716928120   -0.43166771400446
C         2.83710481531475    0.86923088666760   -0.99009926241526
C         4.06720626975143    0.76441580328473   -0.40350207763853
C         4.54825893565018    1.20870109408007    0.92961054413629
O         4.91165137274058    0.11665203213939   -1.22872499932891
C         4.22950568841605   -0.18381682873884   -2.35286322741221
C         2.94152604091665    0.25113829468180   -2.27583353039848
C         1.85616299661055    0.13797442564700   -3.29030409721815
O         1.42090757703475    2.71309447949418   -0.42072973309525
C        -0.52412641938418    1.15523552566851    0.61476590404260
C        -1.02938609976896    2.28099092874281   -0.31169102490715
O        -1.21106397622825    3.41568032220119    0.34556863049370
O        -1.25429489166487    2.12444726103991   -1.48202064541986
N        -1.36588801824587   -0.01128575301378    0.64623889687037
C        -2.71550644160409   -0.02949661058742    0.80901367468749
C        -3.33007205461727    1.30704526260167    0.98445944543666
C        -4.08814911282463    1.95531809770189    0.04559724436698
C        -4.40325166842995    1.58299047044569   -1.35573572839717
O        -4.52618855407339    3.12722861756180    0.54258712827420
C        -4.07481412513268    3.22328095509319    1.81064937485983
C        -3.33050144735771    2.13508443148776    2.14919564377501
C        -2.65688585477845    1.85042844716439    3.44638240754047
O        -3.34454784862735   -1.06656209821498    0.80413511523009
H        -1.15534923821671   -3.88421975521010    0.00810686295780
H        -2.02183141943963   -5.01856593761783   -1.99784564513156
H        -2.58375285089313   -3.70952442744175   -4.01208884717328
H        -2.26695668149199   -1.26085390346361   -4.01167589158903
H        -1.39716358416038   -0.12953893251680   -2.01452598170463
H        -0.71360760764962   -1.91730031071126    1.20692119578324
H         1.13766127254498   -1.14475878222058   -0.88503477881629
H         0.87925123125713   -0.20622952333128    2.75509782666935
H         2.50311724743530   -0.97768791414731    4.42976924926253
H         4.33019023316906   -2.49963584617780    3.77304485636289
H         4.51834009826447   -3.25131835934835    1.42972886580193
H         2.89523267848347   -2.47346206605249   -0.24769183075733
H         3.89545896059662    1.99027774762767    1.30774686913529
H         4.54832166390305    0.37643172565353    1.63457455425102
H         5.56377036973509    1.58992220069020    0.84981497547137
H         4.76423497972021   -0.69104948258061   -3.13073215977521
H         1.09718721089869    0.89567065954264   -3.11074350009045
H         1.37720834742440   -0.84176422753662   -3.24765794569881
H         2.25894011133978    0.26958329855771   -4.29176085139661
H        -0.38887745633076    1.59614449301212    1.61801780344245
H        -1.44262728276630    4.13437621878724   -0.26414730899184
H        -5.29525976423116    2.10706237174558   -1.68797975281053
H        -4.55632071670025    0.50853093113863   -1.42293889026036
H        -3.57144317261152    1.85031357167272   -2.01052245570539
H        -4.35119285114738    4.09720987427866    2.36522486713941
H        -2.50039665304920    0.78031129470294    3.56133336627170
H        -1.69129809756563    2.35527301302527    3.49418805452231
H        -3.26324123419723    2.21005523298177    4.27432013319343

          :  Hamiltonian                  GFN2-xTB          :
         :: total energy            -108.838809823471 Eh    ::
         :: gradient norm              0.000381257313 Eh/a0 ::
         :: HOMO-LUMO gap              3.544930527475 eV    ::
         :: SCC energy              -110.382822256975 Eh    ::
         :: -> dispersion             -0.093855983091 Eh    ::
         :: repulsion energy           1.540251579447 Eh    ::

    * Orbital Energies and Occupations

         #    Occupation            Energy/Eh            Energy/eV
      -------------------------------------------------------------
         1        2.0000           -0.7568978             -20.5962
       ...           ...                  ...                  ...
        85        2.0000           -0.4246721             -11.5559
        86        2.0000           -0.4232258             -11.5166
        87        2.0000           -0.4213823             -11.4664
        88        2.0000           -0.4184482             -11.3866
        89        2.0000           -0.4148852             -11.2896
        90        2.0000           -0.4105548             -11.1718
        91        2.0000           -0.4070493             -11.0764
        92        2.0000           -0.4045001             -11.0070
        93        2.0000           -0.4032773             -10.9737
        94        2.0000           -0.3934500             -10.7063
        95        2.0000           -0.3926476             -10.6845
        96        2.0000           -0.3879315             -10.5562
        97        2.0000           -0.3817374             -10.3876 (HOMO)
        98                         -0.2514636              -6.8427 (LUMO)
        99                         -0.2451339              -6.6704
       100                         -0.2415728              -6.5735
       101                         -0.2279368              -6.2025
       102                         -0.2234328              -6.0799
       103                         -0.2228290              -6.0635
       104                         -0.2196571              -5.9772
       105                         -0.2147467              -5.8436
       106                         -0.2073091              -5.6412
       107                         -0.1687979              -4.5932
       108                         -0.1609710              -4.3802
       ...                                ...                  ...
       180                          0.6817758              18.5521
      -------------------------------------------------------------
                  HL-Gap            0.1302738 Eh            3.5449 eV

     #   Z          covCN         q      C6AA      Î±(0)
     1   6 C        2.923    -0.030    28.760     8.795
     2   6 C        2.920    -0.027    28.672     8.781
     3   6 C        2.920    -0.030    28.745     8.792
     4   6 C        2.920    -0.028    28.701     8.785
     5   6 C        2.923    -0.037    28.916     8.818
     6   6 C        2.975     0.009    27.813     8.651
     7   6 C        3.822     0.047    19.775     6.328
     8   6 C        3.816     0.034    19.997     6.364
     9   6 C        2.972    -0.002    28.061     8.689
    10   6 C        2.924    -0.032    28.803     8.801
    11   6 C        2.919    -0.028    28.707     8.786
    12   6 C        2.920    -0.030    28.743     8.792
    13   6 C        2.919    -0.026    28.658     8.779
    14   6 C        2.924    -0.033    28.825     8.805
    15   7 N        2.774    -0.104    23.285     7.167
    16   6 C        2.762     0.277    22.317     7.736
    17   6 C        3.086    -0.070    29.643     8.925
    18   6 C        3.084     0.117    25.340     8.252
    19   6 C        3.753    -0.117    22.799     6.809
    20   8 O        1.730    -0.188    17.142     5.590
    21   6 C        3.062     0.050    26.829     8.494
    22   6 C        3.044    -0.015    28.332     8.730
    23   6 C        3.753    -0.107    22.604     6.780
    24   8 O        0.860    -0.437    22.426     6.349
    25   6 C        3.756     0.098    19.012     6.217
    26   6 C        2.689     0.370    20.731     7.451
    27   8 O        1.660    -0.355    19.994     6.036
    28   8 O        0.856    -0.406    21.801     6.260
    29   7 N        2.766    -0.115    23.510     7.201
    30   6 C        2.760     0.276    22.325     7.738
    31   6 C        3.083    -0.079    29.870     8.960
    32   6 C        3.087     0.120    25.270     8.240
    33   6 C        3.753    -0.121    22.872     6.820
    34   8 O        1.729    -0.190    17.175     5.596
    35   6 C        3.061     0.050    26.816     8.492
    36   6 C        3.045    -0.015    28.331     8.730
    37   6 C        3.754    -0.106    22.583     6.776
    38   8 O        0.859    -0.424    22.166     6.312
    39   1 H        0.926     0.033     2.549     2.497
    40   1 H        0.926     0.035     2.510     2.477
    41   1 H        0.926     0.034     2.530     2.487
    42   1 H        0.926     0.036     2.497     2.471
    43   1 H        0.926     0.054     2.271     2.357
    44   1 H        0.924     0.058     2.221     2.331
    45   1 H        0.924     0.061     2.184     2.311
    46   1 H        0.926     0.035     2.520     2.482
    47   1 H        0.926     0.039     2.457     2.451
    48   1 H        0.926     0.039     2.461     2.453
    49   1 H        0.926     0.041     2.438     2.442
    50   1 H        0.926     0.033     2.543     2.494
    51   1 H        0.925     0.061     2.193     2.316
    52   1 H        0.924     0.059     2.216     2.328
    53   1 H        0.925     0.069     2.093     2.262
    54   1 H        0.926     0.051     2.304     2.374
    55   1 H        0.925     0.060     2.199     2.319
    56   1 H        0.924     0.044     2.395     2.420
    57   1 H        0.925     0.050     2.319     2.381
    58   1 H        0.923     0.061     2.187     2.313
    59   1 H        0.804     0.347     0.595     1.212
    60   1 H        0.925     0.066     2.134     2.284
    61   1 H        0.925     0.067     2.118     2.276
    62   1 H        0.924     0.076     2.020     2.222
    63   1 H        0.926     0.051     2.313     2.378
    64   1 H        0.925     0.048     2.350     2.397
    65   1 H        0.924     0.046     2.371     2.408
    66   1 H        0.925     0.050     2.319     2.381

Wiberg/Mayer (AO) data.
largest (>0.10) Wiberg bond orders for each atom

     #   Z sym  total        # sym  WBO       # sym  WBO       # sym  WBO
 ---------------------------------------------------------------------------
     1   6 C    3.990 --     2 C    1.442     6 C    1.416    39 H    0.969
                             4 C    0.111
     2   6 C    3.992 --     1 C    1.442     3 C    1.441    40 H    0.971
                             5 C    0.112
     3   6 C    3.991 --     2 C    1.441     4 C    1.437    41 H    0.971
                             6 C    0.109
     4   6 C    3.992 --     5 C    1.447     3 C    1.437    42 H    0.971
                             1 C    0.111
     5   6 C    3.990 --     4 C    1.447     6 C    1.410    43 H    0.962
                             2 C    0.112
     6   6 C    3.985 --     1 C    1.416     5 C    1.410     7 C    0.986
                             3 C    0.109
     7   6 C    3.964 --     6 C    0.986    29 N    0.958    44 H    0.955
                             8 C    0.954
     8   6 C    3.964 --     9 C    0.986    15 N    0.963     7 C    0.954
                            45 H    0.951
     9   6 C    3.986 --    14 C    1.414    10 C    1.412     8 C    0.986
                            12 C    0.110
    10   6 C    3.991 --    11 C    1.446     9 C    1.412    46 H    0.968
                            13 C    0.112
    11   6 C    3.992 --    10 C    1.446    12 C    1.437    47 H    0.971
                            14 C    0.111
    12   6 C    3.990 --    13 C    1.439    11 C    1.437    48 H    0.971
                             9 C    0.110
    13   6 C    3.992 --    14 C    1.443    12 C    1.439    49 H    0.970
                            10 C    0.112
    14   6 C    3.991 --    13 C    1.443     9 C    1.414    50 H    0.968
                            11 C    0.111
    15   7 N    3.481 --    16 C    1.228    25 C    0.976     8 C    0.963
                            24 O    0.190
    16   6 C    3.943 --    24 O    1.656    15 N    1.228    17 C    0.974
    17   6 C    3.971 --    18 C    1.542    22 C    1.221    16 C    0.974
    18   6 C    3.917 --    17 C    1.542    20 O    1.127    19 C    1.030
                            21 C    0.138
    19   6 C    3.993 --    18 C    1.030    51 H    0.981    53 H    0.974
                            52 H    0.964
    20   8 O    2.435 --    18 C    1.127    21 C    1.113
    21   6 C    3.897 --    22 C    1.592    20 O    1.113    54 H    0.966
                            18 C    0.138
    22   6 C    3.981 --    21 C    1.592    17 C    1.221    23 C    1.031
    23   6 C    3.995 --    22 C    1.031    55 H    0.981    57 H    0.979
                            56 H    0.967
    24   8 O    2.025 --    16 C    1.656    15 N    0.190
    25   6 C    3.967 --    29 N    0.989    15 N    0.976    58 H    0.940
                            26 C    0.910
    26   6 C    3.922 --    28 O    1.743    27 O    1.164    25 C    0.910
    27   8 O    2.225 --    26 C    1.164    59 H    0.854    28 O    0.174
    28   8 O    2.044 --    26 C    1.743    27 O    0.174
    29   7 N    3.461 --    30 C    1.202    25 C    0.989     7 C    0.958
                            38 O    0.190
    30   6 C    3.947 --    38 O    1.691    29 N    1.202    31 C    0.973
    31   6 C    3.971 --    32 C    1.526    36 C    1.226    30 C    0.973
    32   6 C    3.917 --    31 C    1.526    34 O    1.129    33 C    1.034
                            35 C    0.137
    33   6 C    3.991 --    32 C    1.034    60 H    0.979    61 H    0.974
                            62 H    0.954
    34   8 O    2.433 --    32 C    1.129    35 C    1.111
    35   6 C    3.897 --    36 C    1.593    34 O    1.111    63 H    0.966
                            32 C    0.137
    36   6 C    3.981 --    35 C    1.593    31 C    1.226    37 C    1.030
    37   6 C    3.996 --    36 C    1.030    64 H    0.983    66 H    0.980
                            65 H    0.968
    38   8 O    2.018 --    30 C    1.691    29 N    0.190
    39   1 H    0.999 --     1 C    0.969
    40   1 H    0.998 --     2 C    0.971
    41   1 H    0.998 --     3 C    0.971
    42   1 H    0.998 --     4 C    0.971
    43   1 H    0.997 --     5 C    0.962
    44   1 H    0.996 --     7 C    0.955
    45   1 H    0.996 --     8 C    0.951
    46   1 H    0.999 --    10 C    0.968
    47   1 H    0.998 --    11 C    0.971
    48   1 H    0.998 --    12 C    0.971
    49   1 H    0.998 --    13 C    0.970
    50   1 H    0.999 --    14 C    0.968
    51   1 H    0.996 --    19 C    0.981
    52   1 H    0.996 --    19 C    0.964
    53   1 H    0.995 --    19 C    0.974
    54   1 H    0.996 --    21 C    0.966
    55   1 H    0.996 --    23 C    0.981
    56   1 H    0.998 --    23 C    0.967
    57   1 H    0.997 --    23 C    0.979
    58   1 H    0.996 --    25 C    0.940
    59   1 H    0.879 --    27 O    0.854
    60   1 H    0.995 --    33 C    0.979
    61   1 H    0.995 --    33 C    0.974
    62   1 H    0.994 --    33 C    0.954
    63   1 H    0.996 --    35 C    0.966
    64   1 H    0.998 --    37 C    0.983
    65   1 H    0.998 --    37 C    0.968
    66   1 H    0.997 --    37 C    0.980
 ---------------------------------------------------------------------------

molecular dipole:
                 x           y           z       tot (Debye)
 q only:        1.110      -0.546       0.480
   full:        1.209      -0.348       0.557       3.498

           -------------------------------------------------
          | TOTAL ENERGY             -108.838809823471 Eh   |
          | GRADIENT NORM               0.000381257313 Eh/Î± |
          | HOMO-LUMO GAP               3.544930527475 eV   |
           -------------------------------------------------

 * finished run on 2022/03/16 at 22:36:57.570
