   * xtb version 6.3.3 (4ae9cef) compiled by 'conda@95abc7406d43' on 2020-10-14
          program call               : xtb acid_448.xyz --opt --chrg 0 --uhf 0 --gfn 2
          number of atoms            :                    92
          number of electrons        :                   250
          charge                     :                     0
          spin                       :                   0.0

   ID    Z sym.   atoms
    1    6 C      1, 3-16, 18, 20-30, 32, 33, 37-47
    2    8 O      2, 17, 31, 34, 35, 48
    3    7 N      19, 36
    4    1 H      49-92

          :  Hamiltonian                  GFN2-xTB          :
 * total energy  :  -138.3708060 Eh     change       -0.3295838E-08 Eh
 * total energy  :  -138.3901429 Eh     change       -0.1933692E-01 Eh
 * total energy  :  -138.3970868 Eh     change       -0.6943864E-02 Eh
 * total energy  :  -138.3992917 Eh     change       -0.2204966E-02 Eh
 * total energy  :  -138.4006267 Eh     change       -0.1334929E-02 Eh
 * total energy  :  -138.4014582 Eh     change       -0.8315269E-03 Eh
 * total energy  :  -138.4020624 Eh     change       -0.6042306E-03 Eh
 * total energy  :  -138.4026330 Eh     change       -0.5705889E-03 Eh
 * total energy  :  -138.4032170 Eh     change       -0.5840329E-03 Eh
 * total energy  :  -138.4037958 Eh     change       -0.5787149E-03 Eh
 * total energy  :  -138.4113621 Eh     change       -0.7153609E-05 Eh
 * total energy  :  -138.4113720 Eh     change       -0.9900743E-05 Eh
 * total energy  :  -138.4113845 Eh     change       -0.1249082E-04 Eh
 * total energy  :  -138.4113938 Eh     change       -0.9228728E-05 Eh
 * total energy  :  -138.4114020 Eh     change       -0.8218999E-05 Eh
 * total energy  :  -138.4114105 Eh     change       -0.8498827E-05 Eh
 * total energy  :  -138.4114174 Eh     change       -0.6867428E-05 Eh
 * total energy  :  -138.4114224 Eh     change       -0.5090904E-05 Eh
 * total energy  :  -138.4114271 Eh     change       -0.4641915E-05 Eh
   *** GEOMETRY OPTIMIZATION CONVERGED AFTER 54 ITERATIONS ***

 final structure:
================
92
 xtb: 6.3.3 (4ae9cef)
C         2.52135321323723    2.49301158815817   -0.31083480246969
O         2.54219795455080    1.96252545661836    0.94516320752896
C         3.59912054550694    2.30948713592321    1.80572133090039
C         3.44318139619235    3.42014668488631   -0.78013283932594
C         3.34856665529200    3.90695874496511   -2.07237925320403
C         2.33786525749890    3.47853381317858   -2.91089122198055
C         1.41810362624037    2.55387305164833   -2.44862075960711
C         1.49735990059079    2.04937399591488   -1.16129519090985
C         0.49253515140427    1.05801005781262   -0.64488509016916
C        -0.94607138152170    1.61295652864381   -0.68791229005811
C        -1.27698605283853    2.51297587949807    0.46721233991542
C        -1.61034962655352    3.83100085437733    0.20157656785045
C        -1.90529836693266    4.72241092612325    1.21784727921251
C        -1.87260329208091    4.28617482368811    2.52675415409097
C        -1.53541540636117    2.97581614216713    2.81759470707975
C        -1.22633172907132    2.08042082317971    1.80113962747516
O        -0.86588297161182    0.78471535422643    2.01925550947032
C        -0.85808800495488    0.30941178974875    3.34442661597783
N        -1.74866450652396    0.40288836213635   -0.82676256212025
C        -3.00016930545575    0.21024708976463   -0.33566018471035
C        -3.70530854475238   -0.97621734151273   -0.93083612187154
C        -3.97826665340442   -2.20690784118803   -0.32306585041391
C        -3.53587542891234   -2.52566981555561    1.09945004563263
C        -4.29530842716959   -1.61031771813175    2.07085778326098
C        -2.02459715014826   -2.31044691878996    1.24264321969306
C        -3.82847959097550   -3.97792387819270    1.49758616600618
C        -4.69477867849922   -3.13502170362105   -1.07478899611375
C        -5.14192184373261   -2.86562627511656   -2.35512325633777
C        -4.89611127375288   -1.63437439603414   -2.93046109876700
C        -4.17865552267706   -0.70039724280866   -2.21169945738078
O        -3.54812513658160    1.00505962266534    0.40025528585995
C        -1.01158713202733   -0.53791235835924   -1.62667922428946
C        -1.33947847219292   -0.46545070006743   -3.12953761819278
O        -1.22673657385830    0.77435655860726   -3.62111205203731
O        -1.64386126269190   -1.40511863756132   -3.80383304994384
N         0.38291562847099   -0.17794577715039   -1.41745171797294
C         1.33085893278632   -1.15214871135900   -1.52003200026575
C         2.73821009362871   -0.68367539777439   -1.31139875386166
C         3.23149259991864    0.05181405065176   -2.38595901775741
C         4.51275898721113    0.56332192020127   -2.37885179698614
C         5.31051352617128    0.33682261759872   -1.27385297985248
C         4.84045868634191   -0.43426469862022   -0.22661798990193
C         3.55925663922774   -0.98208178800989   -0.21812384980705
C         3.12695525335411   -1.92951212062010    0.89332687476107
C         4.10177071623350   -1.93314688109254    2.07825488669161
C         3.08753655009654   -3.34734765382809    0.30227791201405
C         1.74736244970790   -1.55658473233131    1.44451954632237
O         1.04100734012193   -2.27154348458957   -1.89722411614435
H         3.42882276846005    1.74462469417300    2.72141813187581
H         4.56705778499045    2.02751107064051    1.37991412101630
H         3.59496474991763    3.37880503194987    2.03947436920715
H         4.24313360975573    3.76946575737685   -0.14741673864204
H         4.07501546240039    4.62649094726389   -2.41940547338316
H         2.26656497083406    3.85925031839732   -3.91817493984849
H         0.63393465903853    2.20149691730583   -3.10117864957465
H         0.74866838230969    0.80884304245486    0.38766573984070
H        -1.07085731747653    2.19547795126661   -1.61147566928351
H        -1.64512616574228    4.16446737289236   -0.82556889882665
H        -2.16684515954957    5.74306307032952    0.98523142593417
H        -2.11224890850906    4.96212486501657    3.33416736659889
H        -1.52435959126978    2.66017155696268    3.84839763147406
H        -1.85664284262748    0.35435262328254    3.78870875651488
H        -0.53525900340256   -0.72783521229117    3.28331680616822
H        -0.15223715339879    0.86942380417031    3.96661917251424
H        -5.36594439901481   -1.78762814048015    1.98990432842452
H        -4.11032088774208   -0.56276980962332    1.85764288151339
H        -3.98839320639171   -1.81858786028184    3.09435525987174
H        -1.48569244246371   -2.90255146953188    0.50429286574801
H        -1.70180984382117   -2.63390910131985    2.23069771616407
H        -1.76189588805870   -1.26428253729862    1.12780144498979
H        -3.46252283705984   -4.14989511594291    2.50822164676629
H        -3.32384723201366   -4.67738672842033    0.83479373208020
H        -4.89597482677604   -4.18445261706013    1.49579238231741
H        -4.92044647515404   -4.10294577062500   -0.66055740876074
H        -5.69087105954643   -3.62037042807339   -2.89842946576191
H        -5.25192990106415   -1.40512826468178   -3.92303283851096
H        -3.99047015006682    0.27741974563845   -2.63523383789512
H        -1.19188680446728   -1.57986328410397   -1.32745627272066
H        -1.42960328948632    0.77507951274702   -4.57180557193054
H         2.59378300084130    0.21272650919156   -3.24250451353072
H         4.87722634698095    1.13392964956600   -3.21903662465646
H         6.31175567854881    0.74142462170938   -1.23234785471030
H         5.50764696174109   -0.61587273468984    0.59965973952281
H         4.22029922113831   -0.93441509120929    2.49330773721332
H         3.70891944109969   -2.57946098691051    2.86068454101085
H         5.07604475368858   -2.32246827705063    1.79338513438012
H         4.06946495934196   -3.62424240195439   -0.07656518080456
H         2.79821436653488   -4.06318826525117    1.06903608638960
H         2.37688287107895   -3.40796629827733   -0.51626330747518
H         1.75144131590728   -0.53083627174091    1.80570140374627
H         0.97393278106120   -1.66747727943439    0.69272733154761
H         1.49497953094022   -2.21529391613272    2.27369857619835

          :  Hamiltonian                  GFN2-xTB          :
         :: total energy            -138.411427085408 Eh    ::
         :: gradient norm              0.000325514346 Eh/a0 ::
         :: HOMO-LUMO gap              3.140745776351 eV    ::
         :: SCC energy              -140.446646462741 Eh    ::
         :: -> dispersion             -0.136612959473 Eh    ::
         :: repulsion energy           2.027044678897 Eh    ::

    * Orbital Energies and Occupations

         #    Occupation            Energy/Eh            Energy/eV
      -------------------------------------------------------------
         1        2.0000           -0.7638088             -20.7843
       ...           ...                  ...                  ...
       113        2.0000           -0.4157888             -11.3142
       114        2.0000           -0.4119365             -11.2094
       115        2.0000           -0.4055356             -11.0352
       116        2.0000           -0.4018457             -10.9348
       117        2.0000           -0.3996680             -10.8755
       118        2.0000           -0.3977943             -10.8245
       119        2.0000           -0.3973698             -10.8130
       120        2.0000           -0.3930102             -10.6944
       121        2.0000           -0.3902191             -10.6184
       122        2.0000           -0.3879387             -10.5563
       123        2.0000           -0.3868812             -10.5276
       124        2.0000           -0.3861208             -10.5069
       125        2.0000           -0.3717772             -10.1166 (HOMO)
       126                         -0.2563570              -6.9758 (LUMO)
       127                         -0.2375268              -6.4634
       128                         -0.2322024              -6.3185
       129                         -0.2268047              -6.1717
       130                         -0.2251794              -6.1274
       131                         -0.2241745              -6.1001
       132                         -0.2223393              -6.0502
       133                         -0.2174286              -5.9165
       134                         -0.2127234              -5.7885
       135                         -0.2094560              -5.6996
       136                         -0.2025590              -5.5119
       ...                                ...                  ...
       236                          0.6698923              18.2287
      -------------------------------------------------------------
                  HL-Gap            0.1154203 Eh            3.1407 eV

     #   Z          covCN         q      C6AA      Î±(0)
     1   6 C        2.869     0.138    24.982     8.193
     2   8 O        1.705    -0.275    18.557     5.816
     3   6 C        3.644     0.041    20.227     6.465
     4   6 C        2.918    -0.065    29.628     8.926
     5   6 C        2.921    -0.031    28.776     8.797
     6   6 C        2.917    -0.041    29.023     8.834
     7   6 C        2.924    -0.037    28.914     8.818
     8   6 C        2.971    -0.020    28.500     8.757
     9   6 C        3.822     0.034    19.984     6.361
    10   6 C        3.839     0.049    19.720     6.317
    11   6 C        2.969    -0.006    28.168     8.706
    12   6 C        2.928    -0.033    28.820     8.804
    13   6 C        2.917    -0.039    28.976     8.827
    14   6 C        2.921    -0.030    28.744     8.792
    15   6 C        2.919    -0.063    29.579     8.919
    16   6 C        2.868     0.152    24.696     8.146
    17   8 O        1.705    -0.269    18.462     5.801
    18   6 C        3.645     0.038    20.262     6.470
    19   7 N        2.763    -0.111    23.422     7.188
    20   6 C        2.769     0.280    22.263     7.728
    21   6 C        2.980    -0.027    28.671     8.783
    22   6 C        2.969     0.015    27.684     8.630
    23   6 C        3.902     0.027    20.073     6.369
    24   6 C        3.762    -0.110    22.648     6.784
    25   6 C        3.762    -0.106    22.580     6.774
    26   6 C        3.762    -0.109    22.619     6.780
    27   6 C        2.928    -0.037    28.924     8.820
    28   6 C        2.920    -0.027    28.688     8.783
    29   6 C        2.917    -0.026    28.659     8.779
    30   6 C        2.939    -0.028    28.709     8.788
    31   8 O        0.858    -0.429    22.270     6.327
    32   6 C        3.778     0.092    19.075     6.222
    33   6 C        2.688     0.353    21.010     7.501
    34   8 O        1.659    -0.368    20.235     6.073
    35   8 O        0.856    -0.371    21.112     6.160
    36   7 N        2.763    -0.123    23.674     7.226
    37   6 C        2.773     0.276    22.334     7.740
    38   6 C        2.980    -0.017    28.423     8.745
    39   6 C        2.936    -0.027    28.672     8.782
    40   6 C        2.917    -0.033    28.812     8.802
    41   6 C        2.920    -0.033    28.818     8.803
    42   6 C        2.928    -0.040    28.996     8.831
    43   6 C        2.970     0.017    27.617     8.620
    44   6 C        3.902     0.028    20.053     6.365
    45   6 C        3.762    -0.107    22.599     6.777
    46   6 C        3.763    -0.112    22.684     6.789
    47   6 C        3.762    -0.103    22.522     6.765
    48   8 O        0.859    -0.436    22.413     6.347
    49   1 H        0.925     0.060     2.198     2.318
    50   1 H        0.924     0.044     2.395     2.420
    51   1 H        0.924     0.042     2.425     2.435
    52   1 H        0.926     0.040     2.449     2.447
    53   1 H        0.926     0.040     2.451     2.448
    54   1 H        0.926     0.039     2.462     2.454
    55   1 H        0.926     0.051     2.307     2.375
    56   1 H        0.924     0.082     1.961     2.190
    57   1 H        0.923     0.058     2.227     2.334
    58   1 H        0.926     0.035     2.512     2.479
    59   1 H        0.926     0.037     2.483     2.464
    60   1 H        0.926     0.037     2.483     2.464
    61   1 H        0.926     0.040     2.447     2.446
    62   1 H        0.924     0.047     2.355     2.400
    63   1 H        0.925     0.065     2.142     2.289
    64   1 H        0.924     0.036     2.504     2.474
    65   1 H        0.925     0.033     2.542     2.493
    66   1 H        0.925     0.060     2.200     2.319
    67   1 H        0.925     0.031     2.566     2.505
    68   1 H        0.925     0.032     2.562     2.503
    69   1 H        0.925     0.035     2.517     2.481
    70   1 H        0.925     0.045     2.377     2.411
    71   1 H        0.925     0.037     2.494     2.470
    72   1 H        0.925     0.038     2.482     2.464
    73   1 H        0.925     0.036     2.498     2.472
    74   1 H        0.926     0.047     2.358     2.401
    75   1 H        0.926     0.036     2.496     2.471
    76   1 H        0.926     0.036     2.497     2.471
    77   1 H        0.925     0.020     2.740     2.588
    78   1 H        0.923     0.088     1.899     2.155
    79   1 H        0.804     0.337     0.619     1.236
    80   1 H        0.926     0.030     2.585     2.514
    81   1 H        0.926     0.032     2.551     2.498
    82   1 H        0.926     0.030     2.592     2.518
    83   1 H        0.926     0.041     2.430     2.438
    84   1 H        0.925     0.032     2.565     2.504
    85   1 H        0.925     0.038     2.480     2.463
    86   1 H        0.925     0.037     2.493     2.469
    87   1 H        0.925     0.032     2.559     2.502
    88   1 H        0.925     0.037     2.496     2.471
    89   1 H        0.925     0.065     2.147     2.291
    90   1 H        0.925     0.039     2.467     2.456
    91   1 H        0.925     0.039     2.466     2.456
    92   1 H        0.925     0.035     2.515     2.480

Wiberg/Mayer (AO) data.
largest (>0.10) Wiberg bond orders for each atom

     #   Z sym  total        # sym  WBO       # sym  WBO       # sym  WBO
 ---------------------------------------------------------------------------
     1   6 C    3.934 --     4 C    1.382     8 C    1.325     2 O    1.058
     2   8 O    2.230 --     1 C    1.058     3 C    0.982
     3   6 C    3.944 --     2 O    0.982    49 H    0.979    51 H    0.976
                            50 H    0.975
     4   6 C    3.987 --     5 C    1.435     1 C    1.382    52 H    0.965
                             7 C    0.102
     5   6 C    3.990 --     6 C    1.441     4 C    1.435    53 H    0.971
                             8 C    0.106
     6   6 C    3.991 --     5 C    1.441     7 C    1.428    54 H    0.971
     7   6 C    3.989 --     8 C    1.432     6 C    1.428    55 H    0.962
                             4 C    0.102
     8   6 C    3.983 --     7 C    1.432     1 C    1.325     9 C    0.995
                             5 C    0.106
     9   6 C    3.961 --     8 C    0.995    10 C    0.952    36 N    0.951
                            56 H    0.941
    10   6 C    3.965 --    11 C    1.000    19 N    0.952     9 C    0.952
                            57 H    0.947
    11   6 C    3.983 --    12 C    1.435    16 C    1.322    10 C    1.000
                            14 C    0.106
    12   6 C    3.988 --    11 C    1.435    13 C    1.425    58 H    0.967
                            15 C    0.101
    13   6 C    3.991 --    14 C    1.444    12 C    1.425    59 H    0.971
    14   6 C    3.990 --    13 C    1.444    15 C    1.434    60 H    0.971
                            11 C    0.106
    15   6 C    3.987 --    14 C    1.434    16 C    1.383    61 H    0.965
                            12 C    0.101
    16   6 C    3.937 --    15 C    1.383    11 C    1.322    17 O    1.062
    17   8 O    2.238 --    16 C    1.062    18 C    0.982
    18   6 C    3.943 --    17 O    0.982    64 H    0.976    62 H    0.976
                            63 H    0.976
    19   7 N    3.469 --    20 C    1.207    32 C    0.991    10 C    0.952
                            31 O    0.184
    20   6 C    3.939 --    31 O    1.680    19 N    1.207    21 C    0.952
    21   6 C    3.983 --    30 C    1.401    22 C    1.384    20 C    0.952
                            28 C    0.109
    22   6 C    3.984 --    27 C    1.412    21 C    1.384    23 C    0.985
                            29 C    0.108
    23   6 C    3.991 --    26 C    0.999    25 C    0.989    22 C    0.985
                            24 C    0.984
    24   6 C    3.993 --    65 H    0.987    67 H    0.985    23 C    0.984
                            66 H    0.977
    25   6 C    3.995 --    23 C    0.989    68 H    0.983    69 H    0.982
                            70 H    0.974
    26   6 C    3.996 --    23 C    0.999    72 H    0.985    71 H    0.984
                            73 H    0.984
    27   6 C    3.991 --    28 C    1.445    22 C    1.412    74 H    0.963
                            30 C    0.109
    28   6 C    3.991 --    27 C    1.445    29 C    1.434    75 H    0.971
                            21 C    0.109
    29   6 C    3.991 --    30 C    1.442    28 C    1.434    76 H    0.970
                            22 C    0.108
    30   6 C    3.991 --    29 C    1.442    21 C    1.401    77 H    0.968
                            27 C    0.109
    31   8 O    2.021 --    20 C    1.680    19 N    0.184
    32   6 C    3.965 --    19 N    0.991    36 N    0.970    78 H    0.939
                            33 C    0.912
    33   6 C    3.918 --    35 O    1.801    34 O    1.134    32 C    0.912
    34   8 O    2.207 --    33 C    1.134    79 H    0.860    35 O    0.179
    35   8 O    2.077 --    33 C    1.801    34 O    0.179
    36   7 N    3.447 --    37 C    1.203    32 C    0.970     9 C    0.951
                            48 O    0.183
    37   6 C    3.939 --    48 O    1.676    36 N    1.203    38 C    0.959
    38   6 C    3.986 --    39 C    1.400    43 C    1.384    37 C    0.959
                            41 C    0.109
    39   6 C    3.991 --    40 C    1.442    38 C    1.400    80 H    0.968
                            42 C    0.108
    40   6 C    3.991 --    39 C    1.442    41 C    1.432    81 H    0.970
                            43 C    0.107
    41   6 C    3.992 --    42 C    1.446    40 C    1.432    82 H    0.971
                            38 C    0.109
    42   6 C    3.991 --    41 C    1.446    43 C    1.409    83 H    0.963
                            39 C    0.108
    43   6 C    3.983 --    42 C    1.409    38 C    1.384    44 C    0.986
                            40 C    0.107
    44   6 C    3.991 --    45 C    0.998    47 C    0.991    43 C    0.986
                            46 C    0.981
    45   6 C    3.996 --    44 C    0.998    84 H    0.985    85 H    0.984
                            86 H    0.983
    46   6 C    3.992 --    87 H    0.987    88 H    0.984    44 C    0.981
                            89 H    0.977
    47   6 C    3.996 --    44 C    0.991    92 H    0.983    90 H    0.981
                            91 H    0.974
    48   8 O    2.011 --    37 C    1.676    36 N    0.183
    49   1 H    0.996 --     3 C    0.979
    50   1 H    0.998 --     3 C    0.975
    51   1 H    0.998 --     3 C    0.976
    52   1 H    0.998 --     4 C    0.965
    53   1 H    0.998 --     5 C    0.971
    54   1 H    0.998 --     6 C    0.971
    55   1 H    0.997 --     7 C    0.962
    56   1 H    0.993 --     9 C    0.941
    57   1 H    0.996 --    10 C    0.947
    58   1 H    0.998 --    12 C    0.967
    59   1 H    0.998 --    13 C    0.971
    60   1 H    0.998 --    14 C    0.971
    61   1 H    0.998 --    15 C    0.965
    62   1 H    0.998 --    18 C    0.976
    63   1 H    0.995 --    18 C    0.976
    64   1 H    0.999 --    18 C    0.976
    65   1 H    0.999 --    24 C    0.987
    66   1 H    0.996 --    24 C    0.977
    67   1 H    0.998 --    24 C    0.985
    68   1 H    0.999 --    25 C    0.983
    69   1 H    0.998 --    25 C    0.982
    70   1 H    0.998 --    25 C    0.974
    71   1 H    0.998 --    26 C    0.984
    72   1 H    0.999 --    26 C    0.985
    73   1 H    0.999 --    26 C    0.984
    74   1 H    0.997 --    27 C    0.963
    75   1 H    0.998 --    28 C    0.971
    76   1 H    0.998 --    29 C    0.970
    77   1 H    0.999 --    30 C    0.968
    78   1 H    0.991 --    32 C    0.939
    79   1 H    0.886 --    34 O    0.860
    80   1 H    0.999 --    39 C    0.968
    81   1 H    0.998 --    40 C    0.970
    82   1 H    0.998 --    41 C    0.971
    83   1 H    0.997 --    42 C    0.963
    84   1 H    0.999 --    45 C    0.985
    85   1 H    0.998 --    45 C    0.984
    86   1 H    0.999 --    45 C    0.983
    87   1 H    0.999 --    46 C    0.987
    88   1 H    0.998 --    46 C    0.984
    89   1 H    0.996 --    46 C    0.977
    90   1 H    0.998 --    47 C    0.981
    91   1 H    0.998 --    47 C    0.974
    92   1 H    0.998 --    47 C    0.983
 ---------------------------------------------------------------------------

molecular dipole:
                 x           y           z       tot (Debye)
 q only:        1.405       1.361       1.119
   full:        1.556       1.508       1.007       6.074

           -------------------------------------------------
          | TOTAL ENERGY             -138.411427085408 Eh   |
          | GRADIENT NORM               0.000325514346 Eh/Î± |
          | HOMO-LUMO GAP               3.140745776351 eV   |
           -------------------------------------------------

 * finished run on 2022/03/17 at 01:21:12.955
