   * xtb version 6.3.3 (4ae9cef) compiled by 'conda@95abc7406d43' on 2020-10-14
          program call               : xtb acid_295.xyz --opt --chrg 0 --uhf 0 --gfn 2
          number of atoms            :                    68
          number of electrons        :                   242
          charge                     :                     0
          spin                       :                   0.0

   ID    Z sym.   atoms
    1    6 C      1, 2, 6-15, 19-22, 24-29, 31, 32, 34, 35, 39-44, 46, 47
    2    9 F      3-5, 16-18
    3    7 N      23, 30, 38, 45
    4    8 O      33, 36, 37, 48
    5    1 H      49-68

          :  Hamiltonian                  GFN2-xTB          :
 * total energy  :  -139.3090746 Eh     change       -0.1163471E-08 Eh
 * total energy  :  -139.3256041 Eh     change       -0.1652952E-01 Eh
 * total energy  :  -139.3299224 Eh     change       -0.4318295E-02 Eh
 * total energy  :  -139.3313739 Eh     change       -0.1451517E-02 Eh
 * total energy  :  -139.3322137 Eh     change       -0.8397329E-03 Eh
 * total energy  :  -139.3327639 Eh     change       -0.5502284E-03 Eh
 * total energy  :  -139.3331241 Eh     change       -0.3602363E-03 Eh
 * total energy  :  -139.3336232 Eh     change       -0.4990779E-03 Eh
 * total energy  :  -139.3340417 Eh     change       -0.4185062E-03 Eh
 * total energy  :  -139.3344753 Eh     change       -0.4335543E-03 Eh
 * total energy  :  -139.3364842 Eh     change       -0.4169572E-04 Eh
 * total energy  :  -139.3365018 Eh     change       -0.1758279E-04 Eh
 * total energy  :  -139.3365207 Eh     change       -0.1892326E-04 Eh
 * total energy  :  -139.3365267 Eh     change       -0.5994886E-05 Eh
 * total energy  :  -139.3365330 Eh     change       -0.6285164E-05 Eh
 * total energy  :  -139.3365380 Eh     change       -0.5031948E-05 Eh
 * total energy  :  -139.3365440 Eh     change       -0.5943722E-05 Eh
 * total energy  :  -139.3365491 Eh     change       -0.5096080E-05 Eh
 * total energy  :  -139.3365521 Eh     change       -0.3005547E-05 Eh
   *** GEOMETRY OPTIMIZATION CONVERGED AFTER 39 ITERATIONS ***

 final structure:
================
68
 xtb: 6.3.3 (4ae9cef)
C         1.34735287648941   -3.08929058037880   -2.32011146919379
C         0.35601811066460   -3.05753450570941   -3.44882120881317
F         0.55114002385726   -4.02364872833309   -4.35116073130637
F        -0.91953827806444   -3.21267063411705   -3.01768424068527
F         0.35616609530338   -1.90169246532618   -4.14044599323883
C         2.32907174909791   -4.07233103259688   -2.32512096760957
C         3.24095714641643   -4.14973608936187   -1.29005522614921
C         3.16863480694751   -3.25036903880010   -0.24094471509403
C         2.19081300636195   -2.27431134011851   -0.23142938999835
C         1.27407971615269   -2.17248578177655   -1.27160920109812
C         0.21985124967977   -1.09660055959188   -1.20232526862436
C        -0.78640678145267   -1.34916874479825   -0.06200924230199
C        -2.08179942595238   -1.94013253402844   -0.55637559112455
C        -2.46468930064929   -3.25634083005295   -0.29999301509173
C        -1.58250184963317   -4.18287637589106    0.49105248456175
F        -2.09226323685821   -5.41356413879679    0.61162019999283
F        -1.33580988202750   -3.76078703656832    1.74236481861565
F        -0.36790486566630   -4.34575139991305   -0.08324457126019
C        -3.66623624553705   -3.74692917274123   -0.79553119871183
C        -4.49366269906960   -2.93658333944444   -1.54904012925944
C        -4.11902210265883   -1.63191330950106   -1.81612355845841
C        -2.92362705909157   -1.14490480136317   -1.32470594781993
N        -1.00884650683193   -0.01732266269261    0.49738584772076
C        -1.90766043155934    0.14512887628886    1.51318808446486
C        -1.94038421375314    1.51396788757043    2.11714031902390
C        -1.62667576996238    1.66038690900431    3.46457064444867
C        -1.67702082051243    2.90660024296614    4.05819436340436
C        -2.06409159509998    4.01518408885377    3.30530931347351
C        -2.12570042278466    5.29724665592582    3.90360386002693
N        -2.17745655345347    6.33918687095281    4.37659748201186
C        -2.40845595511143    3.86723162103567    1.96048768697919
C        -2.34429502958097    2.61910441694491    1.37175047856866
O        -2.63775658058849   -0.74710773284797    1.87381323217890
C         0.04689726970653    0.90271080165177    0.14633123409880
C         0.94317412329298    1.19472654992537    1.38344361858774
O         0.96893662824665    2.45641427114710    1.81901603298920
O         1.55593691846442    0.32554290732844    1.92518428352751
N         0.79964817724993    0.20079764482032   -0.86320997793255
C         1.96394479649860    0.63344809769560   -1.42272022254962
C         2.45872585374335    1.94045116173179   -0.88073937338798
C         3.58903309013783    1.94115028577937   -0.06951499162332
C         4.08354489156644    3.12963062222126    0.43045758831329
C         3.45568147767428    4.33121370028281    0.10305575140344
C         3.95659051238604    5.55494284860804    0.60946417391790
N         4.35707647281071    6.54823929114202    1.01562678823874
C         2.34033687009507    4.33678098731579   -0.73580999720696
C         1.84621169355779    3.14256857909834   -1.22403426675189
O         2.55188813104598    0.00808548847729   -2.27227062301585
H         2.37493940511071   -4.77550185743443   -3.14181506333833
H         4.00205529143346   -4.91400521370837   -1.30353590032597
H         3.87243084529780   -3.30885890805248    0.57509124660208
H         2.14073967478748   -1.57557750772338    0.59141813437085
H        -0.31154646584236   -0.99493173894047   -2.15414379884076
H        -0.32853120000251   -1.97766278733486    0.70831477799189
H        -3.95051690504971   -4.76673264600552   -0.58911543610875
H        -5.42532614623440   -3.32585181852380   -1.92803149010433
H        -4.75617940467625   -0.99385250962244   -2.40930957440320
H        -2.63471005653404   -0.12544005042297   -1.53512991264255
H        -1.34250409835536    0.79170539355852    4.03773408964505
H        -1.42759252974098    3.02821956378489    5.10100447300396
H        -2.73193902751592    4.72762541283046    1.39332625544860
H        -2.63937682409770    2.49526905633432    0.33923623728027
H        -0.37349538820731    1.84460167085837   -0.25180605145143
H         0.43365376223864    3.07412477196201    1.30099953021648
H         4.07021814052894    1.00536494235911    0.16894517581920
H         4.95396000445377    3.13660910620191    1.06840123659701
H         1.87607956031301    5.27493445261156   -1.00219346834594
H         0.99773428054773    3.14327269525030   -1.89401862966120

          :  Hamiltonian                  GFN2-xTB          :
         :: total energy            -139.336552074476 Eh    ::
         :: gradient norm              0.000648835361 Eh/a0 ::
         :: HOMO-LUMO gap              3.059339216361 eV    ::
         :: SCC energy              -141.168067076613 Eh    ::
         :: -> dispersion             -0.103729398330 Eh    ::
         :: repulsion energy           1.828240087471 Eh    ::

    * Orbital Energies and Occupations

         #    Occupation            Energy/Eh            Energy/eV
      -------------------------------------------------------------
         1        2.0000           -0.8829822             -24.0272
       ...           ...                  ...                  ...
       109        2.0000           -0.4556793             -12.3997
       110        2.0000           -0.4542215             -12.3600
       111        2.0000           -0.4512004             -12.2778
       112        2.0000           -0.4485491             -12.2056
       113        2.0000           -0.4468394             -12.1591
       114        2.0000           -0.4455244             -12.1233
       115        2.0000           -0.4439073             -12.0793
       116        2.0000           -0.4424441             -12.0395
       117        2.0000           -0.4399202             -11.9708
       118        2.0000           -0.4391593             -11.9501
       119        2.0000           -0.4300590             -11.7025
       120        2.0000           -0.4259169             -11.5898
       121        2.0000           -0.4227455             -11.5035 (HOMO)
       122                         -0.3103168              -8.4442 (LUMO)
       123                         -0.3072846              -8.3616
       124                         -0.2936267              -7.9900
       125                         -0.2789608              -7.5909
       126                         -0.2755917              -7.4992
       127                         -0.2733090              -7.4371
       128                         -0.2673613              -7.2753
       129                         -0.2633752              -7.1668
       130                         -0.2574990              -7.0069
       131                         -0.2543909              -6.9223
       132                         -0.2481161              -6.7516
       ...                                ...                  ...
       212                          1.1518244              31.3427
      -------------------------------------------------------------
                  HL-Gap            0.1124286 Eh            3.0593 eV

     #   Z          covCN         q      C6AA      Î±(0)
     1   6 C        2.976    -0.023    28.572     8.768
     2   6 C        3.335     0.485    17.300     6.588
     3   9 F        0.792    -0.197    11.204     3.954
     4   9 F        0.791    -0.225    11.500     4.006
     5   9 F        0.791    -0.208    11.314     3.973
     6   6 C        2.923    -0.018    28.454     8.748
     7   6 C        2.920    -0.019    28.480     8.751
     8   6 C        2.919    -0.014    28.367     8.734
     9   6 C        2.926    -0.026    28.645     8.777
    10   6 C        2.973     0.023    27.485     8.599
    11   6 C        3.820     0.048    19.758     6.326
    12   6 C        3.824     0.048    19.748     6.324
    13   6 C        2.972     0.024    27.458     8.595
    14   6 C        2.976    -0.020    28.503     8.757
    15   6 C        3.335     0.486    17.292     6.587
    16   9 F        0.792    -0.198    11.213     3.955
    17   9 F        0.791    -0.202    11.256     3.963
    18   9 F        0.791    -0.222    11.468     4.000
    19   6 C        2.923    -0.017    28.430     8.744
    20   6 C        2.921    -0.019    28.480     8.752
    21   6 C        2.919    -0.016    28.411     8.741
    22   6 C        2.928    -0.023    28.587     8.768
    23   7 N        2.765    -0.121    23.630     7.220
    24   6 C        2.763     0.271    22.414     7.753
    25   6 C        2.975    -0.017    28.417     8.744
    26   6 C        2.922    -0.015    28.390     8.738
    27   6 C        2.925    -0.013    28.337     8.730
    28   6 C        2.974     0.026    27.423     8.590
    29   6 C        1.912     0.112    28.330     8.596
    30   7 N        0.911    -0.209    25.547     7.310
    31   6 C        2.926    -0.025    28.638     8.776
    32   6 C        2.920    -0.037    28.913     8.818
    33   8 O        0.859    -0.392    21.526     6.221
    34   6 C        3.746     0.082    19.284     6.264
    35   6 C        2.686     0.345    21.147     7.526
    36   8 O        1.659    -0.356    20.019     6.040
    37   8 O        0.856    -0.335    20.430     6.060
    38   7 N        2.765    -0.117    23.546     7.207
    39   6 C        2.761     0.272    22.397     7.750
    40   6 C        2.976    -0.017    28.420     8.745
    41   6 C        2.922    -0.015    28.392     8.738
    42   6 C        2.925    -0.012    28.310     8.726
    43   6 C        2.974     0.027    27.385     8.584
    44   6 C        1.912     0.113    28.313     8.593
    45   7 N        0.911    -0.210    25.576     7.314
    46   6 C        2.926    -0.024    28.598     8.770
    47   6 C        2.920    -0.035    28.876     8.812
    48   8 O        0.859    -0.394    21.569     6.227
    49   1 H        0.926     0.070     2.089     2.260
    50   1 H        0.926     0.060     2.194     2.316
    51   1 H        0.926     0.060     2.198     2.318
    52   1 H        0.926     0.066     2.130     2.282
    53   1 H        0.924     0.068     2.111     2.272
    54   1 H        0.924     0.074     2.045     2.236
    55   1 H        0.926     0.073     2.055     2.242
    56   1 H        0.926     0.062     2.177     2.307
    57   1 H        0.926     0.058     2.227     2.334
    58   1 H        0.926     0.043     2.410     2.428
    59   1 H        0.926     0.064     2.151     2.294
    60   1 H        0.926     0.063     2.167     2.302
    61   1 H        0.926     0.052     2.294     2.368
    62   1 H        0.926     0.038     2.480     2.463
    63   1 H        0.922     0.038     2.469     2.458
    64   1 H        0.805     0.327     0.644     1.261
    65   1 H        0.926     0.061     2.193     2.316
    66   1 H        0.926     0.062     2.173     2.305
    67   1 H        0.926     0.052     2.298     2.371
    68   1 H        0.926     0.038     2.475     2.460

Wiberg/Mayer (AO) data.
largest (>0.10) Wiberg bond orders for each atom

     #   Z sym  total        # sym  WBO       # sym  WBO       # sym  WBO
 ---------------------------------------------------------------------------
     1   6 C    3.969 --     6 C    1.412    10 C    1.386     2 C    0.952
                             8 C    0.105
     2   6 C    3.820 --     3 F    0.960     1 C    0.952     5 F    0.942
                             4 F    0.926
     3   9 F    1.083 --     2 C    0.960
     4   9 F    1.053 --     2 C    0.926
     5   9 F    1.072 --     2 C    0.942
     6   6 C    3.987 --     7 C    1.443     1 C    1.412    49 H    0.965
                             9 C    0.109
     7   6 C    3.988 --     6 C    1.443     8 C    1.434    50 H    0.968
                            10 C    0.108
     8   6 C    3.989 --     9 C    1.447     7 C    1.434    51 H    0.968
                             1 C    0.105
     9   6 C    3.987 --     8 C    1.447    10 C    1.410    52 H    0.961
                             6 C    0.109
    10   6 C    3.986 --     9 C    1.410     1 C    1.386    11 C    0.993
                             7 C    0.108
    11   6 C    3.962 --    10 C    0.993    12 C    0.954    53 H    0.952
                            38 N    0.951
    12   6 C    3.962 --    13 C    0.994    11 C    0.954    54 H    0.951
                            23 N    0.951
    13   6 C    3.986 --    22 C    1.410    14 C    1.387    12 C    0.994
                            20 C    0.109
    14   6 C    3.972 --    19 C    1.414    13 C    1.387    15 C    0.951
                            21 C    0.105
    15   6 C    3.824 --    16 F    0.958    14 C    0.951    17 F    0.947
                            18 F    0.929
    16   9 F    1.081 --    15 C    0.958
    17   9 F    1.078 --    15 C    0.947
    18   9 F    1.056 --    15 C    0.929
    19   6 C    3.986 --    20 C    1.443    14 C    1.414    55 H    0.965
                            22 C    0.109
    20   6 C    3.988 --    19 C    1.443    21 C    1.434    56 H    0.968
                            13 C    0.109
    21   6 C    3.990 --    22 C    1.448    20 C    1.434    57 H    0.969
                            14 C    0.105
    22   6 C    3.990 --    21 C    1.448    13 C    1.410    58 H    0.967
                            19 C    0.109
    23   7 N    3.442 --    24 C    1.184    34 C    0.986    12 C    0.951
                            33 O    0.189
    24   6 C    3.947 --    33 O    1.721    23 N    1.184    25 C    0.961
    25   6 C    3.962 --    26 C    1.400    32 C    1.392    24 C    0.961
    26   6 C    3.988 --    27 C    1.454    25 C    1.400    59 H    0.966
                            31 C    0.106
    27   6 C    3.989 --    26 C    1.454    28 C    1.366    60 H    0.967
                            32 C    0.105
    28   6 C    3.990 --    27 C    1.366    31 C    1.360    29 C    1.089
    29   6 C    3.949 --    30 N    2.817    28 C    1.089
    30   7 N    2.985 --    29 C    2.817
    31   6 C    3.990 --    32 C    1.459    28 C    1.360    61 H    0.969
                            26 C    0.106
    32   6 C    3.991 --    31 C    1.459    25 C    1.392    62 H    0.967
                            27 C    0.105
    33   8 O    2.055 --    24 C    1.721    23 N    0.189
    34   6 C    3.973 --    38 N    0.990    23 N    0.986    63 H    0.941
                            35 C    0.897
    35   6 C    3.922 --    37 O    1.809    36 O    1.139    34 C    0.897
    36   8 O    2.224 --    35 C    1.139    64 H    0.862    37 O    0.170
    37   8 O    2.104 --    35 C    1.809    36 O    0.170
    38   7 N    3.452 --    39 C    1.194    34 C    0.990    11 C    0.951
                            48 O    0.194
    39   6 C    3.947 --    48 O    1.718    38 N    1.194    40 C    0.954
    40   6 C    3.962 --    41 C    1.397    47 C    1.395    39 C    0.954
    41   6 C    3.989 --    42 C    1.454    40 C    1.397    65 H    0.967
                            46 C    0.106
    42   6 C    3.989 --    41 C    1.454    43 C    1.366    66 H    0.967
                            47 C    0.105
    43   6 C    3.991 --    42 C    1.366    46 C    1.361    44 C    1.089
    44   6 C    3.949 --    45 N    2.816    43 C    1.089
    45   7 N    2.985 --    44 C    2.816
    46   6 C    3.990 --    47 C    1.458    43 C    1.361    67 H    0.969
                            41 C    0.106
    47   6 C    3.991 --    46 C    1.458    40 C    1.395    68 H    0.968
                            42 C    0.105
    48   8 O    2.054 --    39 C    1.718    38 N    0.194
    49   1 H    0.995 --     6 C    0.965
    50   1 H    0.995 --     7 C    0.968
    51   1 H    0.996 --     8 C    0.968
    52   1 H    0.995 --     9 C    0.961
    53   1 H    0.995 --    11 C    0.952
    54   1 H    0.994 --    12 C    0.951
    55   1 H    0.994 --    19 C    0.965
    56   1 H    0.995 --    20 C    0.968
    57   1 H    0.996 --    21 C    0.969
    58   1 H    0.998 --    22 C    0.967
    59   1 H    0.995 --    26 C    0.966
    60   1 H    0.996 --    27 C    0.967
    61   1 H    0.997 --    31 C    0.969
    62   1 H    0.997 --    32 C    0.967
    63   1 H    0.998 --    34 C    0.941
    64   1 H    0.893 --    36 O    0.862
    65   1 H    0.995 --    41 C    0.967
    66   1 H    0.996 --    42 C    0.967
    67   1 H    0.997 --    46 C    0.969
    68   1 H    0.997 --    47 C    0.968
 ---------------------------------------------------------------------------

molecular dipole:
                 x           y           z       tot (Debye)
 q only:       -0.656       0.410      -0.550
   full:       -0.996       0.079      -1.030       3.648

           -------------------------------------------------
          | TOTAL ENERGY             -139.336552074476 Eh   |
          | GRADIENT NORM               0.000648835361 Eh/Î± |
          | HOMO-LUMO GAP               3.059339216361 eV   |
           -------------------------------------------------

 * finished run on 2022/03/16 at 23:28:19.866
