   * xtb version 6.3.3 (4ae9cef) compiled by 'conda@95abc7406d43' on 2020-10-14
          program call               : xtb acid_157.xyz --opt --chrg 0 --uhf 0 --gfn 2
          number of atoms            :                    72
          number of electrons        :                   254
          charge                     :                     0
          spin                       :                   0.0

   ID    Z sym.   atoms
    1    6 C      1, 2, 6-15, 19-22, 24-32, 35, 36, 40-48
    2    9 F      3-5, 16-18
    3    7 N      23, 39
    4   16 S      33, 49
    5    8 O      34, 37, 38, 50
    6    1 H      51-72

          :  Hamiltonian                  GFN2-xTB          :
 * total energy  :  -145.3548368 Eh     change       -0.7645497E-08 Eh
 * total energy  :  -145.3753127 Eh     change       -0.2047596E-01 Eh
 * total energy  :  -145.3812834 Eh     change       -0.5970686E-02 Eh
 * total energy  :  -145.3829819 Eh     change       -0.1698430E-02 Eh
 * total energy  :  -145.3841395 Eh     change       -0.1157674E-02 Eh
 * total energy  :  -145.3848797 Eh     change       -0.7401631E-03 Eh
 * total energy  :  -145.3855000 Eh     change       -0.6203346E-03 Eh
 * total energy  :  -145.3861727 Eh     change       -0.6726348E-03 Eh
 * total energy  :  -145.3867334 Eh     change       -0.5607767E-03 Eh
 * total energy  :  -145.3872261 Eh     change       -0.4926989E-03 Eh
 * total energy  :  -145.3955262 Eh     change       -0.1527157E-04 Eh
 * total energy  :  -145.3955463 Eh     change       -0.2010015E-04 Eh
 * total energy  :  -145.3955704 Eh     change       -0.2409842E-04 Eh
 * total energy  :  -145.3955966 Eh     change       -0.2628336E-04 Eh
 * total energy  :  -145.3956198 Eh     change       -0.2311687E-04 Eh
 * total energy  :  -145.3956356 Eh     change       -0.1582315E-04 Eh
 * total energy  :  -145.3956446 Eh     change       -0.9043755E-05 Eh
 * total energy  :  -145.3956506 Eh     change       -0.5929537E-05 Eh
 * total energy  :  -145.3956553 Eh     change       -0.4793990E-05 Eh
   *** GEOMETRY OPTIMIZATION CONVERGED AFTER 66 ITERATIONS ***

 final structure:
================
72
 xtb: 6.3.3 (4ae9cef)
C        -2.48873128174573   -1.90739773002733    0.78748479943143
C        -1.88167465065612   -2.56066617292961    2.00321668853807
F        -0.87884575765835   -3.39751655292628    1.67647542754928
F        -1.35824724921814   -1.70483631540866    2.90089756203480
F        -2.76769820477798   -3.29388688337845    2.68794354083252
C        -3.77233737813380   -2.29965381396817    0.42332542325526
C        -4.36129392472993   -1.80469629971548   -0.72406763940065
C        -3.65530758948417   -0.93517760007674   -1.53526856062346
C        -2.38229503312131   -0.54018521100184   -1.17377848705887
C        -1.78496520648239   -0.99448916834969   -0.00232652221197
C        -0.39650756159891   -0.50499004206773    0.32465476365306
C         0.64718321014670   -1.14911931751556   -0.62700580929856
C         1.35641501529006   -2.31904202509521    0.01055111270564
C         1.17475402506735   -3.63615837993471   -0.41294839703320
C         0.23677845548897   -3.97099619320881   -1.53737039770702
F         0.15161730875204   -5.28247059199165   -1.78251550715812
F         0.55629578526184   -3.39611128074599   -2.70967891278985
F        -1.03671260918890   -3.56982913079886   -1.28443175304065
C         1.85194157093036   -4.67361828308644    0.21552543605389
C         2.71155226495240   -4.40937615459427    1.26447090553943
C         2.89540901471189   -3.10628231683450    1.69165420796557
C         2.21959399968340   -2.07254233393228    1.07241230051082
N         1.57194889976654   -0.06215001382954   -0.92404230460771
C         2.80145741938275   -0.32075763259709   -1.46134288826280
C         3.69024940211116    0.84722005271841   -1.63170616924668
C         3.48229578361614    2.03717504257711   -2.25245917462453
C         4.62648582369877    2.88230343941998   -2.22951408507000
C         4.78156159750783    4.17021375636128   -2.74891930107270
C         5.98494034969994    4.81799655575680   -2.59448242217804
C         7.04847101034289    4.20494579191057   -1.92909081194083
C         6.92200994187128    2.93408675113317   -1.41009803279237
C         5.70966357940687    2.27548024436880   -1.56360893931529
S         5.30484798645630    0.67942929711167   -1.00749458818654
O         3.13688725179951   -1.44537591993305   -1.76232035797736
C         1.08142128346172    1.20894416103448   -0.48368152913406
C         2.00783457172585    1.86833872114088    0.58791889893832
O         1.75616794190617    3.14020708307307    0.80986928019670
O         2.85581588867722    1.24278434894016    1.15474514424459
N        -0.22289043659159    0.92501249622879    0.09484286375049
C        -1.08015350837706    1.95763603698930    0.25083506627686
C        -2.42102089178515    1.69114117465939    0.79201290098837
C        -3.59438967759525    2.03148142801929    0.20151446598421
C        -4.72991817815901    1.64219367792486    0.96409859226415
C        -4.36109258222012    1.03507122359334    2.17998334454744
C        -5.30914501096855    0.56803545910613    3.07786553128501
C        -6.64144640188556    0.70603735405804    2.74869685002927
C        -7.02599554143625    1.30528581202326    1.54803643287901
C        -6.08651673473247    1.77298393432851    0.65802532893275
S        -2.63292517390519    0.95776378131234    2.35914894452195
O        -0.73649453984113    3.09384506591024   -0.07127535334849
H        -4.30946004604510   -3.00030905608369    1.04248949771182
H        -5.35995498925769   -2.11267986373579   -0.98923085013833
H        -4.09285593888931   -0.56445449871011   -2.44903819781095
H        -1.83631592005739    0.14214848489351   -1.80850650559336
H        -0.12043368934481   -0.72382814720001    1.36117055246276
H         0.15777375210994   -1.44696306977061   -1.56095577852923
H         1.70481139963685   -5.68733097779376   -0.12233464206442
H         3.23747178861386   -5.22091330742590    1.74248939996820
H         3.56879610464163   -2.88898913906690    2.50630584916737
H         2.38961704915528   -1.05619257169195    1.39646518226107
H         2.57051928641254    2.31098537950202   -2.75423658335298
H         3.95707844139304    4.64249682153051   -3.26192370375725
H         6.11308483565747    5.81436465582910   -2.99014767328257
H         7.98235772496735    4.73530517411723   -1.82050889838120
H         7.74001815163552    2.45509516589914   -0.89578174449854
H         0.94405962236534    1.92060563355687   -1.31530603026699
H         0.90968739150687    3.43756467680964    0.38673373199669
H        -3.65409898336361    2.51302007124149   -0.75780825048158
H        -5.00422595455841    0.10561124449295    4.00319298138293
H        -7.39777815541624    0.34495762311752    3.42850297655263
H        -8.07650965686872    1.40183406495049    1.31928390641373
H        -6.38064047164200    2.23938430981937   -0.26963808857235

          :  Hamiltonian                  GFN2-xTB          :
         :: total energy            -145.395655351518 Eh    ::
         :: gradient norm              0.000454101700 Eh/a0 ::
         :: HOMO-LUMO gap              2.305392821677 eV    ::
         :: SCC energy              -147.187471020188 Eh    ::
         :: -> dispersion             -0.119153014312 Eh    ::
         :: repulsion energy           1.788266995372 Eh    ::

    * Orbital Energies and Occupations

         #    Occupation            Energy/Eh            Energy/eV
      -------------------------------------------------------------
         1        2.0000           -0.8913987             -24.2562
       ...           ...                  ...                  ...
       115        2.0000           -0.4421778             -12.0323
       116        2.0000           -0.4402998             -11.9812
       117        2.0000           -0.4358506             -11.8601
       118        2.0000           -0.4311626             -11.7325
       119        2.0000           -0.4307257             -11.7206
       120        2.0000           -0.4298931             -11.6980
       121        2.0000           -0.4283210             -11.6552
       122        2.0000           -0.4189345             -11.3998
       123        2.0000           -0.4105646             -11.1720
       124        2.0000           -0.4078079             -11.0970
       125        2.0000           -0.4021536             -10.9432
       126        2.0000           -0.3982861             -10.8379
       127        2.0000           -0.3811018             -10.3703 (HOMO)
       128                         -0.2963802              -8.0649 (LUMO)
       129                         -0.2824259              -7.6852
       130                         -0.2744160              -7.4672
       131                         -0.2726895              -7.4203
       132                         -0.2616955              -7.1211
       133                         -0.2577710              -7.0143
       134                         -0.2553569              -6.9486
       135                         -0.2515221              -6.8443
       136                         -0.2477827              -6.7425
       137                         -0.2322332              -6.3194
       138                         -0.2280574              -6.2058
       ...                                ...                  ...
       232                          0.7024246              19.1139
      -------------------------------------------------------------
                  HL-Gap            0.0847216 Eh            2.3054 eV

     #   Z          covCN         q      C6AA      Î±(0)
     1   6 C        2.974    -0.026    28.646     8.779
     2   6 C        3.335     0.485    17.306     6.590
     3   9 F        0.791    -0.211    11.353     3.980
     4   9 F        0.792    -0.208    11.314     3.973
     5   9 F        0.792    -0.198    11.210     3.955
     6   6 C        2.924    -0.020    28.497     8.754
     7   6 C        2.920    -0.020    28.502     8.755
     8   6 C        2.918    -0.017    28.427     8.743
     9   6 C        2.928    -0.026    28.663     8.780
    10   6 C        2.970     0.012    27.750     8.641
    11   6 C        3.814     0.039    19.911     6.351
    12   6 C        3.823     0.052    19.689     6.314
    13   6 C        2.972     0.023    27.494     8.601
    14   6 C        2.975    -0.023    28.566     8.767
    15   6 C        3.335     0.485    17.299     6.588
    16   9 F        0.792    -0.198    11.218     3.956
    17   9 F        0.791    -0.205    11.282     3.968
    18   9 F        0.791    -0.231    11.562     4.017
    19   6 C        2.923    -0.018    28.458     8.748
    20   6 C        2.920    -0.019    28.489     8.753
    21   6 C        2.919    -0.014    28.354     8.732
    22   6 C        2.926    -0.025    28.630     8.775
    23   7 N        2.759    -0.121    23.621     7.218
    24   6 C        2.802     0.277    22.320     7.740
    25   6 C        2.989    -0.010    28.261     8.720
    26   6 C        3.068    -0.058    29.356     8.884
    27   6 C        3.141     0.003    27.701     8.613
    28   6 C        2.915    -0.033    28.810     8.802
    29   6 C        2.918    -0.032    28.809     8.802
    30   6 C        2.923    -0.029    28.724     8.789
    31   6 C        2.933    -0.035    28.872     8.812
    32   6 C        3.009     0.031    27.284     8.568
    33  16 S        2.290     0.021   140.207    19.929
    34   8 O        0.859    -0.409    21.863     6.269
    35   6 C        3.762     0.079    19.314     6.265
    36   6 C        2.684     0.352    21.030     7.505
    37   8 O        1.656    -0.358    20.048     6.044
    38   8 O        0.856    -0.360    20.906     6.130
    39   7 N        2.759    -0.109    23.382     7.182
    40   6 C        2.787     0.270    22.449     7.761
    41   6 C        2.990    -0.006    28.168     8.706
    42   6 C        3.067    -0.042    28.971     8.826
    43   6 C        3.141     0.002    27.733     8.618
    44   6 C        3.010     0.033    27.251     8.563
    45   6 C        2.933    -0.036    28.892     8.815
    46   6 C        2.924    -0.028    28.697     8.785
    47   6 C        2.918    -0.031    28.784     8.798
    48   6 C        2.916    -0.032    28.794     8.799
    49  16 S        2.264    -0.032   142.386    20.083
    50   8 O        0.860    -0.459    22.890     6.415
    51   1 H        0.926     0.073     2.058     2.243
    52   1 H        0.926     0.062     2.171     2.304
    53   1 H        0.926     0.061     2.188     2.313
    54   1 H        0.926     0.051     2.313     2.378
    55   1 H        0.924     0.073     2.054     2.241
    56   1 H        0.924     0.064     2.157     2.297
    57   1 H        0.926     0.068     2.110     2.271
    58   1 H        0.926     0.059     2.215     2.327
    59   1 H        0.926     0.061     2.184     2.311
    60   1 H        0.926     0.071     2.073     2.251
    61   1 H        0.926     0.032     2.557     2.500
    62   1 H        0.926     0.038     2.470     2.458
    63   1 H        0.926     0.039     2.467     2.456
    64   1 H        0.926     0.042     2.428     2.437
    65   1 H        0.926     0.047     2.360     2.402
    66   1 H        0.923     0.067     2.115     2.274
    67   1 H        0.801     0.366     0.553     1.168
    68   1 H        0.926     0.056     2.250     2.346
    69   1 H        0.926     0.050     2.318     2.381
    70   1 H        0.926     0.047     2.356     2.400
    71   1 H        0.926     0.044     2.393     2.419
    72   1 H        0.926     0.045     2.386     2.416

Wiberg/Mayer (AO) data.
largest (>0.10) Wiberg bond orders for each atom

     #   Z sym  total        # sym  WBO       # sym  WBO       # sym  WBO
 ---------------------------------------------------------------------------
     1   6 C    3.970 --     6 C    1.413    10 C    1.385     2 C    0.949
                             8 C    0.104
     2   6 C    3.824 --     5 F    0.957     1 C    0.949     4 F    0.940
                             3 F    0.940
     3   9 F    1.069 --     2 C    0.940
     4   9 F    1.075 --     2 C    0.940
     5   9 F    1.081 --     2 C    0.957
     6   6 C    3.986 --     7 C    1.442     1 C    1.413    51 H    0.965
                             9 C    0.108
     7   6 C    3.988 --     6 C    1.442     8 C    1.433    52 H    0.968
                            10 C    0.109
     8   6 C    3.989 --     9 C    1.447     7 C    1.433    53 H    0.968
                             1 C    0.104
     9   6 C    3.990 --     8 C    1.447    10 C    1.408    54 H    0.966
                             6 C    0.108
    10   6 C    3.986 --     9 C    1.408     1 C    1.385    11 C    0.997
                             7 C    0.109
    11   6 C    3.963 --    10 C    0.997    39 N    0.960    55 H    0.949
                            12 C    0.946
    12   6 C    3.967 --    13 C    0.992    23 N    0.959    56 H    0.953
                            11 C    0.946
    13   6 C    3.985 --    22 C    1.410    14 C    1.384    12 C    0.992
                            20 C    0.108
    14   6 C    3.969 --    19 C    1.412    13 C    1.384    15 C    0.953
                            21 C    0.105
    15   6 C    3.818 --    16 F    0.959    14 C    0.953    17 F    0.946
                            18 F    0.920
    16   9 F    1.082 --    15 C    0.959
    17   9 F    1.076 --    15 C    0.946
    18   9 F    1.047 --    15 C    0.920
    19   6 C    3.987 --    20 C    1.443    14 C    1.412    57 H    0.966
                            22 C    0.109
    20   6 C    3.988 --    19 C    1.443    21 C    1.434    58 H    0.969
                            13 C    0.108
    21   6 C    3.989 --    22 C    1.446    20 C    1.434    59 H    0.968
                            14 C    0.105
    22   6 C    3.987 --    21 C    1.446    13 C    1.410    60 H    0.960
                            19 C    0.109
    23   7 N    3.442 --    24 C    1.176    35 C    1.001    12 C    0.959
                            34 O    0.184
    24   6 C    3.947 --    34 O    1.691    23 N    1.176    25 C    0.998
    25   6 C    3.958 --    26 C    1.610    33 S    1.131    24 C    0.998
    26   6 C    3.984 --    25 C    1.610    27 C    1.203    61 H    0.960
                            33 S    0.106
    27   6 C    3.987 --    28 C    1.323    32 C    1.281    26 C    1.203
    28   6 C    3.987 --    29 C    1.504    27 C    1.323    62 H    0.968
                            31 C    0.111
    29   6 C    3.991 --    28 C    1.504    30 C    1.375    63 H    0.971
    30   6 C    3.987 --    31 C    1.482    29 C    1.375    64 H    0.970
    31   6 C    3.990 --    30 C    1.482    32 C    1.371    65 H    0.968
                            28 C    0.111
    32   6 C    3.957 --    31 C    1.371    27 C    1.281    33 S    1.124
    33  16 S    2.586 --    25 C    1.131    32 C    1.124    26 C    0.106
    34   8 O    2.032 --    24 C    1.691    23 N    0.184
    35   6 C    3.956 --    23 N    1.001    39 N    0.967    66 H    0.936
                            36 C    0.885
    36   6 C    3.931 --    38 O    1.779    37 O    1.203    35 C    0.885
    37   8 O    2.245 --    36 C    1.203    67 H    0.784    38 O    0.181
    38   8 O    2.087 --    36 C    1.779    37 O    0.181
    39   7 N    3.494 --    40 C    1.252    35 C    0.967    11 C    0.960
                            50 O    0.185
    40   6 C    3.947 --    50 O    1.587    39 N    1.252    41 C    1.008
    41   6 C    3.953 --    42 C    1.617    49 S    1.113    40 C    1.008
    42   6 C    3.984 --    41 C    1.617    43 C    1.200    68 H    0.961
                            49 S    0.105
    43   6 C    3.987 --    48 C    1.324    44 C    1.284    42 C    1.200
    44   6 C    3.954 --    45 C    1.377    43 C    1.284    49 S    1.109
    45   6 C    3.990 --    46 C    1.476    44 C    1.377    69 H    0.968
                            48 C    0.111
    46   6 C    3.986 --    45 C    1.476    47 C    1.379    70 H    0.969
    47   6 C    3.991 --    48 C    1.501    46 C    1.379    71 H    0.970
    48   6 C    3.987 --    47 C    1.501    43 C    1.324    72 H    0.967
                            45 C    0.111
    49  16 S    2.562 --    41 C    1.113    44 C    1.109    42 C    0.105
    50   8 O    1.993 --    40 C    1.587    39 N    0.185
    51   1 H    0.994 --     6 C    0.965
    52   1 H    0.995 --     7 C    0.968
    53   1 H    0.995 --     8 C    0.968
    54   1 H    0.997 --     9 C    0.966
    55   1 H    0.994 --    11 C    0.949
    56   1 H    0.995 --    12 C    0.953
    57   1 H    0.995 --    19 C    0.966
    58   1 H    0.996 --    20 C    0.969
    59   1 H    0.995 --    21 C    0.968
    60   1 H    0.995 --    22 C    0.960
    61   1 H    0.999 --    26 C    0.960
    62   1 H    0.999 --    28 C    0.968
    63   1 H    0.998 --    29 C    0.971
    64   1 H    0.998 --    30 C    0.970
    65   1 H    0.997 --    31 C    0.968
    66   1 H    0.995 --    35 C    0.936
    67   1 H    0.866 --    37 O    0.784
    68   1 H    0.997 --    42 C    0.961
    69   1 H    0.997 --    45 C    0.968
    70   1 H    0.997 --    46 C    0.969
    71   1 H    0.997 --    47 C    0.970
    72   1 H    0.998 --    48 C    0.967
 ---------------------------------------------------------------------------

molecular dipole:
                 x           y           z       tot (Debye)
 q only:       -1.946       0.836       0.084
   full:       -2.605       1.121      -0.334       7.258

           -------------------------------------------------
          | TOTAL ENERGY             -145.395655351518 Eh   |
          | GRADIENT NORM               0.000454101700 Eh/Î± |
          | HOMO-LUMO GAP               2.305392821677 eV   |
           -------------------------------------------------

 * finished run on 2022/03/16 at 21:56:09.682
