   * xtb version 6.3.3 (4ae9cef) compiled by 'conda@95abc7406d43' on 2020-10-14
          program call               : xtb acid_70.xyz --opt --chrg 0 --uhf 0 --gfn 2
          number of atoms            :                    54
          number of electrons        :                   170
          charge                     :                     0
          spin                       :                   0.0

   ID    Z sym.   atoms
    1    8 O      1, 7, 11, 12, 19, 20
    2    6 C      2-6, 9, 10, 14-18, 21-34
    3    7 N      8, 13
    4    1 H      35-54

          :  Hamiltonian                  GFN2-xTB          :
 * total energy  :   -96.1094072 Eh     change       -0.2334318E-08 Eh
 * total energy  :   -96.1252129 Eh     change       -0.1580579E-01 Eh
 * total energy  :   -96.1293794 Eh     change       -0.4166411E-02 Eh
 * total energy  :   -96.1309997 Eh     change       -0.1620385E-02 Eh
 * total energy  :   -96.1318257 Eh     change       -0.8259163E-03 Eh
 * total energy  :   -96.1324661 Eh     change       -0.6404837E-03 Eh
 * total energy  :   -96.1330448 Eh     change       -0.5787000E-03 Eh
 * total energy  :   -96.1336136 Eh     change       -0.5687684E-03 Eh
 * total energy  :   -96.1341509 Eh     change       -0.5372551E-03 Eh
 * total energy  :   -96.1346655 Eh     change       -0.5146413E-03 Eh
 * total energy  :   -96.1385946 Eh     change       -0.1829518E-04 Eh
 * total energy  :   -96.1386102 Eh     change       -0.1561553E-04 Eh
 * total energy  :   -96.1386211 Eh     change       -0.1095233E-04 Eh
 * total energy  :   -96.1386374 Eh     change       -0.1621981E-04 Eh
 * total energy  :   -96.1386457 Eh     change       -0.8333298E-05 Eh
 * total energy  :   -96.1386544 Eh     change       -0.8710448E-05 Eh
 * total energy  :   -96.1386653 Eh     change       -0.1091311E-04 Eh
 * total energy  :   -96.1386707 Eh     change       -0.5355648E-05 Eh
 * total energy  :   -96.1386752 Eh     change       -0.4556393E-05 Eh
   *** GEOMETRY OPTIMIZATION CONVERGED AFTER 45 ITERATIONS ***

 final structure:
================
54
 xtb: 6.3.3 (4ae9cef)
O        -3.38369432089979    0.69318951980241   -0.51455463581329
C        -2.71827685086247   -0.32159752925780   -0.62316261589224
C        -3.32133431103756   -1.59639877224062   -1.01803258182312
C        -4.65702367734635   -1.86279566645365   -1.20078291560652
C        -4.73859240057769   -3.20966296572162   -1.60587464898250
C        -3.45391352604971   -3.66715766943820   -1.64624296657383
O        -2.59353514657054   -2.70703965300673   -1.29383792219920
N        -1.36453618379192   -0.29026048693676   -0.43425374827921
C        -0.42336738250244   -1.38156292265532   -0.45984351376490
C        -0.11033371995777   -1.85226464585462   -1.91199288305578
O        -0.56190274908749   -1.05010003997852   -2.87623323892111
O         0.51343615128700   -2.84299074341316   -2.13889163590619
N         0.77599374642234   -0.83570546244481    0.13818888636386
C         1.49807826478304   -1.60513761268755    1.00837790247408
C         2.75748623152278   -1.05102577116903    1.51376006795057
C         3.59655086813921   -1.62633502010117    2.43757673025324
C         4.71143942956036   -0.77167620905142    2.54583452194747
C         4.47802519341491    0.25551657281022    1.67970582552297
O         3.30639290724207    0.10018118631729    1.05507640392905
O         1.13324337202361   -2.72333645093021    1.31893227377970
C         0.77664920995137    0.60659324938756    0.01077266353541
C         1.50993675989446    1.10058405978022   -1.21923566444970
C         2.25344272289713    0.24240732754273   -2.01656889682041
C         2.91505826932209    0.72496153951622   -3.13303172804882
C         2.84701652862069    2.06791636885259   -3.45794179490140
C         2.12473215880300    2.93337178662342   -2.65285785693044
C         1.46295487254317    2.45323466190623   -1.53785306686836
C        -0.73357370780162    0.95294508338322    0.00282147246433
C        -1.22503011085750    1.37260523699952    1.36739398666885
C        -1.22981189345665    0.46796038518221    2.42245554732027
C        -1.67132759650836    0.85949780538949    3.67334198047567
C        -2.11100011204431    2.15557545001712    3.88179153639147
C        -2.10849818546754    3.05969825949551    2.83371688762947
C        -1.66740577623301    2.66978839756627    1.58194509273326
H        -5.45684002607491   -1.16709271678183   -1.05571316726017
H        -5.62574764032244   -3.76168884895764   -1.83702171636571
H        -3.03672324232142   -4.62106668640860   -1.90224000987008
H        -0.73150945281109   -2.26371265686795    0.12038000322789
H        -1.04354014970700   -0.28616386506625   -2.51679256832314
H         3.41709161430814   -2.54490328180323    2.95650716398610
H         5.56802606846100   -0.90282930925436    3.17376999794675
H         5.05225180664754    1.12595031494813    1.42802181407598
H         1.23892703947932    1.05480498079352    0.89589372542799
H         2.32548390642813   -0.80556962514390   -1.76792767600337
H         3.48453260413518    0.04455776206652   -3.74769287749566
H         3.36102271460623    2.44209936456633   -4.33043987757923
H         2.07842956987249    3.98569194942207   -2.89187985339107
H         0.91392898144288    3.13448480298256   -0.90305113678309
H        -0.96702581161755    1.74384305252960   -0.71853344162320
H        -0.89384656686073   -0.54799175935804    2.27201828113930
H        -1.67438937462237    0.14774249761966    4.48545664390103
H        -2.46005796841688    2.45804651717337    4.85777919436906
H        -2.45720783766691    4.06978285457544    2.98860883164197
H        -1.68008727033991    3.37303338372164    0.76235820436691

          :  Hamiltonian                  GFN2-xTB          :
         :: total energy             -96.138675238426 Eh    ::
         :: gradient norm              0.000960335941 Eh/a0 ::
         :: HOMO-LUMO gap              3.369140713603 eV    ::
         :: SCC energy               -97.484418082599 Eh    ::
         :: -> dispersion             -0.073401377692 Eh    ::
         :: repulsion energy           1.343776036528 Eh    ::

    * Orbital Energies and Occupations

         #    Occupation            Energy/Eh            Energy/eV
      -------------------------------------------------------------
         1        2.0000           -0.7629506             -20.7609
       ...           ...                  ...                  ...
        73        2.0000           -0.4432963             -12.0627
        74        2.0000           -0.4362483             -11.8709
        75        2.0000           -0.4328473             -11.7784
        76        2.0000           -0.4235785             -11.5262
        77        2.0000           -0.4188500             -11.3975
        78        2.0000           -0.4177938             -11.3687
        79        2.0000           -0.4171468             -11.3511
        80        2.0000           -0.4152913             -11.3007
        81        2.0000           -0.4148397             -11.2884
        82        2.0000           -0.4124419             -11.2231
        83        2.0000           -0.4117561             -11.2045
        84        2.0000           -0.4077025             -11.0941
        85        2.0000           -0.3978498             -10.8260 (HOMO)
        86                         -0.2740361              -7.4569 (LUMO)
        87                         -0.2729581              -7.4276
        88                         -0.2493980              -6.7865
        89                         -0.2417707              -6.5789
        90                         -0.2365681              -6.4373
        91                         -0.2345966              -6.3837
        92                         -0.2330592              -6.3419
        93                         -0.2003715              -5.4524
        94                         -0.1996652              -5.4332
        95                         -0.1530240              -4.1640
        96                         -0.1512366              -4.1154
       ...                                ...                  ...
       156                          0.6943915              18.8954
      -------------------------------------------------------------
                  HL-Gap            0.1238136 Eh            3.3691 eV

     #   Z          covCN         q      C6AA      Î±(0)
     1   8 O        0.860    -0.433    22.351     6.339
     2   6 C        2.758     0.256    22.701     7.802
     3   6 C        3.114     0.074    26.191     8.383
     4   6 C        3.025    -0.042    29.009     8.835
     5   6 C        3.011    -0.057    29.396     8.894
     6   6 C        3.070     0.085    26.035     8.366
     7   8 O        1.729    -0.187    17.124     5.587
     8   7 N        2.760    -0.132    23.866     7.256
     9   6 C        3.765     0.075    19.368     6.273
    10   6 C        2.685     0.354    20.995     7.499
    11   8 O        1.659    -0.357    20.025     6.041
    12   8 O        0.856    -0.342    20.563     6.080
    13   7 N        2.764    -0.112    23.446     7.192
    14   6 C        2.760     0.263    22.560     7.778
    15   6 C        3.115     0.081    26.035     8.358
    16   6 C        3.027    -0.043    29.033     8.838
    17   6 C        3.010    -0.058    29.419     8.897
    18   6 C        3.073     0.079    26.162     8.386
    19   8 O        1.729    -0.180    17.023     5.571
    20   8 O        0.860    -0.422    22.134     6.308
    21   6 C        3.825     0.035    19.967     6.358
    22   6 C        2.971    -0.003    28.103     8.696
    23   6 C        2.923    -0.030    28.750     8.793
    24   6 C        2.920    -0.024    28.596     8.769
    25   6 C        2.920    -0.028    28.710     8.787
    26   6 C        2.919    -0.028    28.689     8.783
    27   6 C        2.924    -0.039    28.978     8.828
    28   6 C        3.827     0.042    19.845     6.339
    29   6 C        2.973     0.006    27.889     8.663
    30   6 C        2.923    -0.033    28.826     8.805
    31   6 C        2.920    -0.027    28.678     8.782
    32   6 C        2.920    -0.028    28.694     8.784
    33   6 C        2.920    -0.025    28.636     8.775
    34   6 C        2.924    -0.028    28.708     8.787
    35   1 H        0.927     0.068     2.109     2.271
    36   1 H        0.927     0.055     2.257     2.349
    37   1 H        0.926     0.068     2.107     2.270
    38   1 H        0.923     0.104     1.748     2.068
    39   1 H        0.804     0.330     0.639     1.255
    40   1 H        0.927     0.069     2.095     2.263
    41   1 H        0.927     0.053     2.281     2.362
    42   1 H        0.926     0.057     2.229     2.335
    43   1 H        0.924     0.068     2.110     2.272
    44   1 H        0.926     0.041     2.435     2.440
    45   1 H        0.926     0.044     2.399     2.422
    46   1 H        0.926     0.039     2.460     2.453
    47   1 H        0.926     0.038     2.475     2.460
    48   1 H        0.926     0.031     2.576     2.510
    49   1 H        0.924     0.060     2.200     2.319
    50   1 H        0.926     0.032     2.560     2.502
    51   1 H        0.926     0.038     2.475     2.460
    52   1 H        0.926     0.038     2.479     2.462
    53   1 H        0.926     0.039     2.456     2.451
    54   1 H        0.926     0.037     2.483     2.464

Wiberg/Mayer (AO) data.
largest (>0.10) Wiberg bond orders for each atom

     #   Z sym  total        # sym  WBO       # sym  WBO       # sym  WBO
 ---------------------------------------------------------------------------
     1   8 O    1.995 --     2 C    1.645     8 N    0.183
     2   6 C    3.961 --     1 O    1.645     8 N    1.179     3 C    1.037
     3   6 C    3.901 --     4 C    1.515     7 O    1.093     2 C    1.037
                             6 C    0.137
     4   6 C    3.983 --     3 C    1.515     5 C    1.328    35 H    0.972
     5   6 C    3.983 --     6 C    1.576     4 C    1.328    36 H    0.973
     6   6 C    3.907 --     5 C    1.576     7 O    1.153    37 H    0.964
                             3 C    0.137
     7   8 O    2.449 --     6 C    1.153     3 C    1.093
     8   7 N    3.464 --     2 C    1.179     9 C    0.986    28 C    0.955
                             1 O    0.183
     9   6 C    3.955 --     8 N    0.986    13 N    0.980    38 H    0.931
                            10 C    0.894
    10   6 C    3.922 --    12 O    1.811    11 O    1.148     9 C    0.894
    11   8 O    2.225 --    10 C    1.148    39 H    0.851    12 O    0.171
    12   8 O    2.097 --    10 C    1.811    11 O    0.171
    13   7 N    3.456 --    14 C    1.175     9 C    0.980    21 C    0.975
                            20 O    0.179
    14   6 C    3.958 --    20 O    1.657    13 N    1.175    15 C    1.033
    15   6 C    3.904 --    16 C    1.519    19 O    1.098    14 C    1.033
                            18 C    0.138
    16   6 C    3.983 --    15 C    1.519    17 C    1.326    40 H    0.971
    17   6 C    3.984 --    18 C    1.577    16 C    1.326    41 H    0.973
    18   6 C    3.909 --    17 C    1.577    19 O    1.154    42 H    0.965
                            15 C    0.138
    19   8 O    2.450 --    18 C    1.154    15 C    1.098
    20   8 O    2.012 --    14 C    1.657    13 N    0.179
    21   6 C    3.965 --    22 C    0.982    13 N    0.975    28 C    0.951
                            43 H    0.945
    22   6 C    3.985 --    23 C    1.422    27 C    1.406    21 C    0.982
                            25 C    0.109
    23   6 C    3.991 --    24 C    1.436    22 C    1.422    44 H    0.965
                            26 C    0.110
    24   6 C    3.991 --    25 C    1.445    23 C    1.436    45 H    0.970
                            27 C    0.113
    25   6 C    3.992 --    24 C    1.445    26 C    1.433    46 H    0.971
                            22 C    0.109
    26   6 C    3.992 --    27 C    1.450    25 C    1.433    47 H    0.971
                            23 C    0.110
    27   6 C    3.991 --    26 C    1.450    22 C    1.406    48 H    0.968
                            24 C    0.113
    28   6 C    3.962 --    29 C    0.986     8 N    0.955    49 H    0.954
                            21 C    0.951
    29   6 C    3.984 --    34 C    1.415    30 C    1.412    28 C    0.986
                            32 C    0.109
    30   6 C    3.992 --    31 C    1.446    29 C    1.412    50 H    0.969
                            33 C    0.112
    31   6 C    3.992 --    30 C    1.446    32 C    1.438    51 H    0.971
                            34 C    0.111
    32   6 C    3.990 --    33 C    1.440    31 C    1.438    52 H    0.971
                            29 C    0.109
    33   6 C    3.992 --    34 C    1.443    32 C    1.440    53 H    0.970
                            30 C    0.112
    34   6 C    3.990 --    33 C    1.443    29 C    1.415    54 H    0.968
                            31 C    0.111
    35   1 H    0.995 --     4 C    0.972
    36   1 H    0.996 --     5 C    0.973
    37   1 H    0.995 --     6 C    0.964
    38   1 H    0.989 --     9 C    0.931
    39   1 H    0.891 --    11 O    0.851
    40   1 H    0.995 --    16 C    0.971
    41   1 H    0.997 --    17 C    0.973
    42   1 H    0.996 --    18 C    0.965
    43   1 H    0.995 --    21 C    0.945
    44   1 H    0.998 --    23 C    0.965
    45   1 H    0.998 --    24 C    0.970
    46   1 H    0.998 --    25 C    0.971
    47   1 H    0.998 --    26 C    0.971
    48   1 H    0.999 --    27 C    0.968
    49   1 H    0.995 --    28 C    0.954
    50   1 H    0.999 --    30 C    0.969
    51   1 H    0.998 --    31 C    0.971
    52   1 H    0.998 --    32 C    0.971
    53   1 H    0.998 --    33 C    0.970
    54   1 H    0.999 --    34 C    0.968
 ---------------------------------------------------------------------------

molecular dipole:
                 x           y           z       tot (Debye)
 q only:        0.521       1.423       0.378
   full:        0.497       1.590       0.542       4.452

           -------------------------------------------------
          | TOTAL ENERGY              -96.138675238426 Eh   |
          | GRADIENT NORM               0.000960335941 Eh/Î± |
          | HOMO-LUMO GAP               3.369140713603 eV   |
           -------------------------------------------------

 * finished run on 2022/03/17 at 02:00:12.331
