   * xtb version 6.3.3 (4ae9cef) compiled by 'conda@95abc7406d43' on 2020-10-14
          program call               : xtb acid_149.xyz --opt --chrg 0 --uhf 0 --gfn 2
          number of atoms            :                    72
          number of electrons        :                   274
          charge                     :                     0
          spin                       :                   0.0

   ID    Z sym.   atoms
    1    6 C      1, 2, 6-15, 19-22, 24-27, 31-34, 36, 37, 41-48
    2    9 F      3-5, 16-18, 28-30, 49-51
    3    7 N      23, 40
    4    8 O      35, 38, 39, 52
    5    1 H      53-72

          :  Hamiltonian                  GFN2-xTB          :
 * total energy  :  -161.9793943 Eh     change       -0.1210822E-08 Eh
 * total energy  :  -161.9975489 Eh     change       -0.1815458E-01 Eh
 * total energy  :  -162.0030639 Eh     change       -0.5515042E-02 Eh
 * total energy  :  -162.0044002 Eh     change       -0.1336288E-02 Eh
 * total energy  :  -162.0053386 Eh     change       -0.9384209E-03 Eh
 * total energy  :  -162.0059205 Eh     change       -0.5819192E-03 Eh
 * total energy  :  -162.0064122 Eh     change       -0.4916304E-03 Eh
 * total energy  :  -162.0069385 Eh     change       -0.5263567E-03 Eh
 * total energy  :  -162.0075566 Eh     change       -0.6181003E-03 Eh
 * total energy  :  -162.0081675 Eh     change       -0.6108699E-03 Eh
 * total energy  :  -162.0110267 Eh     change       -0.1751547E-04 Eh
 * total energy  :  -162.0110401 Eh     change       -0.1342623E-04 Eh
 * total energy  :  -162.0110443 Eh     change       -0.4188356E-05 Eh
 * total energy  :  -162.0110529 Eh     change       -0.8667974E-05 Eh
 * total energy  :  -162.0110614 Eh     change       -0.8502964E-05 Eh
 * total energy  :  -162.0110685 Eh     change       -0.7030122E-05 Eh
 * total energy  :  -162.0110746 Eh     change       -0.6129967E-05 Eh
 * total energy  :  -162.0110799 Eh     change       -0.5321008E-05 Eh
 * total energy  :  -162.0110836 Eh     change       -0.3671683E-05 Eh
   *** GEOMETRY OPTIMIZATION CONVERGED AFTER 39 ITERATIONS ***

 final structure:
================
72
 xtb: 6.3.3 (4ae9cef)
C        -2.01650565565059   -1.54360962977431   -1.54321630299986
C        -1.05801638486650   -1.27322454512896   -2.67706434956077
F        -1.69420402426170   -1.08550195024361   -3.84023922601809
F        -0.24401165557189   -0.22051536853272   -2.53649071903462
F        -0.24569189829629   -2.33410084725224   -2.87065181676261
C        -3.13433134913177   -2.28464520027299   -1.92099482761852
C        -4.06897198658975   -2.69303522166563   -0.99148970751198
C        -3.87370737306437   -2.38556620028488    0.34214037337672
C        -2.76468890060922   -1.65553277499422    0.71958392319781
C        -1.82185110441183   -1.20269845152339   -0.20120560944765
C        -0.68077704297819   -0.38183670627032    0.36057534435168
C         0.72773896044420   -0.95764745140746    0.10244409261442
C         1.31069120690034   -1.61384848414803    1.33267976681591
C         1.46741194066280   -2.99593404624492    1.44918832653316
C         0.99082009352246   -3.92643386597347    0.36676669339597
F         1.08846737660868   -5.21718252850579    0.71123838846047
F        -0.32342931813656   -3.73175693484114    0.08370538461605
F         1.64099106311748   -3.79773256713295   -0.79425837153463
C         2.05305998824324   -3.54349694191806    2.58431893308932
C         2.47724102535605   -2.72467188572809    3.61397763314111
C         2.29612068217106   -1.35597414282058    3.52096303007017
C         1.71198385723847   -0.81063839268810    2.39337102087281
N         1.51801157406453    0.19898778991928   -0.30633919036157
C         2.83442426100675    0.03661731910374   -0.60525245314628
C         3.48345661579946    1.20932511538811   -1.27646398769249
C         4.42346180006233    2.00698085266738   -0.62856903560008
C         4.74158912881724    1.75850317650337    0.81758645993859
F         5.36412215438082    2.79527776842316    1.39974243941971
F         5.53322245552322    0.69612746741195    1.01474255244154
F         3.63500386131680    1.54245972859306    1.56419828273103
C         5.05634576964960    3.03961934995496   -1.30583226531973
C         4.75744553724495    3.27303055072151   -2.63589390234304
C         3.83126285594679    2.47831673694719   -3.28944155859209
C         3.19771948797848    1.45032780127994   -2.61442876755617
O         3.41826157207471   -0.99810254059925   -0.37785143698025
C         0.72697590624805    1.38698636765202   -0.49920529026029
C         1.19591558835507    2.54007418564559    0.41618696342539
O         0.74520900613449    2.40303918108473    1.66135771664556
O         1.91962552448648    3.42153535288262    0.05826127582419
N        -0.61461753206049    0.97342255330776   -0.16028114814966
C        -1.57062635307581    1.92888141352873   -0.09185045088220
C        -2.89926913956884    1.49000228755285    0.45107815872920
C        -3.04861641323517    1.43205128604555    1.83256381840288
C        -4.27039348289300    1.10945168066505    2.39498799600139
C        -5.36059801903079    0.84241211005530    1.58330577487719
C        -5.23129516123724    0.91481474370448    0.20887790545055
C        -4.00527126473127    1.24367791719682   -0.35628391617212
C        -3.92652353988003    1.35001775148482   -1.85410227762509
F        -4.67637725618237    0.40435829469478   -2.45504116391422
F        -2.68917879194171    1.20137946613486   -2.34245165921341
F        -4.38475018539838    2.52606677489624   -2.30409629833089
O        -1.34298973041416    3.07994336306710   -0.39593758027058
H        -3.26847989732259   -2.53833554975577   -2.96084842872991
H        -4.93093570308910   -3.25739033480479   -1.30857351590533
H        -4.57893452584532   -2.71356140067739    1.08969454320349
H        -2.62037126915793   -1.42606178358313    1.76460454149413
H        -0.83073366289133   -0.32891773527726    1.44925510250049
H         0.72500815825260   -1.67078065290761   -0.72603126248418
H         2.18092299415087   -4.61235961260299    2.65467619223015
H         2.94582221106723   -3.15718222423295    4.48394105522505
H         2.61780291057915   -0.70876812522224    4.32222612046189
H         1.58334729921669    0.25738549020097    2.32193846127627
H         5.77276298504736    3.65853495807797   -0.78866326039102
H         5.24820597548749    4.07825960758821   -3.15977200438612
H         3.59820813078976    2.65936429516181   -4.32749503654905
H         2.48195966520927    0.82199021538341   -3.12290031270052
H         0.77037781499163    1.76668805082796   -1.53102751049881
H         1.06807994532652    3.13340230805366    2.21514126906457
H        -2.19910707727450    1.65574929246992    2.46077870825971
H        -4.37294871705066    1.07052334494212    3.46878163379791
H        -6.31452976219029    0.59008435555382    2.01893878275979
H        -6.07634520543481    0.72137779224617   -0.43357402016032

          :  Hamiltonian                  GFN2-xTB          :
         :: total energy            -162.011083596452 Eh    ::
         :: gradient norm              0.000338271905 Eh/a0 ::
         :: HOMO-LUMO gap              3.339646195370 eV    ::
         :: SCC energy              -163.685104641474 Eh    ::
         :: -> dispersion             -0.115339133174 Eh    ::
         :: repulsion energy           1.668887167755 Eh    ::

    * Orbital Energies and Occupations

         #    Occupation            Energy/Eh            Energy/eV
      -------------------------------------------------------------
         1        2.0000           -0.8881236             -24.1671
       ...           ...                  ...                  ...
       125        2.0000           -0.4584804             -12.4759
       126        2.0000           -0.4567834             -12.4297
       127        2.0000           -0.4548131             -12.3761
       128        2.0000           -0.4541225             -12.3573
       129        2.0000           -0.4476529             -12.1813
       130        2.0000           -0.4433565             -12.0643
       131        2.0000           -0.4400793             -11.9752
       132        2.0000           -0.4385470             -11.9335
       133        2.0000           -0.4349684             -11.8361
       134        2.0000           -0.4315151             -11.7421
       135        2.0000           -0.4251957             -11.5702
       136        2.0000           -0.4145516             -11.2805
       137        2.0000           -0.4097084             -11.1487 (HOMO)
       138                         -0.2869786              -7.8091 (LUMO)
       139                         -0.2833394              -7.7101
       140                         -0.2763312              -7.5194
       141                         -0.2732585              -7.4357
       142                         -0.2710992              -7.3770
       143                         -0.2674007              -7.2763
       144                         -0.2647405              -7.2040
       145                         -0.2591525              -7.0519
       146                         -0.2581782              -7.0254
       147                         -0.2419809              -6.5846
       148                         -0.2284738              -6.2171
       ...                                ...                  ...
       228                          0.6407927              17.4369
      -------------------------------------------------------------
                  HL-Gap            0.1227297 Eh            3.3396 eV

     #   Z          covCN         q      C6AA      Î±(0)
     1   6 C        2.974    -0.022    28.557     8.766
     2   6 C        3.340     0.489    17.187     6.557
     3   9 F        0.792    -0.197    11.203     3.954
     4   9 F        0.792    -0.209    11.324     3.975
     5   9 F        0.792    -0.208    11.313     3.973
     6   6 C        2.931    -0.017    28.441     8.746
     7   6 C        2.919    -0.019    28.484     8.752
     8   6 C        2.918    -0.020    28.505     8.755
     9   6 C        2.932    -0.032    28.807     8.802
    10   6 C        2.964     0.007    27.873     8.660
    11   6 C        3.815     0.037    19.939     6.355
    12   6 C        3.820     0.050    19.723     6.320
    13   6 C        2.971     0.019    27.585     8.615
    14   6 C        2.976    -0.026    28.635     8.778
    15   6 C        3.335     0.485    17.306     6.590
    16   9 F        0.792    -0.201    11.242     3.961
    17   9 F        0.791    -0.230    11.545     4.014
    18   9 F        0.791    -0.193    11.166     3.947
    19   6 C        2.923    -0.021    28.522     8.758
    20   6 C        2.920    -0.022    28.543     8.761
    21   6 C        2.919    -0.017    28.427     8.743
    22   6 C        2.926    -0.029    28.716     8.788
    23   7 N        2.763    -0.107    23.349     7.177
    24   6 C        2.764     0.274    22.375     7.747
    25   6 C        2.976    -0.008    28.204     8.711
    26   6 C        2.977    -0.016    28.403     8.742
    27   6 C        3.336     0.489    17.251     6.578
    28   9 F        0.792    -0.204    11.280     3.967
    29   9 F        0.791    -0.197    11.202     3.954
    30   9 F        0.791    -0.224    11.489     4.004
    31   6 C        2.921    -0.015    28.398     8.739
    32   6 C        2.921    -0.017    28.442     8.746
    33   6 C        2.919    -0.015    28.375     8.735
    34   6 C        2.925    -0.021    28.537     8.760
    35   8 O        0.859    -0.398    21.645     6.238
    36   6 C        3.760     0.089    19.150     6.239
    37   6 C        2.687     0.363    20.838     7.471
    38   8 O        1.659    -0.359    20.078     6.049
    39   8 O        0.856    -0.375    21.192     6.172
    40   7 N        2.763    -0.097    23.139     7.144
    41   6 C        2.771     0.274    22.366     7.745
    42   6 C        2.974    -0.005    28.138     8.701
    43   6 C        2.926    -0.024    28.592     8.769
    44   6 C        2.919    -0.020    28.495     8.754
    45   6 C        2.920    -0.022    28.554     8.763
    46   6 C        2.923    -0.021    28.535     8.760
    47   6 C        2.977    -0.023    28.581     8.769
    48   6 C        3.336     0.488    17.254     6.578
    49   9 F        0.791    -0.212    11.358     3.981
    50   9 F        0.791    -0.205    11.291     3.969
    51   9 F        0.791    -0.193    11.167     3.947
    52   8 O        0.859    -0.409    21.853     6.268
    53   1 H        0.926     0.078     2.000     2.212
    54   1 H        0.926     0.066     2.124     2.279
    55   1 H        0.926     0.059     2.216     2.328
    56   1 H        0.926     0.046     2.365     2.405
    57   1 H        0.923     0.060     2.204     2.322
    58   1 H        0.924     0.074     2.044     2.236
    59   1 H        0.926     0.069     2.095     2.264
    60   1 H        0.926     0.059     2.209     2.324
    61   1 H        0.926     0.059     2.212     2.326
    62   1 H        0.926     0.065     2.138     2.287
    63   1 H        0.926     0.070     2.087     2.259
    64   1 H        0.926     0.062     2.177     2.308
    65   1 H        0.926     0.063     2.163     2.300
    66   1 H        0.926     0.061     2.182     2.310
    67   1 H        0.923     0.097     1.817     2.108
    68   1 H        0.804     0.349     0.591     1.207
    69   1 H        0.926     0.057     2.234     2.337
    70   1 H        0.926     0.061     2.189     2.314
    71   1 H        0.926     0.062     2.174     2.306
    72   1 H        0.926     0.068     2.108     2.270

Wiberg/Mayer (AO) data.
largest (>0.10) Wiberg bond orders for each atom

     #   Z sym  total        # sym  WBO       # sym  WBO       # sym  WBO
 ---------------------------------------------------------------------------
     1   6 C    3.974 --     6 C    1.410    10 C    1.392     2 C    0.949
                             8 C    0.106
     2   6 C    3.828 --     3 F    0.956     1 C    0.949     4 F    0.948
                             5 F    0.937
     3   9 F    1.081 --     2 C    0.956
     4   9 F    1.074 --     2 C    0.948
     5   9 F    1.070 --     2 C    0.937
     6   6 C    3.986 --     7 C    1.445     1 C    1.410    53 H    0.964
                             9 C    0.109
     7   6 C    3.987 --     6 C    1.445     8 C    1.432    54 H    0.967
                            10 C    0.109
     8   6 C    3.990 --     9 C    1.450     7 C    1.432    55 H    0.968
                             1 C    0.106
     9   6 C    3.989 --     8 C    1.450    10 C    1.406    56 H    0.965
                             6 C    0.109
    10   6 C    3.986 --     9 C    1.406     1 C    1.392    11 C    0.991
                             7 C    0.109
    11   6 C    3.969 --    10 C    0.991    40 N    0.963    12 C    0.957
                            57 H    0.949
    12   6 C    3.966 --    13 C    0.990    11 C    0.957    23 N    0.957
                            58 H    0.951
    13   6 C    3.986 --    22 C    1.412    14 C    1.386    12 C    0.990
                            20 C    0.108
    14   6 C    3.970 --    19 C    1.415    13 C    1.386    15 C    0.950
                            21 C    0.105
    15   6 C    3.822 --    18 F    0.958    16 F    0.955    14 C    0.950
                            17 F    0.921
    16   9 F    1.078 --    15 C    0.955
    17   9 F    1.048 --    15 C    0.921
    18   9 F    1.090 --    15 C    0.958
    19   6 C    3.987 --    20 C    1.442    14 C    1.415    59 H    0.965
                            22 C    0.109
    20   6 C    3.988 --    19 C    1.442    21 C    1.435    60 H    0.969
                            13 C    0.108
    21   6 C    3.990 --    22 C    1.446    20 C    1.435    61 H    0.969
                            14 C    0.105
    22   6 C    3.988 --    21 C    1.446    13 C    1.412    62 H    0.961
                            19 C    0.109
    23   7 N    3.461 --    24 C    1.201    36 C    0.984    12 C    0.957
                            35 O    0.193
    24   6 C    3.949 --    35 O    1.709    23 N    1.201    25 C    0.955
    25   6 C    3.986 --    34 C    1.406    26 C    1.384    24 C    0.955
                            32 C    0.110
    26   6 C    3.973 --    31 C    1.415    25 C    1.384    27 C    0.952
                            33 C    0.106
    27   6 C    3.823 --    29 F    0.954    26 C    0.952    28 F    0.951
                            30 F    0.928
    28   9 F    1.073 --    27 C    0.951
    29   9 F    1.084 --    27 C    0.954
    30   9 F    1.055 --    27 C    0.928
    31   6 C    3.986 --    32 C    1.440    26 C    1.415    63 H    0.965
                            34 C    0.109
    32   6 C    3.989 --    31 C    1.440    33 C    1.438    64 H    0.968
                            25 C    0.110
    33   6 C    3.989 --    34 C    1.441    32 C    1.438    65 H    0.967
                            26 C    0.106
    34   6 C    3.988 --    33 C    1.441    25 C    1.406    66 H    0.966
                            31 C    0.109
    35   8 O    2.047 --    24 C    1.709    23 N    0.193
    36   6 C    3.959 --    23 N    0.984    40 N    0.981    67 H    0.936
                            37 C    0.906
    37   6 C    3.923 --    39 O    1.795    38 O    1.152    36 C    0.906
    38   8 O    2.219 --    37 C    1.152    68 H    0.853    39 O    0.181
    39   8 O    2.075 --    37 C    1.795    38 O    0.181
    40   7 N    3.476 --    41 C    1.222    36 C    0.981    11 C    0.963
                            52 O    0.195
    41   6 C    3.951 --    52 O    1.690    40 N    1.222    42 C    0.952
    42   6 C    3.987 --    43 C    1.401    47 C    1.392    41 C    0.952
                            45 C    0.110
    43   6 C    3.989 --    44 C    1.446    42 C    1.401    69 H    0.967
                            46 C    0.111
    44   6 C    3.989 --    43 C    1.446    45 C    1.433    70 H    0.968
                            47 C    0.106
    45   6 C    3.989 --    46 C    1.445    44 C    1.433    71 H    0.968
                            42 C    0.110
    46   6 C    3.987 --    45 C    1.445    47 C    1.411    72 H    0.966
                            43 C    0.111
    47   6 C    3.975 --    46 C    1.411    42 C    1.392    48 C    0.949
                            44 C    0.106
    48   6 C    3.828 --    51 F    0.953    47 C    0.949    50 F    0.949
                            49 F    0.939
    49   9 F    1.064 --    48 C    0.939
    50   9 F    1.079 --    48 C    0.949
    51   9 F    1.085 --    48 C    0.953
    52   8 O    2.040 --    41 C    1.690    40 N    0.195
    53   1 H    0.994 --     6 C    0.964
    54   1 H    0.995 --     7 C    0.967
    55   1 H    0.996 --     8 C    0.968
    56   1 H    0.998 --     9 C    0.965
    57   1 H    0.996 --    11 C    0.949
    58   1 H    0.994 --    12 C    0.951
    59   1 H    0.995 --    19 C    0.965
    60   1 H    0.996 --    20 C    0.969
    61   1 H    0.996 --    21 C    0.969
    62   1 H    0.995 --    22 C    0.961
    63   1 H    0.995 --    31 C    0.965
    64   1 H    0.995 --    32 C    0.968
    65   1 H    0.995 --    33 C    0.967
    66   1 H    0.996 --    34 C    0.966
    67   1 H    0.990 --    36 C    0.936
    68   1 H    0.878 --    38 O    0.853
    69   1 H    0.996 --    43 C    0.967
    70   1 H    0.995 --    44 C    0.968
    71   1 H    0.995 --    45 C    0.968
    72   1 H    0.995 --    46 C    0.966
 ---------------------------------------------------------------------------

molecular dipole:
                 x           y           z       tot (Debye)
 q only:       -2.085      -0.154       2.729
   full:       -2.170      -0.025       2.753       8.910

           -------------------------------------------------
          | TOTAL ENERGY             -162.011083596452 Eh   |
          | GRADIENT NORM               0.000338271905 Eh/Î± |
          | HOMO-LUMO GAP               3.339646195370 eV   |
           -------------------------------------------------

 * finished run on 2022/03/16 at 21:52:26.803
