   * xtb version 6.3.3 (4ae9cef) compiled by 'conda@95abc7406d43' on 2020-10-14
          program call               : xtb acid_328.xyz --opt --chrg 0 --uhf 0 --gfn 2
          number of atoms            :                    54
          number of electrons        :                   182
          charge                     :                     0
          spin                       :                   0.0

   ID    Z sym.   atoms
    1    6 C      1-14, 16-19, 21, 24, 25, 29-32, 34
    2    7 N      15, 28
    3   35 Br     20, 33
    4   16 S      22, 35
    5    8 O      23, 26, 27, 36
    6    1 H      37-54

          :  Hamiltonian                  GFN2-xTB          :
 * total energy  :  -101.6241184 Eh     change       -0.7368413E-08 Eh
 * total energy  :  -101.6357692 Eh     change       -0.1165076E-01 Eh
 * total energy  :  -101.6393139 Eh     change       -0.3544709E-02 Eh
 * total energy  :  -101.6401207 Eh     change       -0.8068305E-03 Eh
 * total energy  :  -101.6405238 Eh     change       -0.4030871E-03 Eh
 * total energy  :  -101.6408511 Eh     change       -0.3273347E-03 Eh
 * total energy  :  -101.6411966 Eh     change       -0.3455064E-03 Eh
 * total energy  :  -101.6415791 Eh     change       -0.3824921E-03 Eh
 * total energy  :  -101.6420032 Eh     change       -0.4240742E-03 Eh
 * total energy  :  -101.6424231 Eh     change       -0.4199119E-03 Eh
 * total energy  :  -101.6455900 Eh     change       -0.1995721E-04 Eh
 * total energy  :  -101.6456015 Eh     change       -0.1153594E-04 Eh
 * total energy  :  -101.6456074 Eh     change       -0.5845243E-05 Eh
 * total energy  :  -101.6456131 Eh     change       -0.5702962E-05 Eh
 * total energy  :  -101.6456250 Eh     change       -0.1191583E-04 Eh
 * total energy  :  -101.6456331 Eh     change       -0.8127261E-05 Eh
 * total energy  :  -101.6456339 Eh     change       -0.8141899E-06 Eh
 * total energy  :  -101.6456394 Eh     change       -0.5447283E-05 Eh
 * total energy  :  -101.6456413 Eh     change       -0.1972337E-05 Eh
   *** GEOMETRY OPTIMIZATION CONVERGED AFTER 74 ITERATIONS ***

 final structure:
================
54
 xtb: 6.3.3 (4ae9cef)
C         2.30358731946939    0.38582367937745    2.41459107292827
C         2.70868240726735    0.84785200976549    3.65543382202073
C         2.12830828191196    0.34948052025711    4.80819622846256
C         1.15363016061529   -0.62970361634471    4.71477196075021
C         0.74617293277907   -1.08966962534220    3.47587916254622
C         1.30256650693687   -0.57091404284493    2.31259806025348
C         0.84492601120804   -1.08362464702204    0.96632875938189
C        -0.68930157359061   -1.10324300927842    0.78983974297409
C        -1.15117264783486   -2.31876436373610    0.02489087974237
C        -1.81363370283718   -3.34539316460098    0.68186744426646
C        -2.20761658429680   -4.47779964975503   -0.00803692307483
C        -1.94102273932827   -4.59469533953569   -1.36125279249987
C        -1.28531958996179   -3.57163367893333   -2.02378677055420
C        -0.89376424021254   -2.43830479952484   -1.33497867300318
N        -0.95656966967508    0.12366454627140    0.04398831360181
C        -2.22345121024282    0.61191163372802    0.03820613845912
C        -2.51481404279431    1.88764669189521   -0.64577672892213
C        -3.72609087837922    2.50936534757981   -0.50390852854595
C        -3.81920314394528    3.69699524025297   -1.25464797945481
Br       -5.35080848847902    4.79859418146939   -1.26248415085332
C        -2.69530929325599    3.97850394796786   -1.96927119666318
S        -1.48942874356499    2.78748621662076   -1.72648915460713
O        -3.12609466823079    0.00414629633882    0.58182251209932
C         0.26643764332366    0.76396363449817   -0.36574385796474
C         0.57116400957810    2.02390959988567    0.48194419999038
O        -0.22958794194872    2.13349243005672    1.53038197745706
O         1.44709805243501    2.79937296330850    0.21908904740095
N         1.27884492698716   -0.23256931058278   -0.13222059688856
C         2.19782793602132   -0.70348454641788   -1.03017008553037
C         2.43915721792522    0.10379812866134   -2.23755409176590
C         2.46883855032549    1.45462244275258   -2.44975274234999
C         2.80878523187653    1.76153204306615   -3.78281517933008
Br        2.90539328567915    3.53324873007058   -4.42976473368219
C         3.03731003126275    0.66517538887825   -4.55894507162139
S         2.86278106343759   -0.78458111674342   -3.66691903701469
O         2.79104802932985   -1.74484828521217   -0.83889720333171
H         2.78050238549058    0.76664402009478    1.52367932785223
H         3.48433911088187    1.59657237518621    3.71716112873498
H         2.44263720768726    0.71218749761166    5.77518860770328
H         0.71074616109803   -1.03981427564190    5.60994874575917
H        -0.00000440810155   -1.86777053578328    3.41469485923378
H         1.27252485899030   -2.08014540540453    0.79996232736478
H        -1.21782746616405   -1.04747644814629    1.74587795477412
H        -2.03001344945355   -3.25266000894557    1.73578324184409
H        -2.72634720808645   -5.26912057824741    0.51178787041280
H        -2.24686360145772   -5.47883253900322   -1.89998244980608
H        -1.07691129394638   -3.65526241226297   -3.08002852765875
H        -0.38817408892812   -1.64274922978900   -1.86365594761155
H        -4.50976702703795    2.11731827172361    0.11795475494387
H        -2.50861489399870    4.80989651972673   -2.61936212881122
H         0.25971601891660    1.05263032881674   -1.42528733515369
H         0.00644399430865    2.90282702261698    2.07479380657707
H         2.29976928270628    2.20344474555633   -1.69695407039403
H         3.29847497730798    0.64095417508116   -5.59797799043234

          :  Hamiltonian                  GFN2-xTB          :
         :: total energy            -101.645641335812 Eh    ::
         :: gradient norm              0.000814027675 Eh/a0 ::
         :: HOMO-LUMO gap              2.818732655332 eV    ::
         :: SCC energy              -102.978415677618 Eh    ::
         :: -> dispersion             -0.085471314222 Eh    ::
         :: repulsion energy           1.330645068471 Eh    ::

    * Orbital Energies and Occupations

         #    Occupation            Energy/Eh            Energy/eV
      -------------------------------------------------------------
         1        2.0000           -0.8504980             -23.1432
       ...           ...                  ...                  ...
        79        2.0000           -0.4339007             -11.8070
        80        2.0000           -0.4318509             -11.7513
        81        2.0000           -0.4282075             -11.6521
        82        2.0000           -0.4261031             -11.5949
        83        2.0000           -0.4233663             -11.5204
        84        2.0000           -0.4222301             -11.4895
        85        2.0000           -0.4208039             -11.4507
        86        2.0000           -0.4183120             -11.3828
        87        2.0000           -0.4168704             -11.3436
        88        2.0000           -0.4146190             -11.2824
        89        2.0000           -0.4121953             -11.2164
        90        2.0000           -0.4093226             -11.1382
        91        2.0000           -0.4071394             -11.0788 (HOMO)
        92                         -0.3035528              -8.2601 (LUMO)
        93                         -0.2968812              -8.0785
        94                         -0.2826544              -7.6914
        95                         -0.2489098              -6.7732
        96                         -0.2447613              -6.6603
        97                         -0.2416657              -6.5761
        98                         -0.2407830              -6.5520
        99                         -0.2370374              -6.4501
       100                         -0.2350576              -6.3962
       101                         -0.2349299              -6.3928
       102                         -0.2341294              -6.3710
       ...                                ...                  ...
       182                          0.6657318              18.1155
      -------------------------------------------------------------
                  HL-Gap            0.1035865 Eh            2.8187 eV

     #   Z          covCN         q      C6AA      Î±(0)
     1   6 C        2.923    -0.034    28.856     8.809
     2   6 C        2.920    -0.028    28.701     8.785
     3   6 C        2.920    -0.030    28.748     8.792
     4   6 C        2.920    -0.026    28.656     8.778
     5   6 C        2.924    -0.036    28.888     8.814
     6   6 C        2.970     0.002    27.968     8.675
     7   6 C        3.840     0.036    19.943     6.353
     8   6 C        3.833     0.039    19.904     6.348
     9   6 C        2.973     0.007    27.866     8.659
    10   6 C        2.924    -0.029    28.729     8.790
    11   6 C        2.920    -0.025    28.619     8.773
    12   6 C        2.921    -0.027    28.674     8.781
    13   6 C        2.920    -0.026    28.643     8.776
    14   6 C        2.924    -0.028    28.705     8.786
    15   7 N        2.764    -0.110    23.393     7.183
    16   6 C        2.772     0.270    22.433     7.757
    17   6 C        2.990    -0.017    28.413     8.744
    18   6 C        3.160    -0.035    28.526     8.731
    19   6 C        3.125     0.074    26.157     8.375
    20  35 Br       1.032    -0.139   188.854    22.158
    21   6 C        2.998    -0.024    28.585     8.770
    22  16 S        2.332    -0.012   141.542    20.024
    23   8 O        0.861    -0.420    22.081     6.300
    24   6 C        3.769     0.086    19.187     6.242
    25   6 C        2.688     0.355    20.977     7.495
    26   8 O        1.659    -0.352    19.942     6.028
    27   8 O        0.856    -0.385    21.381     6.199
    28   7 N        2.768    -0.113    23.473     7.196
    29   6 C        2.808     0.272    22.406     7.755
    30   6 C        3.002    -0.024    28.583     8.770
    31   6 C        3.138    -0.060    29.258     8.853
    32   6 C        3.128     0.073    26.186     8.378
    33  35 Br       1.030    -0.147   189.087    22.171
    34   6 C        2.994    -0.037    28.905     8.819
    35  16 S        2.352     0.076   137.983    19.770
    36   8 O        0.860    -0.410    21.886     6.272
    37   1 H        0.926     0.034     2.534     2.489
    38   1 H        0.926     0.040     2.452     2.449
    39   1 H        0.926     0.039     2.460     2.453
    40   1 H        0.926     0.041     2.437     2.441
    41   1 H        0.926     0.036     2.498     2.472
    42   1 H        0.924     0.091     1.866     2.136
    43   1 H        0.924     0.077     2.006     2.215
    44   1 H        0.926     0.038     2.470     2.457
    45   1 H        0.926     0.041     2.432     2.438
    46   1 H        0.926     0.040     2.454     2.450
    47   1 H        0.926     0.038     2.478     2.462
    48   1 H        0.926     0.019     2.753     2.595
    49   1 H        0.926     0.087     1.907     2.160
    50   1 H        0.926     0.075     2.030     2.228
    51   1 H        0.923     0.078     2.004     2.214
    52   1 H        0.804     0.348     0.592     1.208
    53   1 H        0.926     0.086     1.923     2.168
    54   1 H        0.926     0.074     2.046     2.237

Wiberg/Mayer (AO) data.
largest (>0.10) Wiberg bond orders for each atom

     #   Z sym  total        # sym  WBO       # sym  WBO       # sym  WBO
 ---------------------------------------------------------------------------
     1   6 C    3.991 --     2 C    1.439     6 C    1.417    37 H    0.967
                             4 C    0.110
     2   6 C    3.992 --     3 C    1.443     1 C    1.439    38 H    0.970
                             5 C    0.112
     3   6 C    3.992 --     2 C    1.443     4 C    1.434    39 H    0.971
                             6 C    0.110
     4   6 C    3.991 --     5 C    1.449     3 C    1.434    40 H    0.970
                             1 C    0.110
     5   6 C    3.991 --     4 C    1.449     6 C    1.407    41 H    0.966
                             2 C    0.112
     6   6 C    3.984 --     1 C    1.417     5 C    1.407     7 C    0.986
                             3 C    0.110
     7   6 C    3.957 --     6 C    0.986    28 N    0.962     8 C    0.955
                            42 H    0.938
     8   6 C    3.957 --     9 C    0.987     7 C    0.955    15 N    0.953
                            43 H    0.949
     9   6 C    3.984 --    10 C    1.414    14 C    1.412     8 C    0.987
                            12 C    0.109
    10   6 C    3.990 --    11 C    1.444     9 C    1.414    44 H    0.968
                            13 C    0.111
    11   6 C    3.992 --    10 C    1.444    12 C    1.440    45 H    0.970
                            14 C    0.112
    12   6 C    3.990 --    11 C    1.440    13 C    1.438    46 H    0.971
                             9 C    0.109
    13   6 C    3.992 --    14 C    1.446    12 C    1.438    47 H    0.971
                            10 C    0.111
    14   6 C    3.992 --    13 C    1.446     9 C    1.412    48 H    0.969
                            11 C    0.112
    15   7 N    3.469 --    16 C    1.204    24 C    0.989     8 C    0.953
                            23 O    0.187
    16   6 C    3.956 --    23 O    1.652    15 N    1.204    17 C    1.020
    17   6 C    3.943 --    18 C    1.554    22 S    1.144    16 C    1.020
                            21 C    0.109
    18   6 C    3.983 --    17 C    1.554    19 C    1.272    49 H    0.958
    19   6 C    3.938 --    21 C    1.560    18 C    1.272    20 Br   0.992
    20  35 Br   1.134 --    19 C    0.992
    21   6 C    3.947 --    19 C    1.560    22 S    1.204    50 H    0.966
                            17 C    0.109
    22  16 S    2.672 --    21 C    1.204    17 C    1.144
    23   8 O    2.014 --    16 C    1.652    15 N    0.187
    24   6 C    3.973 --    15 N    0.989    28 N    0.989    51 H    0.926
                            25 C    0.904
    25   6 C    3.919 --    27 O    1.767    26 O    1.172    24 C    0.904
    26   8 O    2.235 --    25 C    1.172    52 H    0.852    27 O    0.184
    27   8 O    2.065 --    25 C    1.767    26 O    0.184
    28   7 N    3.455 --    29 C    1.173    24 C    0.989     7 C    0.962
                            36 O    0.180
    29   6 C    3.951 --    36 O    1.677    28 N    1.173    30 C    1.022
    30   6 C    3.949 --    31 C    1.543    35 S    1.161    29 C    1.022
                            34 C    0.102
    31   6 C    3.981 --    30 C    1.543    32 C    1.273    53 H    0.949
    32   6 C    3.936 --    34 C    1.554    31 C    1.273    33 Br   0.988
    33  35 Br   1.126 --    32 C    0.988
    34   6 C    3.950 --    32 C    1.554    35 S    1.230    54 H    0.967
                            30 C    0.102
    35  16 S    2.695 --    34 C    1.230    30 C    1.161
    36   8 O    2.032 --    29 C    1.677    28 N    0.180
    37   1 H    0.999 --     1 C    0.967
    38   1 H    0.998 --     2 C    0.970
    39   1 H    0.998 --     3 C    0.971
    40   1 H    0.998 --     4 C    0.970
    41   1 H    0.999 --     5 C    0.966
    42   1 H    0.991 --     7 C    0.938
    43   1 H    0.993 --     8 C    0.949
    44   1 H    0.998 --    10 C    0.968
    45   1 H    0.998 --    11 C    0.970
    46   1 H    0.998 --    12 C    0.971
    47   1 H    0.998 --    13 C    0.971
    48   1 H    1.000 --    14 C    0.969
    49   1 H    0.992 --    18 C    0.958
    50   1 H    0.994 --    21 C    0.966
    51   1 H    0.994 --    24 C    0.926
    52   1 H    0.878 --    26 O    0.852
    53   1 H    0.993 --    31 C    0.949
    54   1 H    0.994 --    34 C    0.967
 ---------------------------------------------------------------------------

molecular dipole:
                 x           y           z       tot (Debye)
 q only:        0.249      -0.493       0.598
   full:        0.397      -0.488       0.774       2.534

           -------------------------------------------------
          | TOTAL ENERGY             -101.645641335812 Eh   |
          | GRADIENT NORM               0.000814027675 Eh/Î± |
          | HOMO-LUMO GAP               2.818732655332 eV   |
           -------------------------------------------------

 * finished run on 2022/03/16 at 23:52:58.744
