   * xtb version 6.3.3 (4ae9cef) compiled by 'conda@95abc7406d43' on 2020-10-14
          program call               : xtb acid_114.xyz --opt --chrg 0 --uhf 0 --gfn 2
          number of atoms            :                    72
          number of electrons        :                   214
          charge                     :                     0
          spin                       :                   0.0

   ID    Z sym.   atoms
    1    8 O      1, 12, 13, 22
    2    6 C      2-8, 10, 11, 15-21, 23-44
    3    7 N      9, 14
    4    1 H      45-72

          :  Hamiltonian                  GFN2-xTB          :
 * total energy  :  -117.7817341 Eh     change       -0.4491710E-08 Eh
 * total energy  :  -117.7972657 Eh     change       -0.1553151E-01 Eh
 * total energy  :  -117.8015498 Eh     change       -0.4284106E-02 Eh
 * total energy  :  -117.8025685 Eh     change       -0.1018727E-02 Eh
 * total energy  :  -117.8032413 Eh     change       -0.6727814E-03 Eh
 * total energy  :  -117.8035234 Eh     change       -0.2821277E-03 Eh
 * total energy  :  -117.8037761 Eh     change       -0.2526713E-03 Eh
 * total energy  :  -117.8040686 Eh     change       -0.2925358E-03 Eh
 * total energy  :  -117.8044018 Eh     change       -0.3331857E-03 Eh
 * total energy  :  -117.8047539 Eh     change       -0.3521633E-03 Eh
 * total energy  :  -117.8084355 Eh     change       -0.8955123E-05 Eh
 * total energy  :  -117.8084423 Eh     change       -0.6779999E-05 Eh
 * total energy  :  -117.8084498 Eh     change       -0.7470280E-05 Eh
 * total energy  :  -117.8084593 Eh     change       -0.9493977E-05 Eh
 * total energy  :  -117.8084699 Eh     change       -0.1063731E-04 Eh
 * total energy  :  -117.8084792 Eh     change       -0.9293086E-05 Eh
 * total energy  :  -117.8084862 Eh     change       -0.6984696E-05 Eh
 * total energy  :  -117.8084917 Eh     change       -0.5551486E-05 Eh
 * total energy  :  -117.8084967 Eh     change       -0.4926695E-05 Eh
   *** GEOMETRY OPTIMIZATION CONVERGED AFTER 67 ITERATIONS ***

 final structure:
================
72
 xtb: 6.3.3 (4ae9cef)
O        -0.53724809646676   -0.19224038492239    3.38023087901838
C         0.16148424274878    0.36967344532228    2.56147044055652
C         1.52669539601504    0.89416298518516    2.85596140526154
C         1.83037534473568    2.24076204192651    2.70186722485097
C         3.10902187352511    2.69542975536992    2.97026793623090
C         4.08942943745651    1.80914342342110    3.38378149133444
C         3.78296077964917    0.47022208185988    3.55984678556206
C         2.50170243775554    0.01483369402815    3.31126476560997
N        -0.26135864426186    0.57115514714757    1.28173174423820
C        -1.50061045844551   -0.03930713317113    0.83752333200584
C        -2.68268799133938    0.94236346105974    0.91167050217409
O        -2.46839609753553    1.92150509191722    1.78099837737548
O        -3.69735610535088    0.81427789362386    0.28502014795050
N        -1.23523682208440   -0.43538840543097   -0.51493023677839
C        -1.33326836175850   -1.68072327590618   -1.06622533073457
C        -2.09231739430716   -2.68839627408840   -0.27728007141813
C        -1.49938026027621   -3.93017569079864   -0.06951298123963
C        -2.16669504486629   -4.90517120063794    0.64845918448679
C        -3.43647677507449   -4.65384450310724    1.14227414867329
C        -4.04016318637725   -3.42865747897550    0.91192578399661
C        -3.37293098639992   -2.44217235254670    0.20665461961927
O        -0.81812460388779   -1.93491111698982   -2.13602905782019
C        -0.30866338221896    0.54849555877595   -1.06641549470899
C        -1.09547005806176    1.70194583932725   -1.64296916049001
C        -1.68276063334750    1.51656435269266   -2.86992128118084
C        -2.49075078826186    2.50863265901785   -3.45523056707752
C        -2.69790769948370    3.72662352295475   -2.75700294782377
C        -3.50543595086477    4.72306212522790   -3.34384939672866
C        -4.08250052006027    4.52047417340237   -4.56566016792104
C        -3.88029428023531    3.31379934845808   -5.25561651064026
C        -3.10219574239177    2.33002338222815   -4.71436861921770
C        -2.08922055522636    3.89247182376472   -1.49738112361657
C        -1.31206433301340    2.90863993633243   -0.95193410971243
C         0.60048226063702    0.86539856800838    0.14150008614060
C         1.83329291763400   -0.00582504259639    0.13806527160242
C         1.75876423040810   -1.33720700350181    0.45603796410932
C         2.91083671648919   -2.14575687336912    0.47801718678232
C         4.16649589318957   -1.56542343085081    0.16201401860125
C         5.32059255216893   -2.37458442685140    0.20027391951390
C         5.23413605420255   -3.69713957236292    0.53397984298313
C         3.99111573002153   -4.27111701375441    0.84571329292795
C         2.85450953770423   -3.51320463663704    0.81922290829390
C         4.21426864862337   -0.19767537739080   -0.17677006829542
C         3.07908095367400    0.55992802097158   -0.19112868516021
H         1.06054855346740    2.93233118597124    2.39079772589404
H         3.34228991057128    3.74369798701022    2.85378855175942
H         5.09031907859541    2.16465632219596    3.57864236703521
H         4.54234918779641   -0.22095868448712    3.89355741686398
H         2.25168931695139   -1.02579304709686    3.45241270319266
H        -1.75740445167185   -0.88641710943404    1.49304499718435
H        -3.24812865751466    2.49670603650964    1.85010479364890
H        -0.51592679547202   -4.11669772951030   -0.47628530695491
H        -1.69922141494228   -5.86383472957578    0.81824095374453
H        -3.95907849130299   -5.41678759058710    1.70009986664103
H        -5.03600478880440   -3.23819767840092    1.28325150750958
H        -3.84740644723825   -1.49205779106491    0.01378549508614
H         0.25366341011253    0.05628488106995   -1.86744418327214
H        -1.53238076125964    0.58570994465030   -3.39778228512780
H        -3.65908025405445    5.64976515741601   -2.80901618485264
H        -4.70028823975464    5.28684211205128   -5.01059487011323
H        -4.34759652771472    3.17188055469414   -6.21907441909954
H        -2.94308281253023    1.39901514176660   -5.23863318803479
H        -2.25016587539889    4.81748308287144   -0.96117719765650
H        -0.87023502952447    3.06527591471149    0.02068728032782
H         0.90565958497821    1.91527934961892    0.13836092391518
H         0.81357862122411   -1.79193667475501    0.71824682999727
H         6.27491098107660   -1.92846876407973   -0.04094331899536
H         6.12176052298129   -4.31207323926765    0.56046081181794
H         3.94283164718716   -5.31795171546504    1.10736423584996
H         1.89509460536668   -3.94794748272774    1.06179400232325
H         5.16919817819074    0.24469090832058   -0.42096875269608
H         3.12637371366084    1.60883751945826   -0.44626620532956

          :  Hamiltonian                  GFN2-xTB          :
         :: total energy            -117.808496666317 Eh    ::
         :: gradient norm              0.000278302508 Eh/a0 ::
         :: HOMO-LUMO gap              3.086831497696 eV    ::
         :: SCC energy              -119.748843437790 Eh    ::
         :: -> dispersion             -0.107564659378 Eh    ::
         :: repulsion energy           1.937269018446 Eh    ::

    * Orbital Energies and Occupations

         #    Occupation            Energy/Eh            Energy/eV
      -------------------------------------------------------------
         1        2.0000           -0.7670055             -20.8713
       ...           ...                  ...                  ...
        95        2.0000           -0.4198629             -11.4251
        96        2.0000           -0.4185595             -11.3896
        97        2.0000           -0.4166175             -11.3367
        98        2.0000           -0.4129340             -11.2365
        99        2.0000           -0.4119658             -11.2102
       100        2.0000           -0.4085775             -11.1180
       101        2.0000           -0.4056184             -11.0374
       102        2.0000           -0.4045616             -11.0087
       103        2.0000           -0.4018704             -10.9354
       104        2.0000           -0.3970767             -10.8050
       105        2.0000           -0.3928820             -10.6909
       106        2.0000           -0.3856479             -10.4940
       107        2.0000           -0.3823933             -10.4055 (HOMO)
       108                         -0.2689543              -7.3186 (LUMO)
       109                         -0.2671968              -7.2708
       110                         -0.2539664              -6.9108
       111                         -0.2509826              -6.8296
       112                         -0.2504705              -6.8156
       113                         -0.2379623              -6.4753
       114                         -0.2349789              -6.3941
       115                         -0.2345230              -6.3817
       116                         -0.2297148              -6.2509
       117                         -0.2073301              -5.6417
       118                         -0.1971397              -5.3644
       ...                                ...                  ...
       204                          0.6951537              18.9161
      -------------------------------------------------------------
                  HL-Gap            0.1134390 Eh            3.0868 eV

     #   Z          covCN         q      C6AA      Î±(0)
     1   8 O        0.859    -0.430    22.286     6.329
     2   6 C        2.766     0.274    22.362     7.744
     3   6 C        2.977    -0.012    28.309     8.728
     4   6 C        2.922    -0.028    28.706     8.786
     5   6 C        2.920    -0.028    28.690     8.784
     6   6 C        2.920    -0.027    28.666     8.780
     7   6 C        2.920    -0.026    28.643     8.776
     8   6 C        2.925    -0.020    28.496     8.754
     9   7 N        2.765    -0.123    23.670     7.226
    10   6 C        3.789     0.096    19.007     6.209
    11   6 C        2.688     0.357    20.941     7.489
    12   8 O        1.659    -0.352    19.939     6.028
    13   8 O        0.856    -0.393    21.533     6.221
    14   7 N        2.768    -0.118    23.560     7.209
    15   6 C        2.763     0.274    22.375     7.746
    16   6 C        2.976    -0.018    28.453     8.750
    17   6 C        2.925    -0.020    28.518     8.758
    18   6 C        2.919    -0.027    28.664     8.780
    19   6 C        2.920    -0.025    28.620     8.773
    20   6 C        2.920    -0.025    28.627     8.774
    21   6 C        2.920    -0.035    28.859     8.810
    22   8 O        0.859    -0.425    22.178     6.314
    23   6 C        3.855     0.038    19.898     6.344
    24   6 C        2.968    -0.003    28.100     8.695
    25   6 C        2.927    -0.036    28.901     8.816
    26   6 C        2.987     0.018    27.606     8.619
    27   6 C        2.987     0.014    27.692     8.632
    28   6 C        2.918    -0.034    28.853     8.808
    29   6 C        2.916    -0.028    28.704     8.785
    30   6 C        2.916    -0.028    28.696     8.784
    31   6 C        2.918    -0.032    28.798     8.800
    32   6 C        2.918    -0.036    28.894     8.815
    33   6 C        2.917    -0.041    29.019     8.834
    34   6 C        3.823     0.035    19.975     6.360
    35   6 C        2.970    -0.005    28.153     8.703
    36   6 C        2.923    -0.035    28.864     8.810
    37   6 C        2.987     0.016    27.653     8.626
    38   6 C        2.988     0.014    27.702     8.634
    39   6 C        2.918    -0.033    28.831     8.805
    40   6 C        2.916    -0.028    28.704     8.786
    41   6 C        2.916    -0.028    28.691     8.783
    42   6 C        2.919    -0.032    28.792     8.799
    43   6 C        2.917    -0.033    28.830     8.805
    44   6 C        2.919    -0.038    28.934     8.821
    45   1 H        0.926     0.034     2.536     2.490
    46   1 H        0.926     0.038     2.474     2.460
    47   1 H        0.926     0.038     2.469     2.457
    48   1 H        0.926     0.039     2.461     2.453
    49   1 H        0.926     0.042     2.418     2.432
    50   1 H        0.923     0.091     1.872     2.140
    51   1 H        0.804     0.343     0.606     1.223
    52   1 H        0.926     0.045     2.379     2.412
    53   1 H        0.926     0.038     2.470     2.458
    54   1 H        0.926     0.038     2.471     2.458
    55   1 H        0.926     0.040     2.447     2.446
    56   1 H        0.926     0.055     2.261     2.351
    57   1 H        0.924     0.082     1.962     2.191
    58   1 H        0.926     0.051     2.308     2.376
    59   1 H        0.926     0.032     2.556     2.500
    60   1 H        0.926     0.033     2.546     2.495
    61   1 H        0.926     0.034     2.528     2.487
    62   1 H        0.926     0.039     2.461     2.453
    63   1 H        0.925     0.033     2.546     2.495
    64   1 H        0.926     0.031     2.578     2.511
    65   1 H        0.924     0.055     2.262     2.352
    66   1 H        0.926     0.027     2.623     2.532
    67   1 H        0.926     0.034     2.527     2.486
    68   1 H        0.926     0.034     2.526     2.486
    69   1 H        0.926     0.035     2.517     2.481
    70   1 H        0.926     0.034     2.524     2.484
    71   1 H        0.926     0.038     2.472     2.459
    72   1 H        0.926     0.029     2.594     2.519

Wiberg/Mayer (AO) data.
largest (>0.10) Wiberg bond orders for each atom

     #   Z sym  total        # sym  WBO       # sym  WBO       # sym  WBO
 ---------------------------------------------------------------------------
     1   8 O    2.014 --     2 C    1.690     9 N    0.185
     2   6 C    3.944 --     1 O    1.690     9 N    1.199     3 C    0.970
     3   6 C    3.988 --     4 C    1.403     8 C    1.402     2 C    0.970
                             6 C    0.110
     4   6 C    3.991 --     5 C    1.445     3 C    1.403    45 H    0.969
                             7 C    0.110
     5   6 C    3.992 --     4 C    1.445     6 C    1.437    46 H    0.970
                             8 C    0.111
     6   6 C    3.991 --     7 C    1.438     5 C    1.437    47 H    0.971
                             3 C    0.110
     7   6 C    3.991 --     8 C    1.446     6 C    1.438    48 H    0.970
                             4 C    0.110
     8   6 C    3.990 --     7 C    1.446     3 C    1.402    49 H    0.969
                             5 C    0.111
     9   7 N    3.447 --     2 C    1.199    10 C    0.975    34 C    0.962
                             1 O    0.185
    10   6 C    3.970 --    14 N    0.996     9 N    0.975    50 H    0.921
                            11 C    0.920
    11   6 C    3.920 --    13 O    1.769    12 O    1.162    10 C    0.920
    12   8 O    2.229 --    11 C    1.162    51 H    0.857    13 O    0.181
    13   8 O    2.057 --    11 C    1.769    12 O    0.181
    14   7 N    3.455 --    15 C    1.186    10 C    0.996    23 C    0.954
                            22 O    0.182
    15   6 C    3.942 --    22 O    1.688    14 N    1.186    16 C    0.982
    16   6 C    3.987 --    17 C    1.397    21 C    1.397    15 C    0.982
                            19 C    0.107
    17   6 C    3.990 --    18 C    1.448    16 C    1.397    52 H    0.968
                            20 C    0.111
    18   6 C    3.991 --    17 C    1.448    19 C    1.436    53 H    0.970
                            21 C    0.110
    19   6 C    3.991 --    20 C    1.439    18 C    1.436    54 H    0.971
                            16 C    0.107
    20   6 C    3.992 --    21 C    1.445    19 C    1.439    55 H    0.970
                            17 C    0.111
    21   6 C    3.990 --    20 C    1.445    16 C    1.397    56 H    0.964
                            18 C    0.110
    22   8 O    2.017 --    15 C    1.688    14 N    0.182
    23   6 C    3.958 --    24 C    0.984    34 C    0.958    14 N    0.954
                            57 H    0.949
    24   6 C    3.984 --    25 C    1.517    33 C    1.303    23 C    0.984
    25   6 C    3.989 --    24 C    1.517    26 C    1.290    58 H    0.965
                            32 C    0.117
    26   6 C    3.990 --    25 C    1.290    31 C    1.274    27 C    1.248
    27   6 C    3.990 --    32 C    1.283    28 C    1.278    26 C    1.248
    28   6 C    3.992 --    29 C    1.560    27 C    1.278    59 H    0.968
                            31 C    0.119
    29   6 C    3.990 --    28 C    1.560    30 C    1.318    60 H    0.971
    30   6 C    3.992 --    31 C    1.562    29 C    1.318    61 H    0.971
    31   6 C    3.990 --    30 C    1.562    26 C    1.274    62 H    0.968
                            28 C    0.119
    32   6 C    3.991 --    33 C    1.552    27 C    1.283    63 H    0.968
                            25 C    0.117
    33   6 C    3.991 --    32 C    1.552    24 C    1.303    64 H    0.964
    34   6 C    3.966 --    35 C    0.988     9 N    0.962    23 C    0.958
                            65 H    0.951
    35   6 C    3.986 --    36 C    1.522    44 C    1.296    34 C    0.988
    36   6 C    3.991 --    35 C    1.522    37 C    1.285    66 H    0.965
                            43 C    0.115
    37   6 C    3.990 --    36 C    1.285    42 C    1.278    38 C    1.250
    38   6 C    3.990 --    39 C    1.281    43 C    1.278    37 C    1.250
    39   6 C    3.992 --    40 C    1.557    38 C    1.281    67 H    0.968
                            42 C    0.118
    40   6 C    3.989 --    39 C    1.557    41 C    1.320    68 H    0.971
    41   6 C    3.992 --    42 C    1.559    40 C    1.320    69 H    0.971
    42   6 C    3.990 --    41 C    1.559    37 C    1.278    70 H    0.968
                            39 C    0.118
    43   6 C    3.991 --    44 C    1.561    38 C    1.278    71 H    0.968
                            36 C    0.115
    44   6 C    3.991 --    43 C    1.561    35 C    1.296    72 H    0.968
    45   1 H    0.999 --     4 C    0.969
    46   1 H    0.998 --     5 C    0.970
    47   1 H    0.998 --     6 C    0.971
    48   1 H    0.998 --     7 C    0.970
    49   1 H    0.998 --     8 C    0.969
    50   1 H    0.991 --    10 C    0.921
    51   1 H    0.882 --    12 O    0.857
    52   1 H    0.998 --    17 C    0.968
    53   1 H    0.998 --    18 C    0.970
    54   1 H    0.998 --    19 C    0.971
    55   1 H    0.998 --    20 C    0.970
    56   1 H    0.997 --    21 C    0.964
    57   1 H    0.992 --    23 C    0.949
    58   1 H    0.997 --    25 C    0.965
    59   1 H    0.998 --    28 C    0.968
    60   1 H    0.998 --    29 C    0.971
    61   1 H    0.998 --    30 C    0.971
    62   1 H    0.998 --    31 C    0.968
    63   1 H    0.998 --    32 C    0.968
    64   1 H    0.999 --    33 C    0.964
    65   1 H    0.996 --    34 C    0.951
    66   1 H    0.999 --    36 C    0.965
    67   1 H    0.998 --    39 C    0.968
    68   1 H    0.998 --    40 C    0.971
    69   1 H    0.998 --    41 C    0.971
    70   1 H    0.998 --    42 C    0.968
    71   1 H    0.998 --    43 C    0.968
    72   1 H    0.999 --    44 C    0.968
 ---------------------------------------------------------------------------

molecular dipole:
                 x           y           z       tot (Debye)
 q only:        0.917       1.055       0.101
   full:        0.849       1.145       0.306       3.705

           -------------------------------------------------
          | TOTAL ENERGY             -117.808496666317 Eh   |
          | GRADIENT NORM               0.000278302508 Eh/Î± |
          | HOMO-LUMO GAP               3.086831497696 eV   |
           -------------------------------------------------

 * finished run on 2022/03/16 at 21:27:01.738
