   * xtb version 6.3.3 (4ae9cef) compiled by 'conda@95abc7406d43' on 2020-10-14
          program call               : xtb acid_375.xyz --opt --chrg 0 --uhf 0 --gfn 2
          number of atoms            :                    78
          number of electrons        :                   242
          charge                     :                     0
          spin                       :                   0.0

   ID    Z sym.   atoms
    1    6 C      1-22, 24-32, 35, 36, 40-48
    2    7 N      23, 39
    3   16 S      33, 49
    4    8 O      34, 37, 38, 50
    5    1 H      51-78

          :  Hamiltonian                  GFN2-xTB          :
 * total energy  :  -132.8265656 Eh     change       -0.5085411E-08 Eh
 * total energy  :  -132.8491136 Eh     change       -0.2254808E-01 Eh
 * total energy  :  -132.8568368 Eh     change       -0.7723150E-02 Eh
 * total energy  :  -132.8600773 Eh     change       -0.3240509E-02 Eh
 * total energy  :  -132.8626846 Eh     change       -0.2607311E-02 Eh
 * total energy  :  -132.8643702 Eh     change       -0.1685612E-02 Eh
 * total energy  :  -132.8655882 Eh     change       -0.1217969E-02 Eh
 * total energy  :  -132.8666410 Eh     change       -0.1052836E-02 Eh
 * total energy  :  -132.8674190 Eh     change       -0.7779424E-03 Eh
 * total energy  :  -132.8681305 Eh     change       -0.7115743E-03 Eh
 * total energy  :  -132.8893202 Eh     change        0.1351437E-04 Eh
 * total energy  :  -132.8893411 Eh     change       -0.2082769E-04 Eh
 * total energy  :  -132.8893537 Eh     change       -0.1266249E-04 Eh
 * total energy  :  -132.8893628 Eh     change       -0.9031981E-05 Eh
 * total energy  :  -132.8893822 Eh     change       -0.1947537E-04 Eh
 * total energy  :  -132.8893952 Eh     change       -0.1296706E-04 Eh
 * total energy  :  -132.8894076 Eh     change       -0.1238434E-04 Eh
 * total energy  :  -132.8894268 Eh     change       -0.1919193E-04 Eh
 * total energy  :  -132.8894316 Eh     change       -0.4803975E-05 Eh
   *** GEOMETRY OPTIMIZATION CONVERGED AFTER 122 ITERATIONS ***

 final structure:
================
78
 xtb: 6.3.3 (4ae9cef)
C         2.38428909056064   -2.67091363696990    3.15218306130998
C         1.37428831029351   -2.25494761466934    3.97165372656360
C         0.37487627274622   -1.41018544255234    3.46915379538714
C         0.40793013317963   -0.98099013199277    2.17106021603925
C         1.44738435673266   -1.37594495203722    1.29935561406450
C         2.44524164327840   -2.25554609588805    1.80568478319007
C         3.48420739106860   -2.69920971637794    0.96271723776699
C         3.53843946665997   -2.29885696194081   -0.34051486504823
C         2.57847887690042   -1.40968071386534   -0.83684563801266
C         1.56242746572055   -0.93010312221337   -0.04632487351806
C         0.59481603375720    0.04128061907868   -0.66885645576170
C        -0.82472923514027   -0.55499593628676   -0.85310364530719
C        -1.02607883576246   -1.06431723584204   -2.26122462737082
C        -1.54200405778542   -0.22624427935021   -3.21716259697866
C        -1.72583911806690   -0.65249273945544   -4.53862563668902
C        -1.37225564174785   -1.91897038687802   -4.90333645031956
C        -0.82283202726144   -2.80955928565604   -3.95817813032220
C        -0.64584733368930   -2.38818536086308   -2.61075262273959
C        -0.09702435703393   -3.31377304631319   -1.69595108384386
C         0.26229739192832   -4.57216328823208   -2.09125259497059
C         0.09164445202547   -4.98078218652779   -3.42118884121063
C        -0.44335890276034   -4.11588586313553   -4.33209728251066
N        -1.71431002222242    0.55378957163330   -0.54244481718209
C        -3.04650662483729    0.32019081926380   -0.39228847423417
C        -3.87898325241754    1.53339578295960   -0.24421441099675
C        -4.82813068101807    1.76615041704649    0.69473674825905
C        -5.48336482597218    3.01880584462350    0.52761409554143
C        -6.48205482151213    3.60382404771674    1.30906770111214
C        -6.98031017717195    4.83693975804188    0.95575556235918
C        -6.50138585743907    5.50755347974420   -0.17028641473078
C        -5.51586450083529    4.95290834922107   -0.95985421264978
C        -5.01064016480962    3.71247987720739   -0.60275258866223
S        -3.77160476317378    2.81529831402948   -1.42589008548999
O        -3.51094435444708   -0.79972114293711   -0.42608105501475
C        -0.99310497176501    1.74752288126813   -0.17477387408919
C        -1.58025518058175    2.45461251017395    1.06766124082286
O        -1.74190853644991    1.59798022189775    2.08090611316245
O        -1.98716324292138    3.58040790052774    1.06420404178272
N         0.35011814975861    1.26572024884031    0.07793811972225
C         1.11075282144509    1.90225868126559    0.99191431917156
C         2.51963981390128    1.47567340457184    1.10556805400124
C         3.13938069858263    1.02861922137128    2.22362899243454
C         4.49931400787989    0.67279496751994    2.00004997128653
C         4.89429718432037    0.91609401464759    0.67080919151056
C         6.17876385276471    0.63578433110451    0.23142348361012
C         7.07292400224242    0.09474618039461    1.13189451102330
C         6.69669843244550   -0.15993475266544    2.45109561598597
C         5.42393790916114    0.12484492835147    2.89070821102174
S         3.58638008412182    1.57221281284829   -0.27149485156452
O         0.64086481028344    2.79544484813712    1.67754117125093
H         3.15771819614799   -3.32960011530252    3.52048023790733
H         1.33536792653798   -2.57513792126203    5.00235221842661
H        -0.42984693256858   -1.09421881362750    4.11603010612744
H        -0.37637546294449   -0.32827183437076    1.82801645910644
H         4.23324598372021   -3.36282281700980    1.36915471099752
H         4.32525940795650   -2.64483591549039   -0.99295146795282
H         2.65242976768836   -1.08307554656980   -1.86402039548895
H         0.97877705500868    0.32012955904170   -1.66248183027100
H        -1.02106368892287   -1.36236231964174   -0.13983903463464
H        -1.82960920788076    0.78192070308157   -2.95542685106160
H        -2.14820273094550    0.03223259638899   -5.25858156662612
H        -1.50631163170607   -2.25922505953747   -5.91997467688796
H         0.04693944045902   -3.03534825545060   -0.66446196513968
H         0.68050977840896   -5.26160253649941   -1.37267607272297
H         0.37959642300334   -5.97943989324212   -3.71457082504992
H        -0.58688921372014   -4.41823807239831   -5.35970842678977
H        -5.04179587964915    1.07805345179483    1.49341549684144
H        -6.85158557957234    3.08231008620537    2.17933177972510
H        -7.75167510324740    5.29615394677396    1.55582854835843
H        -6.90651472133005    6.47521709615828   -0.42497237624473
H        -5.13857023876148    5.46717151468649   -1.82970607242870
H        -0.97677061285718    2.49049569814524   -0.99339896560859
H        -2.08247353253961    2.06964736629318    2.85655801865711
H         2.63857454847520    0.91400138927199    3.16812425490386
H         6.46282767008555    0.83413509488246   -0.79006401456456
H         8.07758174005723   -0.13595609696621    0.81152938214246
H         7.41793936494122   -0.58492089371569    3.13293637702375
H         5.12802806927162   -0.07034355249933    3.91024950214204

          :  Hamiltonian                  GFN2-xTB          :
         :: total energy            -132.889431582028 Eh    ::
         :: gradient norm              0.000334423090 Eh/a0 ::
         :: HOMO-LUMO gap              2.698069244488 eV    ::
         :: SCC energy              -135.011639890212 Eh    ::
         :: -> dispersion             -0.132920425759 Eh    ::
         :: repulsion energy           2.118248277560 Eh    ::

    * Orbital Energies and Occupations

         #    Occupation            Energy/Eh            Energy/eV
      -------------------------------------------------------------
         1        2.0000           -0.7552037             -20.5501
       ...           ...                  ...                  ...
       109        2.0000           -0.4223974             -11.4940
       110        2.0000           -0.4194723             -11.4144
       111        2.0000           -0.4155347             -11.3073
       112        2.0000           -0.4138463             -11.2613
       113        2.0000           -0.4071657             -11.0795
       114        2.0000           -0.4055159             -11.0346
       115        2.0000           -0.4054489             -11.0328
       116        2.0000           -0.4005656             -10.8999
       117        2.0000           -0.3948647             -10.7448
       118        2.0000           -0.3931514             -10.6982
       119        2.0000           -0.3890055             -10.5854
       120        2.0000           -0.3812615             -10.3747
       121        2.0000           -0.3793634             -10.3230 (HOMO)
       122                         -0.2802112              -7.6249 (LUMO)
       123                         -0.2749839              -7.4827
       124                         -0.2692175              -7.3258
       125                         -0.2647103              -7.2031
       126                         -0.2440207              -6.6401
       127                         -0.2431405              -6.6162
       128                         -0.2409963              -6.5578
       129                         -0.2360811              -6.4241
       130                         -0.2332395              -6.3468
       131                         -0.2297038              -6.2506
       132                         -0.2222799              -6.0485
       ...                                ...                  ...
       238                          0.7087745              19.2867
      -------------------------------------------------------------
                  HL-Gap            0.0991522 Eh            2.6981 eV

     #   Z          covCN         q      C6AA      Î±(0)
     1   6 C        2.921    -0.033    28.831     8.805
     2   6 C        2.915    -0.028    28.701     8.785
     3   6 C        2.917    -0.026    28.664     8.779
     4   6 C        2.916    -0.040    28.999     8.831
     5   6 C        2.983     0.007    27.853     8.657
     6   6 C        2.988     0.014    27.699     8.633
     7   6 C        2.921    -0.034    28.851     8.808
     8   6 C        2.914    -0.029    28.727     8.789
     9   6 C        2.925    -0.033    28.811     8.802
    10   6 C        2.965    -0.007    28.201     8.711
    11   6 C        3.822     0.042    19.861     6.342
    12   6 C        3.825     0.046    19.779     6.329
    13   6 C        2.968    -0.001    28.048     8.687
    14   6 C        2.921    -0.032    28.801     8.801
    15   6 C        2.914    -0.028    28.711     8.787
    16   6 C        2.920    -0.035    28.868     8.811
    17   6 C        2.988     0.016    27.641     8.624
    18   6 C        2.984     0.010    27.786     8.647
    19   6 C        2.917    -0.035    28.861     8.810
    20   6 C        2.917    -0.028    28.702     8.785
    21   6 C        2.915    -0.029    28.717     8.787
    22   6 C        2.921    -0.033    28.834     8.806
    23   7 N        2.765    -0.120    23.598     7.215
    24   6 C        2.784     0.274    22.369     7.747
    25   6 C        2.990    -0.009    28.245     8.718
    26   6 C        3.069    -0.040    28.913     8.817
    27   6 C        3.144     0.006    27.626     8.600
    28   6 C        2.916    -0.031    28.781     8.797
    29   6 C        2.918    -0.032    28.797     8.800
    30   6 C        2.924    -0.028    28.713     8.787
    31   6 C        2.934    -0.034    28.845     8.808
    32   6 C        3.009     0.044    27.007     8.525
    33  16 S        2.274    -0.051   143.171    20.139
    34   8 O        0.859    -0.415    21.980     6.286
    35   6 C        3.766     0.099    18.994     6.212
    36   6 C        2.688     0.372    20.690     7.444
    37   8 O        1.659    -0.373    20.337     6.088
    38   8 O        0.856    -0.388    21.451     6.210
    39   7 N        2.765    -0.106    23.315     7.171
    40   6 C        2.786     0.277    22.319     7.738
    41   6 C        2.990     0.001    27.997     8.680
    42   6 C        3.068    -0.039    28.886     8.813
    43   6 C        3.143     0.004    27.679     8.608
    44   6 C        3.009     0.035    27.189     8.553
    45   6 C        2.933    -0.036    28.905     8.817
    46   6 C        2.924    -0.030    28.739     8.791
    47   6 C        2.918    -0.032    28.803     8.801
    48   6 C        2.916    -0.031    28.774     8.796
    49  16 S        2.268    -0.045   142.920    20.121
    50   8 O        0.862    -0.418    22.032     6.293
    51   1 H        0.926     0.035     2.517     2.481
    52   1 H        0.926     0.035     2.513     2.479
    53   1 H        0.926     0.037     2.492     2.468
    54   1 H        0.926     0.047     2.355     2.400
    55   1 H        0.926     0.038     2.479     2.462
    56   1 H        0.926     0.038     2.477     2.461
    57   1 H        0.926     0.035     2.519     2.482
    58   1 H        0.923     0.051     2.314     2.379
    59   1 H        0.924     0.072     2.065     2.247
    60   1 H        0.926     0.034     2.534     2.490
    61   1 H        0.926     0.038     2.469     2.457
    62   1 H        0.926     0.038     2.477     2.461
    63   1 H        0.926     0.027     2.625     2.533
    64   1 H        0.926     0.032     2.560     2.502
    65   1 H        0.926     0.034     2.531     2.488
    66   1 H        0.926     0.036     2.504     2.474
    67   1 H        0.926     0.050     2.324     2.384
    68   1 H        0.926     0.039     2.461     2.453
    69   1 H        0.926     0.038     2.482     2.464
    70   1 H        0.926     0.040     2.447     2.446
    71   1 H        0.926     0.045     2.384     2.415
    72   1 H        0.922     0.063     2.163     2.300
    73   1 H        0.805     0.343     0.606     1.223
    74   1 H        0.926     0.051     2.309     2.376
    75   1 H        0.926     0.045     2.381     2.413
    76   1 H        0.926     0.042     2.417     2.431
    77   1 H        0.926     0.040     2.445     2.445
    78   1 H        0.926     0.042     2.428     2.436

Wiberg/Mayer (AO) data.
largest (>0.10) Wiberg bond orders for each atom

     #   Z sym  total        # sym  WBO       # sym  WBO       # sym  WBO
 ---------------------------------------------------------------------------
     1   6 C    3.991 --     2 C    1.556     6 C    1.280    51 H    0.968
                             4 C    0.118
     2   6 C    3.992 --     1 C    1.556     3 C    1.324    52 H    0.971
     3   6 C    3.991 --     4 C    1.552     2 C    1.324    53 H    0.971
     4   6 C    3.991 --     3 C    1.552     5 C    1.284    54 H    0.961
                             1 C    0.118
     5   6 C    3.989 --     4 C    1.284     6 C    1.251    10 C    1.250
     6   6 C    3.990 --     1 C    1.280     7 C    1.279     5 C    1.251
     7   6 C    3.990 --     8 C    1.552     6 C    1.279    55 H    0.968
                            10 C    0.114
     8   6 C    3.992 --     7 C    1.552     9 C    1.327    56 H    0.970
     9   6 C    3.990 --    10 C    1.518     8 C    1.327    57 H    0.967
    10   6 C    3.983 --     9 C    1.518     5 C    1.250    11 C    0.996
                             7 C    0.114
    11   6 C    3.961 --    10 C    0.996    39 N    0.957    58 H    0.952
                            12 C    0.944
    12   6 C    3.961 --    13 C    0.987    23 N    0.961    59 H    0.945
                            11 C    0.944
    13   6 C    3.983 --    14 C    1.527    18 C    1.252    12 C    0.987
                            16 C    0.114
    14   6 C    3.990 --    13 C    1.527    15 C    1.324    60 H    0.966
    15   6 C    3.992 --    16 C    1.555    14 C    1.324    61 H    0.970
    16   6 C    3.990 --    15 C    1.555    17 C    1.279    62 H    0.968
                            13 C    0.114
    17   6 C    3.990 --    22 C    1.280    16 C    1.279    18 C    1.253
    18   6 C    3.989 --    19 C    1.284    17 C    1.253    13 C    1.252
    19   6 C    3.992 --    20 C    1.554    18 C    1.284    63 H    0.962
                            22 C    0.118
    20   6 C    3.992 --    19 C    1.554    21 C    1.323    64 H    0.971
    21   6 C    3.992 --    22 C    1.557    20 C    1.323    65 H    0.971
    22   6 C    3.991 --    21 C    1.557    17 C    1.280    66 H    0.968
                            19 C    0.118
    23   7 N    3.452 --    24 C    1.195    35 C    0.984    12 C    0.961
                            34 O    0.188
    24   6 C    3.951 --    34 O    1.683    23 N    1.195    25 C    0.992
    25   6 C    3.953 --    26 C    1.630    33 S    1.107    24 C    0.992
    26   6 C    3.986 --    25 C    1.630    27 C    1.198    67 H    0.961
                            33 S    0.100
    27   6 C    3.987 --    28 C    1.326    32 C    1.285    26 C    1.198
    28   6 C    3.987 --    29 C    1.499    27 C    1.326    68 H    0.968
                            31 C    0.111
    29   6 C    3.991 --    28 C    1.499    30 C    1.380    69 H    0.971
    30   6 C    3.986 --    31 C    1.475    29 C    1.380    70 H    0.970
    31   6 C    3.990 --    30 C    1.475    32 C    1.378    71 H    0.968
                            28 C    0.111
    32   6 C    3.955 --    31 C    1.378    27 C    1.285    33 S    1.107
    33  16 S    2.545 --    25 C    1.107    32 C    1.107    26 C    0.100
    34   8 O    2.023 --    24 C    1.683    23 N    0.188
    35   6 C    3.962 --    23 N    0.984    39 N    0.972    72 H    0.941
                            36 C    0.913
    36   6 C    3.926 --    38 O    1.766    37 O    1.128    35 C    0.913
    37   8 O    2.193 --    36 C    1.128    73 H    0.858    38 O    0.165
    38   8 O    2.061 --    36 C    1.766    37 O    0.165
    39   7 N    3.483 --    40 C    1.238    35 C    0.972    11 C    0.957
                            50 O    0.189
    40   6 C    3.948 --    50 O    1.632    39 N    1.238    41 C    0.991
    41   6 C    3.955 --    42 C    1.635    49 S    1.108    40 C    0.991
    42   6 C    3.986 --    41 C    1.635    43 C    1.194    74 H    0.961
    43   6 C    3.987 --    48 C    1.328    44 C    1.286    42 C    1.194
    44   6 C    3.955 --    45 C    1.379    43 C    1.286    49 S    1.105
    45   6 C    3.990 --    46 C    1.474    44 C    1.379    75 H    0.968
                            48 C    0.110
    46   6 C    3.987 --    45 C    1.474    47 C    1.382    76 H    0.970
    47   6 C    3.991 --    48 C    1.498    46 C    1.382    77 H    0.970
    48   6 C    3.987 --    47 C    1.498    43 C    1.328    78 H    0.968
                            45 C    0.110
    49  16 S    2.540 --    41 C    1.108    44 C    1.105
    50   8 O    2.064 --    40 C    1.632    39 N    0.189
    51   1 H    0.998 --     1 C    0.968
    52   1 H    0.998 --     2 C    0.971
    53   1 H    0.998 --     3 C    0.971
    54   1 H    0.997 --     4 C    0.961
    55   1 H    0.998 --     7 C    0.968
    56   1 H    0.997 --     8 C    0.970
    57   1 H    0.998 --     9 C    0.967
    58   1 H    0.997 --    11 C    0.952
    59   1 H    0.994 --    12 C    0.945
    60   1 H    0.998 --    14 C    0.966
    61   1 H    0.997 --    15 C    0.970
    62   1 H    0.997 --    16 C    0.968
    63   1 H    0.999 --    19 C    0.962
    64   1 H    0.999 --    20 C    0.971
    65   1 H    0.998 --    21 C    0.971
    66   1 H    0.998 --    22 C    0.968
    67   1 H    0.997 --    26 C    0.961
    68   1 H    0.998 --    28 C    0.968
    69   1 H    0.998 --    29 C    0.971
    70   1 H    0.998 --    30 C    0.970
    71   1 H    0.998 --    31 C    0.968
    72   1 H    0.995 --    35 C    0.941
    73   1 H    0.883 --    37 O    0.858
    74   1 H    0.997 --    42 C    0.961
    75   1 H    0.998 --    45 C    0.968
    76   1 H    0.998 --    46 C    0.970
    77   1 H    0.997 --    47 C    0.970
    78   1 H    0.998 --    48 C    0.968
 ---------------------------------------------------------------------------

molecular dipole:
                 x           y           z       tot (Debye)
 q only:        1.604      -1.172      -0.284
   full:        1.539      -1.117       0.337       4.908

           -------------------------------------------------
          | TOTAL ENERGY             -132.889431582028 Eh   |
          | GRADIENT NORM               0.000334423090 Eh/Î± |
          | HOMO-LUMO GAP               2.698069244488 eV   |
           -------------------------------------------------

 * finished run on 2022/03/17 at 00:26:23.686
