   * xtb version 6.3.3 (4ae9cef) compiled by 'conda@95abc7406d43' on 2020-10-14
          program call               : xtb acid_436.xyz --opt --chrg 0 --uhf 0 --gfn 2
          number of atoms            :                    72
          number of electrons        :                   218
          charge                     :                     0
          spin                       :                   0.0

   ID    Z sym.   atoms
    1    6 C      1-22, 24-29, 32, 33, 37-42
    2    7 N      23, 36
    3    8 O      30, 31, 34, 35, 43, 44
    4    1 H      45-72

          :  Hamiltonian                  GFN2-xTB          :
 * total energy  :  -121.6570737 Eh     change       -0.4077592E-08 Eh
 * total energy  :  -121.6717366 Eh     change       -0.1466290E-01 Eh
 * total energy  :  -121.6764982 Eh     change       -0.4761611E-02 Eh
 * total energy  :  -121.6778343 Eh     change       -0.1336077E-02 Eh
 * total energy  :  -121.6787490 Eh     change       -0.9147156E-03 Eh
 * total energy  :  -121.6791980 Eh     change       -0.4490433E-03 Eh
 * total energy  :  -121.6796084 Eh     change       -0.4104316E-03 Eh
 * total energy  :  -121.6800320 Eh     change       -0.4235741E-03 Eh
 * total energy  :  -121.6804323 Eh     change       -0.4002709E-03 Eh
 * total energy  :  -121.6807645 Eh     change       -0.3321761E-03 Eh
 * total energy  :  -121.6841379 Eh     change       -0.2701985E-04 Eh
 * total energy  :  -121.6841702 Eh     change       -0.3229730E-04 Eh
 * total energy  :  -121.6841971 Eh     change       -0.2690625E-04 Eh
 * total energy  :  -121.6842218 Eh     change       -0.2460815E-04 Eh
 * total energy  :  -121.6842513 Eh     change       -0.2955750E-04 Eh
 * total energy  :  -121.6842660 Eh     change       -0.1468478E-04 Eh
 * total energy  :  -121.6842799 Eh     change       -0.1388127E-04 Eh
 * total energy  :  -121.6842850 Eh     change       -0.5079160E-05 Eh
 * total energy  :  -121.6842864 Eh     change       -0.1410721E-05 Eh
   *** GEOMETRY OPTIMIZATION CONVERGED AFTER 97 ITERATIONS ***

 final structure:
================
72
 xtb: 6.3.3 (4ae9cef)
C         2.19584524684540   -1.15118086885595    1.67070774643077
C         3.37502746014515   -1.57234309545269    2.21767269783015
C         4.53460285736229   -1.71117371245929    1.42907487232843
C         5.76643093904281   -2.13936894448546    1.96565280888738
C         6.86951887473916   -2.25799085823035    1.16767931608989
C         6.79147261475838   -1.95348393244682   -0.20109186055066
C         5.61166015630165   -1.53728758920323   -0.75039630880789
C         4.45442817479748   -1.40538926647014    0.04592176724010
C         3.22481962230493   -0.97678530168710   -0.49076933485642
C         2.10967964377403   -0.84773038696572    0.29720833140045
C         0.83917533442358   -0.30362237070690   -0.31790155932783
C        -0.45000187492571   -0.71174092620471    0.41542506238294
C        -1.61333505324907   -0.88065360651722   -0.53239642201437
C        -2.10911322163615   -2.12757592306572   -0.80797055319311
C        -3.22535868072824   -2.30089383180193   -1.64998783937474
C        -3.76529905249551   -3.57455253648708   -1.92484510898854
C        -4.86002477774831   -3.70837263546170   -2.73203028547582
C        -5.46430205595391   -2.57644852405611   -3.30157373784860
C        -4.96381439297359   -1.32859764521088   -3.05432033435313
C        -3.83596395323210   -1.15680597785236   -2.22573182808107
C        -3.29023410886471    0.11401172545612   -1.94826397523552
C        -2.20917518557270    0.24980706609889   -1.12667333317757
N        -0.67062565756730    0.40068375538817    1.33571898524901
C        -1.87087047426411    0.69829290817906    1.91515079476143
C        -2.81984251335317   -0.41541654070535    2.04299171778901
C        -4.19511862697257   -0.37677356752944    2.00032124555641
C        -5.06332768474635    0.81400229825466    1.81948050477368
C        -4.61568552417134   -1.72511066130669    2.12746960103382
C        -3.48384864992530   -2.46816615185148    2.25320733587751
O        -2.39330409957287   -1.69368732707730    2.20142210779873
O        -2.13158463038419    1.82693715109025    2.29434730262436
C         0.23506885540912    1.49428050614046    1.05203968774797
C         1.31591767461429    1.68314896351869    2.13039970401075
O         0.88620241231906    1.34034748148503    3.33906779185001
O         2.40516503790658    2.13137135511819    1.90529919992055
N         0.81628721840755    1.15377085931399   -0.21372536796300
C         1.47835461569976    1.92233053779676   -1.12241748544449
C         1.52357946063503    3.37019107371725   -0.91464819647131
C         2.25150677695643    4.30444866323633   -1.62474758030623
C         3.14474940672443    4.08874235025245   -2.79044563039407
C         1.97526014199734    5.55165123094119   -1.01055466680499
C         1.11347718034980    5.29429324173197    0.00911140873396
O         0.83184503661370    3.98902385076089    0.07975153192720
O         1.99282827345897    1.40152832105986   -2.10045139843865
H         1.32608084148100   -1.05479677379879    2.30340992522387
H         3.43334210681339   -1.80378319650361    3.27224983383610
H         5.82178259369253   -2.37092331372063    3.02021958608508
H         7.81100953539035   -2.58563840783685    1.58406087603002
H         7.67511213583952   -2.05125837004580   -0.81500797300065
H         5.54483193859546   -1.29835761682968   -1.80180982915965
H         3.17162015261697   -0.72548635549248   -1.53949243274420
H         0.80540863515661   -0.56575576325326   -1.37979618621924
H        -0.29909344915061   -1.64524317238912    0.96522905295148
H        -1.65322369772887   -3.00262281533836   -0.36562699415472
H        -3.29643310831809   -4.44270427042986   -1.48403978733279
H        -5.26872560350685   -4.68674649323882   -2.93893694245113
H        -6.32811532985991   -2.70165134007617   -3.93806992453105
H        -5.42450610378253   -0.45411601400271   -3.49150750502350
H        -3.74636187929641    0.98475829715913   -2.39681192740533
H        -1.80754045921518    1.23105739711976   -0.92295145870993
H        -5.54197884350577    0.77983134961468    0.84113447463666
H        -5.84396504636215    0.82926865807553    2.57720341561886
H        -4.47082889784317    1.71992334478680    1.89843339056585
H        -5.62541966284843   -2.08063638094255    2.12926079715697
H        -3.33061655865076   -3.52043992621942    2.39291218520743
H        -0.33970968069544    2.43347897084546    1.03016709648154
H         1.56523812657829    1.52050961490615    4.00975743107003
H         3.26482905952870    3.02630578911811   -2.97415201818001
H         4.11605646922675    4.54392571540296   -2.60484453866227
H         2.71749886151254    4.55532819158048   -3.67770949487808
H         2.37134048677983    6.50453932672544   -1.29612729943764
H         0.64029658029904    5.93352339729567    0.72866553191443

          :  Hamiltonian                  GFN2-xTB          :
         :: total energy            -121.684286373813 Eh    ::
         :: gradient norm              0.000808440325 Eh/a0 ::
         :: HOMO-LUMO gap              2.975414696023 eV    ::
         :: SCC energy              -123.507800862548 Eh    ::
         :: -> dispersion             -0.102575549207 Eh    ::
         :: repulsion energy           1.820974767106 Eh    ::

    * Orbital Energies and Occupations

         #    Occupation            Energy/Eh            Energy/eV
      -------------------------------------------------------------
         1        2.0000           -0.7599013             -20.6780
       ...           ...                  ...                  ...
        97        2.0000           -0.4220653             -11.4850
        98        2.0000           -0.4171222             -11.3505
        99        2.0000           -0.4137413             -11.2585
       100        2.0000           -0.4114164             -11.1952
       101        2.0000           -0.4057330             -11.0406
       102        2.0000           -0.4012397             -10.9183
       103        2.0000           -0.3996849             -10.8760
       104        2.0000           -0.3971478             -10.8069
       105        2.0000           -0.3939262             -10.7193
       106        2.0000           -0.3908714             -10.6362
       107        2.0000           -0.3884647             -10.5707
       108        2.0000           -0.3839199             -10.4470
       109        2.0000           -0.3772794             -10.2663 (HOMO)
       110                         -0.2679349              -7.2909 (LUMO)
       111                         -0.2607263              -7.0947
       112                         -0.2570095              -6.9936
       113                         -0.2530655              -6.8863
       114                         -0.2465705              -6.7095
       115                         -0.2376706              -6.4673
       116                         -0.2290365              -6.2324
       117                         -0.1967452              -5.3537
       118                         -0.1931164              -5.2550
       119                         -0.1878561              -5.1118
       120                         -0.1826821              -4.9710
       ...                                ...                  ...
       204                          0.7005782              19.0637
      -------------------------------------------------------------
                  HL-Gap            0.1093445 Eh            2.9754 eV

     #   Z          covCN         q      C6AA      Î±(0)
     1   6 C        2.918    -0.041    29.030     8.835
     2   6 C        2.917    -0.035    28.881     8.813
     3   6 C        2.987     0.014    27.698     8.633
     4   6 C        2.918    -0.035    28.862     8.810
     5   6 C        2.916    -0.029    28.727     8.789
     6   6 C        2.916    -0.029    28.724     8.789
     7   6 C        2.918    -0.032    28.809     8.802
     8   6 C        2.987     0.017    27.628     8.622
     9   6 C        2.924    -0.037    28.910     8.817
    10   6 C        2.968    -0.003    28.096     8.694
    11   6 C        3.846     0.041    19.862     6.339
    12   6 C        3.824     0.034    19.980     6.361
    13   6 C        2.969    -0.003    28.087     8.693
    14   6 C        2.923    -0.042    29.050     8.839
    15   6 C        2.987     0.014    27.699     8.633
    16   6 C        2.918    -0.035    28.865     8.810
    17   6 C        2.916    -0.029    28.717     8.788
    18   6 C        2.916    -0.029    28.727     8.789
    19   6 C        2.918    -0.034    28.841     8.807
    20   6 C        2.988     0.013    27.722     8.637
    21   6 C        2.917    -0.034    28.838     8.806
    22   6 C        2.919    -0.033    28.833     8.805
    23   7 N        2.765    -0.114    23.488     7.198
    24   6 C        2.763     0.268    22.477     7.764
    25   6 C        3.119     0.069    26.285     8.397
    26   6 C        3.064     0.003    27.884     8.659
    27   6 C        3.754    -0.113    22.718     6.796
    28   6 C        3.014    -0.072    29.765     8.949
    29   6 C        3.060     0.075    26.258     8.403
    30   8 O        1.728    -0.188    17.133     5.589
    31   8 O        0.859    -0.436    22.413     6.347
    32   6 C        3.783     0.092    19.078     6.222
    33   6 C        2.688     0.358    20.926     7.486
    34   8 O        1.659    -0.354    19.974     6.033
    35   8 O        0.856    -0.394    21.567     6.226
    36   7 N        2.768    -0.109    23.377     7.181
    37   6 C        2.756     0.266    22.507     7.769
    38   6 C        3.103     0.071    26.288     8.401
    39   6 C        3.064     0.012    27.691     8.629
    40   6 C        3.754    -0.116    22.776     6.805
    41   6 C        3.009    -0.071    29.746     8.947
    42   6 C        3.052     0.080    26.161     8.388
    43   8 O        1.728    -0.196    17.273     5.612
    44   8 O        0.860    -0.444    22.586     6.372
    45   1 H        0.926     0.033     2.543     2.494
    46   1 H        0.925     0.032     2.563     2.504
    47   1 H        0.926     0.031     2.573     2.508
    48   1 H        0.926     0.031     2.572     2.508
    49   1 H        0.926     0.032     2.556     2.500
    50   1 H        0.926     0.039     2.468     2.457
    51   1 H        0.926     0.059     2.207     2.323
    52   1 H        0.924     0.076     2.016     2.221
    53   1 H        0.924     0.065     2.143     2.289
    54   1 H        0.925     0.032     2.554     2.499
    55   1 H        0.926     0.033     2.550     2.497
    56   1 H        0.926     0.033     2.540     2.492
    57   1 H        0.926     0.033     2.537     2.491
    58   1 H        0.926     0.034     2.523     2.484
    59   1 H        0.926     0.039     2.467     2.456
    60   1 H        0.926     0.034     2.525     2.485
    61   1 H        0.925     0.051     2.305     2.374
    62   1 H        0.925     0.057     2.233     2.337
    63   1 H        0.925     0.072     2.068     2.249
    64   1 H        0.926     0.047     2.359     2.402
    65   1 H        0.926     0.053     2.281     2.362
    66   1 H        0.923     0.110     1.698     2.038
    67   1 H        0.804     0.340     0.611     1.228
    68   1 H        0.925     0.080     1.978     2.199
    69   1 H        0.925     0.054     2.276     2.359
    70   1 H        0.925     0.056     2.246     2.344
    71   1 H        0.926     0.048     2.348     2.396
    72   1 H        0.926     0.055     2.259     2.350

Wiberg/Mayer (AO) data.
largest (>0.10) Wiberg bond orders for each atom

     #   Z sym  total        # sym  WBO       # sym  WBO       # sym  WBO
 ---------------------------------------------------------------------------
     1   6 C    3.992 --     2 C    1.557    10 C    1.298    45 H    0.964
     2   6 C    3.992 --     1 C    1.557     3 C    1.279    46 H    0.968
                             9 C    0.116
     3   6 C    3.990 --     4 C    1.280     2 C    1.279     8 C    1.250
     4   6 C    3.992 --     5 C    1.558     3 C    1.280    47 H    0.968
                             7 C    0.118
     5   6 C    3.990 --     4 C    1.558     6 C    1.319    48 H    0.971
     6   6 C    3.992 --     7 C    1.560     5 C    1.319    49 H    0.971
     7   6 C    3.990 --     6 C    1.560     8 C    1.277    50 H    0.968
                             4 C    0.118
     8   6 C    3.990 --     9 C    1.285     7 C    1.277     3 C    1.250
     9   6 C    3.987 --    10 C    1.523     8 C    1.285    51 H    0.962
                             2 C    0.116
    10   6 C    3.982 --     9 C    1.523     1 C    1.298    11 C    0.982
    11   6 C    3.959 --    10 C    0.982    12 C    0.963    52 H    0.954
                            36 N    0.952
    12   6 C    3.964 --    13 C    0.988    11 C    0.963    23 N    0.959
                            53 H    0.952
    13   6 C    3.986 --    14 C    1.526    22 C    1.293    12 C    0.988
    14   6 C    3.989 --    13 C    1.526    15 C    1.282    54 H    0.965
                            21 C    0.113
    15   6 C    3.990 --    14 C    1.282    16 C    1.279    20 C    1.251
    16   6 C    3.989 --    17 C    1.557    15 C    1.279    55 H    0.968
                            19 C    0.118
    17   6 C    3.992 --    16 C    1.557    18 C    1.321    56 H    0.971
    18   6 C    3.989 --    19 C    1.556    17 C    1.321    57 H    0.971
    19   6 C    3.992 --    18 C    1.556    20 C    1.282    58 H    0.968
                            16 C    0.118
    20   6 C    3.990 --    19 C    1.282    21 C    1.275    15 C    1.251
    21   6 C    3.992 --    22 C    1.565    20 C    1.275    59 H    0.968
                            14 C    0.113
    22   6 C    3.991 --    21 C    1.565    13 C    1.293    60 H    0.968
    23   7 N    3.444 --    24 C    1.191    32 C    0.982    12 C    0.959
                            31 O    0.178
    24   6 C    3.957 --    31 O    1.651    23 N    1.191    25 C    1.022
    25   6 C    3.900 --    26 C    1.501    30 O    1.090    24 C    1.022
                            29 C    0.136
    26   6 C    3.983 --    25 C    1.501    28 C    1.282    27 C    1.038
    27   6 C    3.993 --    26 C    1.038    63 H    0.978    62 H    0.971
                            61 H    0.967
    28   6 C    3.982 --    29 C    1.594    26 C    1.282    64 H    0.974
    29   6 C    3.910 --    28 C    1.594    30 O    1.146    65 H    0.965
                            25 C    0.136
    30   8 O    2.436 --    29 C    1.146    25 C    1.090
    31   8 O    2.001 --    24 C    1.651    23 N    0.178
    32   6 C    3.966 --    36 N    0.995    23 N    0.982    33 C    0.917
                            66 H    0.911
    33   6 C    3.918 --    35 O    1.773    34 O    1.158    32 C    0.917
    34   8 O    2.225 --    33 C    1.158    67 H    0.858    35 O    0.180
    35   8 O    2.056 --    33 C    1.773    34 O    0.180
    36   7 N    3.463 --    37 C    1.192    32 C    0.995    11 C    0.952
                            44 O    0.176
    37   6 C    3.958 --    44 O    1.624    36 N    1.192    38 C    1.045
    38   6 C    3.896 --    39 C    1.487    43 O    1.081    37 C    1.045
                            42 C    0.133
    39   6 C    3.982 --    38 C    1.487    41 C    1.287    40 C    1.040
    40   6 C    3.991 --    39 C    1.040    68 H    0.974    69 H    0.971
                            70 H    0.965
    41   6 C    3.981 --    42 C    1.590    39 C    1.287    71 H    0.973
    42   6 C    3.910 --    41 C    1.590    43 O    1.147    72 H    0.965
                            38 C    0.133
    43   8 O    2.434 --    42 C    1.147    38 C    1.081
    44   8 O    1.981 --    37 C    1.624    36 N    0.176
    45   1 H    0.998 --     1 C    0.964
    46   1 H    0.998 --     2 C    0.968
    47   1 H    0.999 --     4 C    0.968
    48   1 H    0.999 --     5 C    0.971
    49   1 H    0.998 --     6 C    0.971
    50   1 H    0.998 --     7 C    0.968
    51   1 H    0.996 --     9 C    0.962
    52   1 H    0.993 --    11 C    0.954
    53   1 H    0.995 --    12 C    0.952
    54   1 H    0.998 --    14 C    0.965
    55   1 H    0.998 --    16 C    0.968
    56   1 H    0.998 --    17 C    0.971
    57   1 H    0.998 --    18 C    0.971
    58   1 H    0.998 --    19 C    0.968
    59   1 H    0.998 --    21 C    0.968
    60   1 H    0.998 --    22 C    0.968
    61   1 H    0.997 --    27 C    0.967
    62   1 H    0.996 --    27 C    0.971
    63   1 H    0.995 --    27 C    0.978
    64   1 H    0.997 --    28 C    0.974
    65   1 H    0.996 --    29 C    0.965
    66   1 H    0.987 --    32 C    0.911
    67   1 H    0.883 --    34 O    0.858
    68   1 H    0.993 --    40 C    0.974
    69   1 H    0.996 --    40 C    0.971
    70   1 H    0.997 --    40 C    0.965
    71   1 H    0.997 --    41 C    0.973
    72   1 H    0.996 --    42 C    0.965
 ---------------------------------------------------------------------------

molecular dipole:
                 x           y           z       tot (Debye)
 q only:       -0.685      -0.889       0.046
   full:       -0.757      -0.828       0.391       3.020

           -------------------------------------------------
          | TOTAL ENERGY             -121.684286373813 Eh   |
          | GRADIENT NORM               0.000808440325 Eh/Î± |
          | HOMO-LUMO GAP               2.975414696023 eV   |
           -------------------------------------------------

 * finished run on 2022/03/17 at 01:11:31.336
