   * xtb version 6.3.3 (4ae9cef) compiled by 'conda@95abc7406d43' on 2020-10-14
          program call               : xtb acid_283.xyz --opt --chrg 0 --uhf 0 --gfn 2
          number of atoms            :                    78
          number of electrons        :                   242
          charge                     :                     0
          spin                       :                   0.0

   ID    Z sym.   atoms
    1    6 C      1-22, 24-26, 28-33, 35, 36, 40-42, 44-49
    2    7 N      23, 39
    3    8 O      27, 34, 37, 38, 43, 50
    4    1 H      51-78

          :  Hamiltonian                  GFN2-xTB          :
 * total energy  :  -134.5123135 Eh     change       -0.3491436E-08 Eh
 * total energy  :  -134.5298982 Eh     change       -0.1758470E-01 Eh
 * total energy  :  -134.5346961 Eh     change       -0.4797859E-02 Eh
 * total energy  :  -134.5358404 Eh     change       -0.1144342E-02 Eh
 * total energy  :  -134.5366055 Eh     change       -0.7650809E-03 Eh
 * total energy  :  -134.5368690 Eh     change       -0.2635655E-03 Eh
 * total energy  :  -134.5370708 Eh     change       -0.2017136E-03 Eh
 * total energy  :  -134.5372859 Eh     change       -0.2151593E-03 Eh
 * total energy  :  -134.5375736 Eh     change       -0.2876358E-03 Eh
 * total energy  :  -134.5379651 Eh     change       -0.3915719E-03 Eh
 * total energy  :  -134.5428883 Eh     change       -0.1437300E-04 Eh
 * total energy  :  -134.5428993 Eh     change       -0.1101250E-04 Eh
 * total energy  :  -134.5429077 Eh     change       -0.8329835E-05 Eh
 * total energy  :  -134.5429149 Eh     change       -0.7256013E-05 Eh
 * total energy  :  -134.5429201 Eh     change       -0.5170097E-05 Eh
 * total energy  :  -134.5429198 Eh     change        0.3334982E-06 Eh
 * total energy  :  -134.5429132 Eh     change        0.6577516E-05 Eh
 * total energy  :  -134.5429227 Eh     change       -0.9494438E-05 Eh
 * total energy  :  -134.5429241 Eh     change       -0.1394515E-05 Eh
   *** GEOMETRY OPTIMIZATION CONVERGED AFTER 58 ITERATIONS ***

 final structure:
================
78
 xtb: 6.3.3 (4ae9cef)
C         0.93268876714437    0.37734211154830    1.94440806085640
C         1.81833339772997    0.72454281546147    2.92266762781321
C         3.11412054613300    0.16934764663568    2.95572014061711
C         4.07196655547185    0.54836296274457    3.91725188783397
C         5.32364124213270    0.00008728749601    3.90755508296932
C         5.67148302393515   -0.95704502311023    2.94182305187173
C         4.76267809668809   -1.35053594012117    2.00069682922855
C         3.46622603271716   -0.79689670730323    1.97875172331960
C         2.52337624976139   -1.14445869596807    0.99191694883643
C         1.28904215382645   -0.55118649787558    0.94755142993595
C         0.33115050074684   -0.84641813207491   -0.18048700021916
C        -1.01959899133451   -1.39657160096941    0.31566549167823
C        -1.66680435566794   -2.40737246633744   -0.60486710734739
C        -1.40380042537219   -2.46241322992415   -1.94910100458132
C        -2.09445005061820   -3.35771591279207   -2.79162265787806
C        -1.84214894812889   -3.41762530712593   -4.17812919755018
C        -2.53156998154900   -4.28755694542531   -4.97536155554736
C        -3.50248531325865   -5.13760552525034   -4.42277227622463
C        -3.76918790180922   -5.10237515856691   -3.08258888945043
C        -3.07723439699997   -4.21433147169468   -2.23373501953200
C        -3.32789489148336   -4.14011089102336   -0.84775454569621
C        -2.64456257183294   -3.26285085912703   -0.05646587130032
N        -1.84710323800299   -0.19337458535595    0.37841904120802
C        -2.92950366084418   -0.08763784762131    1.19420335025643
C        -3.71779476434088    1.15516978018663    1.04585026330231
C        -5.05572561489600    1.18851150602103    0.80634609328878
O        -5.53937011827148    2.44139411357652    0.72676170442141
C        -4.49422659077033    3.27316182789919    0.94480404786940
C        -3.31384643577021    2.53093095391639    1.15721282694610
C        -2.12511317579310    3.20501730712369    1.43612632007447
C        -2.14505535712340    4.58224650804906    1.46539188312722
C        -3.31905747478694    5.30010362158213    1.23327771796478
C        -4.51354907153421    4.65896508693308    0.97562228651332
O        -3.20932688636964   -0.95553590951710    1.99530569620393
C        -1.46454825616474    0.65536839616382   -0.71234938044975
C        -2.30819183744148    0.37211356932633   -1.96847209047563
O        -1.60387586976390    0.46594957849060   -3.08934739593797
O        -3.48506548313554    0.14379450297213   -1.92795631838733
N        -0.05570826597676    0.37790586600380   -0.88432003052859
C         0.77801526976156    1.39345387363625   -1.24593043227833
C         2.21307519902630    1.03174843184215   -1.27009322605902
C         2.85223079943424    0.12216494243455   -2.04901557663389
O         4.17466304249288    0.04664687926953   -1.78013506777753
C         4.41660364630153    0.93186212674469   -0.78354841051787
C         3.22994112098978    1.60109938138863   -0.43000415054501
C         3.24282022422994    2.55711758106527    0.58040591609071
C         4.43936535523829    2.80602717606948    1.21554530324885
C         5.60647857132147    2.12555192182098    0.86489518771611
C         5.61906473828683    1.18143855624337   -0.14137882315803
O         0.35635898386856    2.49766032517793   -1.51950400233326
H        -0.05579594438252    0.81043482722386    1.92673234159488
H         1.54025527615527    1.44128569909535    3.68175400175075
H         3.79882437473171    1.28450428374154    4.65950531421829
H         6.05525452331845    0.29840006467636    4.64394602708358
H         6.66539377306296   -1.37952637874994    2.94979811564534
H         5.02571149352274   -2.08505190785788    1.25317201210702
H         2.80445526227663   -1.87279337973762    0.24329259031376
H         0.80581114334057   -1.55224975269248   -0.86899197333284
H        -0.94545614180834   -1.81153767087658    1.32547461611944
H        -0.66339215985914   -1.82109319032515   -2.40563554478544
H        -1.09216340515415   -2.76180490245581   -4.59906613450343
H        -2.33466256365228   -4.32784002248108   -6.03679436064209
H        -4.03709631223415   -5.81908825734559   -5.06804133967772
H        -4.51657295251920   -5.75373368670715   -2.65281110306609
H        -4.07787868463056   -4.78937338477291   -0.42005409469989
H        -2.85716239579911   -3.19540187861298    0.99923700728864
H        -5.74596743542945    0.38369103256995    0.64743405749961
H        -1.21019804647953    2.66826809908128    1.63638604683073
H        -1.23308115642817    5.12120544183866    1.67233468244029
H        -3.29138567817585    6.37846723011504    1.26327060191936
H        -5.42947311445580    5.20178123641593    0.80704891592276
H        -1.60345185206887    1.72717028874827   -0.49926249502486
H        -2.17544646563654    0.34322349657036   -3.86534405137641
H         2.48706241003792   -0.51003424509094   -2.83558890733850
H         2.33986435640227    3.08460633509177    0.84377368633372
H         4.48127363808503    3.54109984810346    2.00494896966735
H         6.52127700532921    2.34505420659403    1.39368390727855
H         6.51747946427811    0.65487063716887   -0.41943777241300

          :  Hamiltonian                  GFN2-xTB          :
         :: total energy            -134.542924076809 Eh    ::
         :: gradient norm              0.000240902857 Eh/a0 ::
         :: HOMO-LUMO gap              3.078892852950 eV    ::
         :: SCC energy              -136.661205307898 Eh    ::
         :: -> dispersion             -0.125637754439 Eh    ::
         :: repulsion energy           2.114492072946 Eh    ::

    * Orbital Energies and Occupations

         #    Occupation            Energy/Eh            Energy/eV
      -------------------------------------------------------------
         1        2.0000           -0.7679902             -20.8981
       ...           ...                  ...                  ...
       109        2.0000           -0.4206956             -11.4477
       110        2.0000           -0.4144161             -11.2768
       111        2.0000           -0.4122273             -11.2173
       112        2.0000           -0.4083573             -11.1120
       113        2.0000           -0.4067266             -11.0676
       114        2.0000           -0.4059961             -11.0477
       115        2.0000           -0.4051325             -11.0242
       116        2.0000           -0.3994043             -10.8683
       117        2.0000           -0.3976936             -10.8218
       118        2.0000           -0.3945529             -10.7363
       119        2.0000           -0.3901485             -10.6165
       120        2.0000           -0.3890411             -10.5863
       121        2.0000           -0.3854850             -10.4896 (HOMO)
       122                         -0.2723378              -7.4107 (LUMO)
       123                         -0.2673537              -7.2751
       124                         -0.2583264              -7.0294
       125                         -0.2565581              -6.9813
       126                         -0.2523080              -6.8656
       127                         -0.2425865              -6.6011
       128                         -0.2360675              -6.4237
       129                         -0.2299505              -6.2573
       130                         -0.2246753              -6.1137
       131                         -0.2228474              -6.0640
       132                         -0.2183722              -5.9422
       ...                                ...                  ...
       228                          0.7090221              19.2935
      -------------------------------------------------------------
                  HL-Gap            0.1131472 Eh            3.0789 eV

     #   Z          covCN         q      C6AA      Î±(0)
     1   6 C        2.920    -0.033    28.824     8.804
     2   6 C        2.917    -0.032    28.807     8.801
     3   6 C        2.988     0.013    27.706     8.634
     4   6 C        2.918    -0.033    28.828     8.805
     5   6 C        2.916    -0.028    28.708     8.786
     6   6 C        2.916    -0.028    28.706     8.786
     7   6 C        2.919    -0.034    28.837     8.806
     8   6 C        2.987     0.014    27.688     8.632
     9   6 C        2.924    -0.042    29.034     8.836
    10   6 C        2.968    -0.006    28.156     8.704
    11   6 C        3.822     0.034    19.993     6.363
    12   6 C        3.843     0.041    19.864     6.340
    13   6 C        2.968    -0.002    28.083     8.692
    14   6 C        2.921    -0.048    29.186     8.859
    15   6 C        2.987     0.013    27.713     8.635
    16   6 C        2.919    -0.037    28.922     8.819
    17   6 C        2.916    -0.030    28.738     8.791
    18   6 C        2.916    -0.029    28.724     8.789
    19   6 C        2.918    -0.033    28.813     8.802
    20   6 C        2.987     0.015    27.669     8.629
    21   6 C        2.917    -0.031    28.782     8.798
    22   6 C        2.920    -0.033    28.827     8.805
    23   7 N        2.773    -0.112    23.435     7.190
    24   6 C        2.756     0.278    22.293     7.732
    25   6 C        3.037    -0.057    29.369     8.889
    26   6 C        3.066     0.098    25.775     8.325
    27   8 O        1.721    -0.185    17.091     5.582
    28   6 C        3.127     0.124    25.101     8.203
    29   6 C        3.088    -0.017    28.327     8.724
    30   6 C        2.912    -0.036    28.891     8.814
    31   6 C        2.920    -0.033    28.830     8.805
    32   6 C        2.926    -0.032    28.807     8.802
    33   6 C        2.908    -0.048    29.188     8.859
    34   8 O        0.859    -0.425    22.190     6.316
    35   6 C        3.782     0.092    19.082     6.223
    36   6 C        2.687     0.354    20.984     7.497
    37   8 O        1.659    -0.353    19.963     6.032
    38   8 O        0.856    -0.397    21.623     6.234
    39   7 N        2.769    -0.119    23.593     7.214
    40   6 C        2.761     0.278    22.304     7.734
    41   6 C        3.037    -0.051    29.222     8.867
    42   6 C        3.057     0.080    26.162     8.388
    43   8 O        1.721    -0.193    17.226     5.604
    44   6 C        3.119     0.123    25.135     8.211
    45   6 C        3.094    -0.007    28.085     8.686
    46   6 C        2.912    -0.030    28.755     8.793
    47   6 C        2.923    -0.035    28.876     8.812
    48   6 C        2.928    -0.032    28.800     8.801
    49   6 C        2.908    -0.050    29.233     8.866
    50   8 O        0.859    -0.422    22.134     6.308
    51   1 H        0.926     0.035     2.511     2.478
    52   1 H        0.926     0.041     2.441     2.443
    53   1 H        0.926     0.037     2.495     2.470
    54   1 H        0.926     0.036     2.508     2.477
    55   1 H        0.926     0.035     2.511     2.478
    56   1 H        0.926     0.035     2.517     2.481
    57   1 H        0.925     0.030     2.581     2.512
    58   1 H        0.924     0.053     2.281     2.362
    59   1 H        0.924     0.077     2.012     2.218
    60   1 H        0.926     0.031     2.576     2.510
    61   1 H        0.925     0.028     2.618     2.530
    62   1 H        0.926     0.032     2.561     2.503
    63   1 H        0.926     0.033     2.540     2.492
    64   1 H        0.926     0.036     2.506     2.476
    65   1 H        0.926     0.041     2.430     2.438
    66   1 H        0.926     0.060     2.194     2.316
    67   1 H        0.926     0.069     2.093     2.262
    68   1 H        0.926     0.034     2.537     2.491
    69   1 H        0.926     0.043     2.412     2.429
    70   1 H        0.926     0.044     2.395     2.420
    71   1 H        0.926     0.051     2.302     2.373
    72   1 H        0.923     0.101     1.775     2.083
    73   1 H        0.804     0.343     0.604     1.221
    74   1 H        0.926     0.053     2.279     2.361
    75   1 H        0.926     0.045     2.387     2.416
    76   1 H        0.926     0.041     2.434     2.439
    77   1 H        0.926     0.043     2.413     2.429
    78   1 H        0.926     0.050     2.321     2.382

Wiberg/Mayer (AO) data.
largest (>0.10) Wiberg bond orders for each atom

     #   Z sym  total        # sym  WBO       # sym  WBO       # sym  WBO
 ---------------------------------------------------------------------------
     1   6 C    3.991 --     2 C    1.564    10 C    1.295    51 H    0.962
     2   6 C    3.991 --     1 C    1.564     3 C    1.276    52 H    0.968
                             9 C    0.114
     3   6 C    3.989 --     4 C    1.282     2 C    1.276     8 C    1.250
     4   6 C    3.991 --     5 C    1.555     3 C    1.282    53 H    0.968
                             7 C    0.118
     5   6 C    3.989 --     4 C    1.555     6 C    1.321    54 H    0.971
     6   6 C    3.992 --     7 C    1.557     5 C    1.321    55 H    0.971
     7   6 C    3.989 --     6 C    1.557     8 C    1.278    56 H    0.968
                             4 C    0.118
     8   6 C    3.990 --     9 C    1.283     7 C    1.278     3 C    1.250
     9   6 C    3.989 --    10 C    1.523     8 C    1.283    57 H    0.965
                             2 C    0.114
    10   6 C    3.985 --     9 C    1.523     1 C    1.295    11 C    0.988
    11   6 C    3.965 --    10 C    0.988    12 C    0.966    39 N    0.955
                            58 H    0.954
    12   6 C    3.960 --    13 C    0.983    11 C    0.966    59 H    0.954
                            23 N    0.950
    13   6 C    3.984 --    14 C    1.527    22 C    1.292    12 C    0.983
    14   6 C    3.991 --    13 C    1.527    15 C    1.278    60 H    0.961
                            21 C    0.113
    15   6 C    3.990 --    16 C    1.280    14 C    1.278    20 C    1.252
    16   6 C    3.990 --    17 C    1.557    15 C    1.280    61 H    0.968
                            19 C    0.118
    17   6 C    3.992 --    16 C    1.557    18 C    1.321    62 H    0.971
    18   6 C    3.990 --    19 C    1.556    17 C    1.321    63 H    0.971
    19   6 C    3.991 --    18 C    1.556    20 C    1.282    64 H    0.968
                            16 C    0.118
    20   6 C    3.990 --    19 C    1.282    21 C    1.276    15 C    1.252
    21   6 C    3.991 --    22 C    1.565    20 C    1.276    65 H    0.967
                            14 C    0.113
    22   6 C    3.988 --    21 C    1.565    13 C    1.292    66 H    0.964
    23   7 N    3.463 --    24 C    1.197    35 C    0.994    12 C    0.950
                            34 O    0.185
    24   6 C    3.948 --    34 O    1.681    23 N    1.197    25 C    0.985
    25   6 C    3.976 --    26 C    1.609    29 C    1.165    24 C    0.985
    26   6 C    3.920 --    25 C    1.609    27 O    1.129    67 H    0.964
    27   8 O    2.425 --    26 C    1.129    28 C    1.081
    28   6 C    3.920 --    33 C    1.355    29 C    1.277    27 O    1.081
    29   6 C    3.984 --    30 C    1.333    28 C    1.277    25 C    1.165
    30   6 C    3.991 --    31 C    1.495    29 C    1.333    68 H    0.963
                            33 C    0.115
    31   6 C    3.990 --    30 C    1.495    32 C    1.385    69 H    0.971
    32   6 C    3.990 --    33 C    1.482    31 C    1.385    70 H    0.971
    33   6 C    3.987 --    32 C    1.482    28 C    1.355    71 H    0.967
                            30 C    0.115
    34   8 O    2.008 --    24 C    1.681    23 N    0.185
    35   6 C    3.967 --    23 N    0.994    39 N    0.984    36 C    0.915
                            72 H    0.912
    36   6 C    3.919 --    38 O    1.770    37 O    1.160    35 C    0.915
    37   8 O    2.226 --    36 C    1.160    73 H    0.856    38 O    0.180
    38   8 O    2.053 --    36 C    1.770    37 O    0.180
    39   7 N    3.450 --    40 C    1.198    35 C    0.984    11 C    0.955
                            50 O    0.187
    40   6 C    3.949 --    50 O    1.691    39 N    1.198    41 C    0.980
    41   6 C    3.979 --    42 C    1.620    45 C    1.162    40 C    0.980
    42   6 C    3.917 --    41 C    1.620    43 O    1.114    74 H    0.965
    43   8 O    2.413 --    42 C    1.114    44 C    1.080
    44   6 C    3.921 --    49 C    1.353    45 C    1.281    43 O    1.080
    45   6 C    3.985 --    46 C    1.338    44 C    1.281    41 C    1.162
    46   6 C    3.991 --    47 C    1.496    45 C    1.338    75 H    0.968
                            49 C    0.116
    47   6 C    3.991 --    46 C    1.496    48 C    1.385    76 H    0.971
    48   6 C    3.991 --    49 C    1.482    47 C    1.385    77 H    0.971
    49   6 C    3.987 --    48 C    1.482    44 C    1.353    78 H    0.967
                            46 C    0.116
    50   8 O    2.021 --    40 C    1.691    39 N    0.187
    51   1 H    0.998 --     1 C    0.962
    52   1 H    0.997 --     2 C    0.968
    53   1 H    0.998 --     4 C    0.968
    54   1 H    0.998 --     5 C    0.971
    55   1 H    0.998 --     6 C    0.971
    56   1 H    0.998 --     7 C    0.968
    57   1 H    0.999 --     9 C    0.965
    58   1 H    0.996 --    11 C    0.954
    59   1 H    0.993 --    12 C    0.954
    60   1 H    0.999 --    14 C    0.961
    61   1 H    0.999 --    16 C    0.968
    62   1 H    0.999 --    17 C    0.971
    63   1 H    0.998 --    18 C    0.971
    64   1 H    0.998 --    19 C    0.968
    65   1 H    0.997 --    21 C    0.967
    66   1 H    0.996 --    22 C    0.964
    67   1 H    0.994 --    26 C    0.964
    68   1 H    0.999 --    30 C    0.963
    69   1 H    0.998 --    31 C    0.971
    70   1 H    0.998 --    32 C    0.971
    71   1 H    0.997 --    33 C    0.967
    72   1 H    0.989 --    35 C    0.912
    73   1 H    0.882 --    37 O    0.856
    74   1 H    0.996 --    42 C    0.965
    75   1 H    0.998 --    46 C    0.968
    76   1 H    0.998 --    47 C    0.971
    77   1 H    0.998 --    48 C    0.971
    78   1 H    0.997 --    49 C    0.967
 ---------------------------------------------------------------------------

molecular dipole:
                 x           y           z       tot (Debye)
 q only:        1.478      -0.459      -0.163
   full:        1.399      -0.482      -0.531       3.997

           -------------------------------------------------
          | TOTAL ENERGY             -134.542924076809 Eh   |
          | GRADIENT NORM               0.000240902857 Eh/Î± |
          | HOMO-LUMO GAP               3.078892852950 eV   |
           -------------------------------------------------

 * finished run on 2022/03/16 at 23:21:23.896
