   * xtb version 6.3.3 (4ae9cef) compiled by 'conda@95abc7406d43' on 2020-10-14
          program call               : xtb acid_250.xyz --opt --chrg 0 --uhf 0 --gfn 2
          number of atoms            :                    92
          number of electrons        :                   274
          charge                     :                     0
          spin                       :                   0.0

   ID    Z sym.   atoms
    1    6 C      1-22, 24-32, 34-36, 38, 39, 43-51, 53-55
    2    7 N      23, 42
    3    8 O      33, 37, 40, 41, 52, 56
    4    1 H      57-92

          :  Hamiltonian                  GFN2-xTB          :
 * total energy  :  -151.4207605 Eh     change       -0.4679634E-08 Eh
 * total energy  :  -151.4371495 Eh     change       -0.1638892E-01 Eh
 * total energy  :  -151.4424952 Eh     change       -0.5345732E-02 Eh
 * total energy  :  -151.4446307 Eh     change       -0.2135514E-02 Eh
 * total energy  :  -151.4466965 Eh     change       -0.2065807E-02 Eh
 * total energy  :  -151.4480877 Eh     change       -0.1391218E-02 Eh
 * total energy  :  -151.4492837 Eh     change       -0.1196020E-02 Eh
 * total energy  :  -151.4504864 Eh     change       -0.1202632E-02 Eh
 * total energy  :  -151.4517263 Eh     change       -0.1239871E-02 Eh
 * total energy  :  -151.4528675 Eh     change       -0.1141216E-02 Eh
 * total energy  :  -151.4692313 Eh     change       -0.1134724E-04 Eh
 * total energy  :  -151.4692423 Eh     change       -0.1098461E-04 Eh
 * total energy  :  -151.4692545 Eh     change       -0.1218981E-04 Eh
 * total energy  :  -151.4692680 Eh     change       -0.1351998E-04 Eh
 * total energy  :  -151.4692790 Eh     change       -0.1097142E-04 Eh
 * total energy  :  -151.4692884 Eh     change       -0.9433496E-05 Eh
 * total energy  :  -151.4692998 Eh     change       -0.1132559E-04 Eh
 * total energy  :  -151.4693085 Eh     change       -0.8723528E-05 Eh
 * total energy  :  -151.4693133 Eh     change       -0.4841513E-05 Eh
   *** GEOMETRY OPTIMIZATION CONVERGED AFTER 137 ITERATIONS ***

 final structure:
================
92
 xtb: 6.3.3 (4ae9cef)
C         1.10063159852385    2.58066352966723   -2.01576932286190
C         1.55496660934303    3.54413898325668   -2.86934300146713
C         1.92851615204154    4.81810701913845   -2.39234985142796
C         2.40046424259653    5.83490594549410   -3.24762858942822
C         2.75312962872811    7.05790403489442   -2.74958306214737
C         2.65028158091263    7.31986850220278   -1.37419728512470
C         2.19596725676776    6.35506990267910   -0.51966882722398
C         1.82448808022126    5.08271200519706   -1.00200689778424
C         1.35686080084108    4.06631733742949   -0.14543608698853
C         1.00292775705826    2.83772011702954   -0.63448323735427
C         0.48215860060008    1.76836837505044    0.28930654736782
C        -0.99814491472354    1.42365238027943    0.02954870244283
C        -1.84643554426549    1.72753228713737    1.23952175013405
C        -2.02166899391533    0.81133191646175    2.24187295835310
C        -2.79303311168069    1.11870565180349    3.38040442035456
C        -3.00481297297928    0.18256637091749    4.41396314007662
C        -3.75254605028295    0.51060491283107    5.50984256666474
C        -4.32396638716984    1.78794274519528    5.62235125295264
C        -4.14078138237236    2.71529054681562    4.63496312919546
C        -3.37479608943442    2.40819124403983    3.49171772408038
C        -3.16717521256902    3.33748086458311    2.45080802801319
C        -2.42683889537180    3.00521378656657    1.35339577520604
N        -0.98906369026487    0.00980879683985   -0.29546023353241
C        -2.11143472463982   -0.63195446677421   -0.71005841687012
C        -1.89873139678011   -2.09154495061752   -0.87749085387627
C        -1.79121908371624   -2.84562821282278   -2.02641530896032
C        -1.81223296913911   -2.48410533407213   -3.43106520106671
C        -1.27689492573324   -3.36595548704461   -4.37360449330703
C        -1.25667233030091   -3.02950917507732   -5.71306289691905
C        -1.76606348062096   -1.81102060990571   -6.13323897756501
C        -2.30469074168637   -0.93412821849257   -5.20479064245783
C        -2.33296248033799   -1.26262271660864   -3.86274105976310
O        -1.52859851328053   -4.13101166193452   -1.69361210874184
C        -1.48199504501127   -4.22000502330782   -0.35213416182222
C        -1.19703498952368   -5.53911233499225    0.26612822646657
C        -1.70184856502183   -2.99494063965080    0.20262780539270
O        -3.16129473694158   -0.05146122710507   -0.88598610497090
C         0.30089905869518   -0.60692221551227   -0.14506751984094
C         0.71862790133954   -1.37383173154268   -1.41874988197647
O         0.51845525459240   -0.65738628801977   -2.51880856805093
O         1.20023469351089   -2.47288280131504   -1.41472815150419
N         1.18482487439230    0.49929915818761    0.12995326081369
C         2.50221510184521    0.41358613792346    0.47317522836194
C         3.08233738254791   -0.94679331112612    0.40115642837937
C         2.79585363686824   -2.05594488024232    1.16797583704964
C         1.85318990915180   -2.24578067518978    2.25390317930764
C         1.36217160286746   -3.52127531068827    2.53828259388077
C         0.42780304961714   -3.70010456369486    3.53968379348268
C        -0.02889405059644   -2.61549988243953    4.27183008696661
C         0.46396397733939   -1.34702579757921    4.00633748912005
C         1.40116130539999   -1.15986750142455    3.00853427176996
O         3.54878625371677   -3.09771732768212    0.75273709513711
C         4.32423913599474   -2.67469068929424   -0.26277810014423
C         5.24312239409296   -3.64857907027812   -0.90567434437927
C         4.08590579852789   -1.35546385065088   -0.51461286720183
O         3.13885940579420    1.39930771428731    0.78045525340481
H         0.81388480025993    1.60996830886515   -2.39036691408202
H         1.63380226922218    3.34289462253843   -3.92847850831857
H         2.47893482449629    5.62846746625379   -4.30579314900535
H         3.11490654754071    7.83238920358846   -3.41016170688737
H         2.93490189431666    8.29187936285564   -0.99841592348125
H         2.11694622053254    6.55026503350307    0.54017082282796
H         1.28949105233954    4.27010550097938    0.91361671587482
H         0.61839102721924    2.10694531555785    1.32601312070995
H        -1.38609425256440    1.98253743208294   -0.83112055595456
H        -1.57539079382369   -0.17126977360190    2.17424788473441
H        -2.56775186827522   -0.80130550208906    4.31829863301801
H        -3.91278880129711   -0.21134331529080    6.29767720540443
H        -4.91230205403242    2.02923807181782    6.49550612808704
H        -4.58207308980302    3.69855577329741    4.71478030361459
H        -3.61161523703776    4.31885621278620    2.53421443118575
H        -2.27605810255411    3.71859338917526    0.55623885390936
H        -0.87636480080330   -4.31107664712946   -4.04008280521646
H        -0.84254937175191   -3.72011581114875   -6.43309221934663
H        -1.75041148310399   -1.54988049047449   -7.18089712923537
H        -2.71347414081258    0.01089743569371   -5.52988557526328
H        -2.77566239748551   -0.58588996466812   -3.15141767576887
H        -1.29271900350013   -5.46442575760939    1.34464839088568
H        -0.18458083521419   -5.85542606204470    0.01776438065853
H        -1.88768573564641   -6.29247338358423   -0.10914755916826
H        -1.73445329760254   -2.76079345812485    1.24766657560396
H         0.30950895746495   -1.34066732235881    0.67959762063320
H         0.76884780252433   -1.15329347489859   -3.31609130402714
H         1.71519778232853   -4.35865880573169    1.95713071420345
H         0.05229809120649   -4.69053107286777    3.75246865969447
H        -0.75946967204487   -2.75978091219579    5.05430102810194
H         0.12029957858950   -0.50087432975320    4.58324951900168
H         1.80069851290501   -0.17517721446008    2.81769808739012
H         5.92729182226674   -3.12741520485628   -1.56804787522042
H         4.67450863516807   -4.37682397818557   -1.48373392659975
H         5.81066963253953   -4.18728941664868   -0.14902099439108
H         4.54764972081585   -0.74060854221825   -1.25946474320403

          :  Hamiltonian                  GFN2-xTB          :
         :: total energy            -151.469313321822 Eh    ::
         :: gradient norm              0.000434919947 Eh/a0 ::
         :: HOMO-LUMO gap              2.892778611977 eV    ::
         :: SCC energy              -153.891009054116 Eh    ::
         :: -> dispersion             -0.138650491644 Eh    ::
         :: repulsion energy           2.416030612939 Eh    ::

    * Orbital Energies and Occupations

         #    Occupation            Energy/Eh            Energy/eV
      -------------------------------------------------------------
         1        2.0000           -0.7749730             -21.0881
       ...           ...                  ...                  ...
       125        2.0000           -0.4147821             -11.2868
       126        2.0000           -0.4139656             -11.2646
       127        2.0000           -0.4117462             -11.2042
       128        2.0000           -0.4064701             -11.0606
       129        2.0000           -0.4051808             -11.0255
       130        2.0000           -0.4038170             -10.9884
       131        2.0000           -0.3984663             -10.8428
       132        2.0000           -0.3962285             -10.7819
       133        2.0000           -0.3923064             -10.6752
       134        2.0000           -0.3814296             -10.3792
       135        2.0000           -0.3782519             -10.2928
       136        2.0000           -0.3771000             -10.2614
       137        2.0000           -0.3762121             -10.2373 (HOMO)
       138                         -0.2699044              -7.3445 (LUMO)
       139                         -0.2631031              -7.1594
       140                         -0.2591848              -7.0528
       141                         -0.2585161              -7.0346
       142                         -0.2563428              -6.9754
       143                         -0.2336728              -6.3586
       144                         -0.2332014              -6.3457
       145                         -0.2291883              -6.2365
       146                         -0.2278362              -6.1997
       147                         -0.2207431              -6.0067
       148                         -0.2181245              -5.9355
       ...                                ...                  ...
       260                          0.7030215              19.1302
      -------------------------------------------------------------
                  HL-Gap            0.1063077 Eh            2.8928 eV

     #   Z          covCN         q      C6AA      Î±(0)
     1   6 C        2.919    -0.038    28.941     8.822
     2   6 C        2.918    -0.035    28.862     8.810
     3   6 C        2.987     0.014    27.700     8.633
     4   6 C        2.918    -0.034    28.855     8.809
     5   6 C        2.916    -0.029    28.736     8.790
     6   6 C        2.916    -0.029    28.728     8.789
     7   6 C        2.918    -0.033    28.819     8.803
     8   6 C        2.987     0.017    27.623     8.621
     9   6 C        2.923    -0.034    28.842     8.807
    10   6 C        2.969     0.009    27.824     8.652
    11   6 C        3.823     0.049    19.745     6.323
    12   6 C        3.820     0.044    19.821     6.336
    13   6 C        2.970     0.007    27.860     8.658
    14   6 C        2.922    -0.036    28.886     8.814
    15   6 C        2.987     0.015    27.660     8.627
    16   6 C        2.918    -0.034    28.855     8.809
    17   6 C        2.916    -0.029    28.725     8.789
    18   6 C        2.916    -0.029    28.735     8.790
    19   6 C        2.918    -0.033    28.829     8.805
    20   6 C        2.987     0.014    27.693     8.632
    21   6 C        2.917    -0.032    28.801     8.801
    22   6 C        2.920    -0.033    28.833     8.805
    23   7 N        2.771    -0.109    23.377     7.181
    24   6 C        2.759     0.276    22.340     7.740
    25   6 C        3.069    -0.065    29.534     8.911
    26   6 C        3.086     0.108    25.527     8.282
    27   6 C        2.970     0.001    27.997     8.679
    28   6 C        2.925    -0.035    28.864     8.811
    29   6 C        2.918    -0.032    28.788     8.799
    30   6 C        2.919    -0.032    28.795     8.800
    31   6 C        2.919    -0.028    28.693     8.784
    32   6 C        2.922    -0.038    28.956     8.824
    33   8 O        1.731    -0.187    17.118     5.586
    34   6 C        3.076     0.125    25.192     8.229
    35   6 C        3.753    -0.117    22.802     6.809
    36   6 C        3.005    -0.079    29.956     8.978
    37   8 O        0.859    -0.422    22.119     6.306
    38   6 C        3.748     0.092    19.127     6.238
    39   6 C        2.687     0.352    21.031     7.505
    40   8 O        1.659    -0.354    19.969     6.033
    41   8 O        0.856    -0.396    21.600     6.231
    42   7 N        2.764    -0.121    23.620     7.218
    43   6 C        2.759     0.273    22.378     7.747
    44   6 C        3.067    -0.061    29.433     8.896
    45   6 C        3.095     0.104    25.589     8.291
    46   6 C        2.970     0.003    27.956     8.673
    47   6 C        2.924    -0.030    28.757     8.794
    48   6 C        2.918    -0.029    28.722     8.788
    49   6 C        2.919    -0.031    28.774     8.796
    50   6 C        2.918    -0.027    28.669     8.780
    51   6 C        2.923    -0.038    28.946     8.823
    52   8 O        1.731    -0.182    17.053     5.576
    53   6 C        3.085     0.124    25.201     8.229
    54   6 C        3.753    -0.118    22.811     6.811
    55   6 C        3.007    -0.071    29.749     8.947
    56   8 O        0.859    -0.419    22.063     6.298
    57   1 H        0.926     0.043     2.405     2.425
    58   1 H        0.926     0.034     2.535     2.490
    59   1 H        0.926     0.032     2.564     2.504
    60   1 H        0.926     0.031     2.571     2.508
    61   1 H        0.926     0.032     2.561     2.502
    62   1 H        0.926     0.035     2.519     2.482
    63   1 H        0.926     0.039     2.468     2.457
    64   1 H        0.923     0.055     2.258     2.350
    65   1 H        0.924     0.067     2.118     2.276
    66   1 H        0.925     0.026     2.645     2.543
    67   1 H        0.926     0.031     2.565     2.505
    68   1 H        0.926     0.031     2.569     2.506
    69   1 H        0.926     0.032     2.555     2.499
    70   1 H        0.926     0.034     2.530     2.488
    71   1 H        0.926     0.039     2.460     2.453
    72   1 H        0.926     0.035     2.518     2.481
    73   1 H        0.926     0.046     2.374     2.409
    74   1 H        0.926     0.033     2.538     2.491
    75   1 H        0.926     0.034     2.533     2.489
    76   1 H        0.926     0.038     2.472     2.459
    77   1 H        0.926     0.055     2.255     2.348
    78   1 H        0.925     0.059     2.211     2.326
    79   1 H        0.925     0.070     2.089     2.260
    80   1 H        0.925     0.067     2.118     2.276
    81   1 H        0.926     0.032     2.554     2.499
    82   1 H        0.923     0.058     2.220     2.330
    83   1 H        0.804     0.343     0.605     1.221
    84   1 H        0.926     0.047     2.352     2.398
    85   1 H        0.926     0.033     2.548     2.496
    86   1 H        0.926     0.033     2.540     2.492
    87   1 H        0.926     0.038     2.471     2.458
    88   1 H        0.926     0.035     2.517     2.481
    89   1 H        0.925     0.059     2.216     2.328
    90   1 H        0.925     0.067     2.115     2.274
    91   1 H        0.925     0.066     2.130     2.282
    92   1 H        0.926     0.042     2.421     2.433

Wiberg/Mayer (AO) data.
largest (>0.10) Wiberg bond orders for each atom

     #   Z sym  total        # sym  WBO       # sym  WBO       # sym  WBO
 ---------------------------------------------------------------------------
     1   6 C    3.991 --     2 C    1.565    10 C    1.294    57 H    0.963
     2   6 C    3.992 --     1 C    1.565     3 C    1.276    58 H    0.968
                             9 C    0.114
     3   6 C    3.990 --     4 C    1.282     2 C    1.276     8 C    1.251
     4   6 C    3.992 --     5 C    1.556     3 C    1.282    59 H    0.968
                             7 C    0.118
     5   6 C    3.990 --     4 C    1.556     6 C    1.321    60 H    0.971
     6   6 C    3.992 --     7 C    1.558     5 C    1.321    61 H    0.971
     7   6 C    3.990 --     6 C    1.558     8 C    1.279    62 H    0.968
                             4 C    0.118
     8   6 C    3.990 --     9 C    1.281     7 C    1.279     3 C    1.251
     9   6 C    3.989 --    10 C    1.527     8 C    1.281    63 H    0.965
                             2 C    0.114
    10   6 C    3.985 --     9 C    1.527     1 C    1.294    11 C    0.988
    11   6 C    3.958 --    10 C    0.988    64 H    0.954    12 C    0.954
                            42 N    0.953
    12   6 C    3.960 --    13 C    0.986    23 N    0.961    11 C    0.954
                            65 H    0.951
    13   6 C    3.985 --    14 C    1.529    22 C    1.292    12 C    0.986
    14   6 C    3.991 --    13 C    1.529    15 C    1.281    66 H    0.964
                            21 C    0.115
    15   6 C    3.990 --    14 C    1.281    16 C    1.279    20 C    1.251
    16   6 C    3.990 --    17 C    1.557    15 C    1.279    67 H    0.967
                            19 C    0.118
    17   6 C    3.992 --    16 C    1.557    18 C    1.321    68 H    0.971
    18   6 C    3.990 --    19 C    1.556    17 C    1.321    69 H    0.971
    19   6 C    3.992 --    18 C    1.556    20 C    1.282    70 H    0.968
                            16 C    0.118
    20   6 C    3.990 --    19 C    1.282    21 C    1.276    15 C    1.251
    21   6 C    3.991 --    22 C    1.565    20 C    1.276    71 H    0.968
                            14 C    0.115
    22   6 C    3.990 --    21 C    1.565    13 C    1.292    72 H    0.968
    23   7 N    3.468 --    24 C    1.206    38 C    0.991    12 C    0.961
                            37 O    0.191
    24   6 C    3.948 --    37 O    1.686    23 N    1.206    25 C    0.972
    25   6 C    3.978 --    26 C    1.475    36 C    1.262    24 C    0.972
    26   6 C    3.910 --    25 C    1.475    33 O    1.102    27 C    1.087
                            34 C    0.115
    27   6 C    3.988 --    32 C    1.369    28 C    1.368    26 C    1.087
    28   6 C    3.990 --    29 C    1.459    27 C    1.368    73 H    0.968
                            31 C    0.105
    29   6 C    3.992 --    28 C    1.459    30 C    1.430    74 H    0.971
                            32 C    0.106
    30   6 C    3.977 --    31 C    1.430    29 C    1.430    75 H    0.971
    31   6 C    3.992 --    32 C    1.459    30 C    1.430    76 H    0.970
                            28 C    0.105
    32   6 C    3.988 --    31 C    1.459    27 C    1.369    77 H    0.964
                            29 C    0.106
    33   8 O    2.435 --    34 C    1.124    26 C    1.102
    34   6 C    3.906 --    36 C    1.563    33 O    1.124    35 C    1.030
                            26 C    0.115
    35   6 C    3.991 --    34 C    1.030    78 H    0.983    80 H    0.970
                            79 H    0.965
    36   6 C    3.975 --    34 C    1.563    25 C    1.262    81 H    0.973
    37   8 O    2.017 --    24 C    1.686    23 N    0.191
    38   6 C    3.971 --    23 N    0.991    42 N    0.984    82 H    0.931
                            39 C    0.909
    39   6 C    3.920 --    41 O    1.768    40 O    1.159    38 C    0.909
    40   8 O    2.230 --    39 C    1.159    83 H    0.854    41 O    0.180
    41   8 O    2.051 --    39 C    1.768    40 O    0.180
    42   7 N    3.449 --    43 C    1.190    38 C    0.984    11 C    0.953
                            56 O    0.187
    43   6 C    3.946 --    56 O    1.691    42 N    1.190    44 C    0.981
    44   6 C    3.977 --    45 C    1.476    55 C    1.271    43 C    0.981
    45   6 C    3.911 --    44 C    1.476    52 O    1.106    46 C    1.083
                            53 C    0.120
    46   6 C    3.989 --    47 C    1.369    51 C    1.364    45 C    1.083
    47   6 C    3.988 --    48 C    1.457    46 C    1.369    84 H    0.968
                            50 C    0.105
    48   6 C    3.992 --    47 C    1.457    49 C    1.431    85 H    0.970
                            51 C    0.105
    49   6 C    3.977 --    48 C    1.431    50 C    1.428    86 H    0.971
    50   6 C    3.992 --    51 C    1.459    49 C    1.428    87 H    0.970
                            47 C    0.105
    51   6 C    3.990 --    50 C    1.459    46 C    1.364    88 H    0.966
                            48 C    0.105
    52   8 O    2.440 --    53 C    1.125    45 C    1.106
    53   6 C    3.905 --    55 C    1.560    52 O    1.125    54 C    1.030
                            45 C    0.120
    54   6 C    3.992 --    53 C    1.030    89 H    0.983    91 H    0.972
                            90 H    0.965
    55   6 C    3.977 --    53 C    1.560    44 C    1.271    92 H    0.974
    56   8 O    2.018 --    43 C    1.691    42 N    0.187
    57   1 H    0.998 --     1 C    0.963
    58   1 H    0.998 --     2 C    0.968
    59   1 H    0.999 --     4 C    0.968
    60   1 H    0.999 --     5 C    0.971
    61   1 H    0.999 --     6 C    0.971
    62   1 H    0.998 --     7 C    0.968
    63   1 H    0.998 --     9 C    0.965
    64   1 H    0.996 --    11 C    0.954
    65   1 H    0.994 --    12 C    0.951
    66   1 H    0.999 --    14 C    0.964
    67   1 H    0.999 --    16 C    0.967
    68   1 H    0.999 --    17 C    0.971
    69   1 H    0.999 --    18 C    0.971
    70   1 H    0.998 --    19 C    0.968
    71   1 H    0.997 --    21 C    0.968
    72   1 H    0.998 --    22 C    0.968
    73   1 H    0.998 --    28 C    0.968
    74   1 H    0.998 --    29 C    0.971
    75   1 H    0.998 --    30 C    0.971
    76   1 H    0.998 --    31 C    0.970
    77   1 H    0.997 --    32 C    0.964
    78   1 H    0.996 --    35 C    0.983
    79   1 H    0.994 --    35 C    0.965
    80   1 H    0.994 --    35 C    0.970
    81   1 H    0.998 --    36 C    0.973
    82   1 H    0.996 --    38 C    0.931
    83   1 H    0.882 --    40 O    0.854
    84   1 H    0.998 --    47 C    0.968
    85   1 H    0.998 --    48 C    0.970
    86   1 H    0.998 --    49 C    0.971
    87   1 H    0.998 --    50 C    0.970
    88   1 H    0.999 --    51 C    0.966
    89   1 H    0.996 --    54 C    0.983
    90   1 H    0.994 --    54 C    0.965
    91   1 H    0.994 --    54 C    0.972
    92   1 H    0.998 --    55 C    0.974
 ---------------------------------------------------------------------------

molecular dipole:
                 x           y           z       tot (Debye)
 q only:        0.242      -0.690      -0.277
   full:        0.357      -1.060      -0.353       2.980

           -------------------------------------------------
          | TOTAL ENERGY             -151.469313321822 Eh   |
          | GRADIENT NORM               0.000434919947 Eh/Î± |
          | HOMO-LUMO GAP               2.892778611977 eV   |
           -------------------------------------------------

 * finished run on 2022/03/16 at 22:59:51.394
