   * xtb version 6.3.3 (4ae9cef) compiled by 'conda@95abc7406d43' on 2020-10-14
          program call               : xtb acid_99.xyz --opt --chrg 0 --uhf 0 --gfn 2
          number of atoms            :                    62
          number of electrons        :                   206
          charge                     :                     0
          spin                       :                   0.0

   ID    Z sym.   atoms
    1    6 C      1, 3-16, 18, 20-22, 24, 25, 28, 29, 33-35, 37, 38
    2    8 O      2, 17, 27, 30, 31, 40
    3    7 N      19, 32
    4    9 F      23, 36
    5   16 S      26, 39
    6    1 H      41-62

          :  Hamiltonian                  GFN2-xTB          :
 * total energy  :  -117.3551014 Eh     change       -0.1541707E-08 Eh
 * total energy  :  -117.3685930 Eh     change       -0.1349161E-01 Eh
 * total energy  :  -117.3734195 Eh     change       -0.4826454E-02 Eh
 * total energy  :  -117.3750979 Eh     change       -0.1678397E-02 Eh
 * total energy  :  -117.3764184 Eh     change       -0.1320490E-02 Eh
 * total energy  :  -117.3776460 Eh     change       -0.1227656E-02 Eh
 * total energy  :  -117.3789058 Eh     change       -0.1259743E-02 Eh
 * total energy  :  -117.3801450 Eh     change       -0.1239274E-02 Eh
 * total energy  :  -117.3814086 Eh     change       -0.1263560E-02 Eh
 * total energy  :  -117.3824613 Eh     change       -0.1052651E-02 Eh
 * total energy  :  -117.3983912 Eh     change        0.8272407E-05 Eh
 * total energy  :  -117.3984012 Eh     change       -0.1001784E-04 Eh
 * total energy  :  -117.3984063 Eh     change       -0.5106446E-05 Eh
 * total energy  :  -117.3984002 Eh     change        0.6085745E-05 Eh
 * total energy  :  -117.3984082 Eh     change       -0.7986946E-05 Eh
 * total energy  :  -117.3984135 Eh     change       -0.5325830E-05 Eh
 * total energy  :  -117.3984076 Eh     change        0.5888699E-05 Eh
 * total energy  :  -117.3984156 Eh     change       -0.7975803E-05 Eh
 * total energy  :  -117.3984171 Eh     change       -0.1507174E-05 Eh
   *** GEOMETRY OPTIMIZATION CONVERGED AFTER 81 ITERATIONS ***

 final structure:
================
62
 xtb: 6.3.3 (4ae9cef)
C        -2.46783953639167   -1.82694753212766    1.16598558878048
O        -2.27831452493692   -0.91493856160489    2.15919766516148
C        -3.26729766564781   -0.78649312458988    3.15212029612376
C        -3.45181597534669   -2.80385908849363    1.16681725234200
C        -3.54475465638752   -3.69269021460474    0.10820958401939
C        -2.66378594114648   -3.61465924959773   -0.95111058540525
C        -1.68406494404725   -2.63339835974688   -0.96324720250205
C        -1.57712493188778   -1.73621984186271    0.08140264792410
C        -0.53815503349654   -0.65650670398908    0.16193637869920
C         0.61821525396085   -0.66653973430480   -0.84790140460861
C         1.69852609450114   -1.65562128023701   -0.51114338747395
C         2.43052120506424   -1.52121189603335    0.65682718904862
C         3.43486838249603   -2.41764191087653    0.97484915459040
C         3.71066635501386   -3.46084708419793    0.11244978248798
C         2.99332267445644   -3.60986559936739   -1.06160084508479
C         1.98474505699579   -2.71128164417218   -1.38760086099576
O         1.22977352873509   -2.78743443299664   -2.52098738759665
C         1.55221955385311   -3.76366996584058   -3.48232557563844
N         1.08581834051315    0.71762255968472   -0.74775363472280
C         2.27509325118089    1.13368342110471   -1.23806374106907
C         2.55987782282635    2.57673311250409   -0.96037598498209
C         3.26541928278879    3.09517128015137    0.08464941490993
F         3.73427102091625    2.34073122385532    1.09153558611063
C         3.41623095999520    4.49918053415121    0.05985255439393
C         2.81685737942189    5.03624215027219   -1.03025514002405
S         2.07480968714892    3.84614786761106   -2.02306163720242
O         3.05246234623416    0.41962615891942   -1.82699657466726
C         0.07335283647566    1.58356866435673   -0.17847547855720
C         0.54047466400966    2.23137869478890    1.14438336877481
O         0.98675247711195    1.34139098122888    2.01229150538915
O         0.48771725295581    3.41377732047836    1.34501358633967
N        -1.05633893554409    0.70723917842300    0.00974891091913
C        -2.34753844161697    1.09937577633686   -0.12170362760339
C        -2.51576321025085    2.57784403136875    0.03049433428569
C        -2.44022170718133    3.28376834184277    1.19692133523804
F        -2.11974030030006    2.71327224330594    2.36925587760577
C        -2.73629014397909    4.65794308131640    1.07568427862664
C        -3.04079004135519    4.97996891086627   -0.20613896848105
S        -2.98760000064025    3.62139916508051   -1.25821106453865
O        -3.29236253202320    0.36714367911131   -0.29763512436734
H        -3.30577017848560   -1.66800905949284    3.80073723736323
H        -4.25102694963106   -0.61274369727901    2.70719198215695
H        -2.97868182568332    0.08340578556728    3.74065137804374
H        -4.15185125454686   -2.87990088039613    1.98355959551465
H        -4.31648232660208   -4.44807614488143    0.11953038763093
H        -2.73902294803770   -4.30833682572453   -1.77449506945649
H        -1.00107308534526   -2.57910387944937   -1.79458643352107
H        -0.10626206560261   -0.70141568068871    1.17336509085431
H         0.25890558303387   -0.84161895397420   -1.86729802488082
H         2.22500837427626   -0.69119159514542    1.31589101010680
H         4.00183994139362   -2.29558567428851    1.88461608434639
H         4.49477550389984   -4.16595898471880    0.34515814244919
H         3.23501243731178   -4.42741149646635   -1.72174000072166
H         1.40856782382248   -4.77590156309189   -3.09060447822017
H         2.57980951372037   -3.64891801449606   -3.83911971162864
H         0.86322749657136   -3.59854174560757   -4.30976165017439
H         3.93793105783803    5.05118652932849    0.81838043283578
H         2.76247876042619    6.06638092892283   -1.31752851596083
H        -0.18420955706424    2.41027662061701   -0.86009656267009
H         1.26204996517240    1.76349069310145    2.84369080652815
H        -2.71010385126357    5.34367701101663    1.90102475609958
H        -3.29731931967667    5.94091447505362   -0.60360552294309

          :  Hamiltonian                  GFN2-xTB          :
         :: total energy            -117.398417100698 Eh    ::
         :: gradient norm              0.000943289285 Eh/a0 ::
         :: HOMO-LUMO gap              2.706917732953 eV    ::
         :: SCC energy              -118.839927856453 Eh    ::
         :: -> dispersion             -0.093080874119 Eh    ::
         :: repulsion energy           1.438537077033 Eh    ::

    * Orbital Energies and Occupations

         #    Occupation            Energy/Eh            Energy/eV
      -------------------------------------------------------------
         1        2.0000           -0.8294877             -22.5715
       ...           ...                  ...                  ...
        91        2.0000           -0.4237007             -11.5295
        92        2.0000           -0.4203772             -11.4390
        93        2.0000           -0.4183352             -11.3835
        94        2.0000           -0.4164455             -11.3321
        95        2.0000           -0.4149156             -11.2904
        96        2.0000           -0.4102305             -11.1629
        97        2.0000           -0.4089960             -11.1293
        98        2.0000           -0.4074244             -11.0866
        99        2.0000           -0.4026915             -10.9578
       100        2.0000           -0.3990615             -10.8590
       101        2.0000           -0.3966477             -10.7933
       102        2.0000           -0.3788508             -10.3091
       103        2.0000           -0.3737898             -10.1713 (HOMO)
       104                         -0.2743124              -7.4644 (LUMO)
       105                         -0.2686389              -7.3100
       106                         -0.2624778              -7.1424
       107                         -0.2402549              -6.5377
       108                         -0.2367904              -6.4434
       109                         -0.2261426              -6.1537
       110                         -0.2235155              -6.0822
       111                         -0.2155895              -5.8665
       112                         -0.2135938              -5.8122
       113                         -0.2134631              -5.8086
       114                         -0.2097001              -5.7062
       ...                                ...                  ...
       192                          0.6820169              18.5586
      -------------------------------------------------------------
                  HL-Gap            0.0994774 Eh            2.7069 eV

     #   Z          covCN         q      C6AA      Î±(0)
     1   6 C        2.873     0.151    24.727     8.152
     2   8 O        1.705    -0.274    18.537     5.813
     3   6 C        3.644     0.039    20.253     6.469
     4   6 C        2.917    -0.062    29.530     8.911
     5   6 C        2.921    -0.029    28.729     8.790
     6   6 C        2.919    -0.039    28.981     8.828
     7   6 C        2.921    -0.037    28.908     8.817
     8   6 C        2.970    -0.009    28.233     8.716
     9   6 C        3.846     0.043    19.822     6.333
    10   6 C        3.825     0.043    19.836     6.338
    11   6 C        2.972    -0.009    28.240     8.717
    12   6 C        2.925    -0.033    28.826     8.805
    13   6 C        2.918    -0.038    28.946     8.823
    14   6 C        2.921    -0.030    28.739     8.791
    15   6 C        2.918    -0.063    29.573     8.918
    16   6 C        2.867     0.145    24.836     8.169
    17   8 O        1.705    -0.272    18.503     5.808
    18   6 C        3.643     0.037    20.285     6.474
    19   7 N        2.775    -0.111    23.429     7.189
    20   6 C        2.771     0.281    22.246     7.725
    21   6 C        2.983    -0.047    29.162     8.858
    22   6 C        3.022     0.159    24.544     8.127
    23   9 F        0.785    -0.220    11.446     3.996
    24   6 C        3.100    -0.058    29.303     8.871
    25   6 C        2.953    -0.022    28.558     8.765
    26  16 S        2.355     0.029   139.861    19.904
    27   8 O        0.859    -0.399    21.662     6.240
    28   6 C        3.770     0.087    19.168     6.239
    29   6 C        2.686     0.356    20.963     7.493
    30   8 O        1.659    -0.340    19.714     5.994
    31   8 O        0.856    -0.396    21.606     6.232
    32   7 N        2.771    -0.104    23.288     7.167
    33   6 C        2.768     0.286    22.158     7.709
    34   6 C        2.985    -0.048    29.183     8.861
    35   6 C        3.019     0.161    24.513     8.121
    36   9 F        0.785    -0.221    11.456     3.998
    37   6 C        3.096    -0.058    29.305     8.872
    38   6 C        2.954    -0.026    28.653     8.780
    39  16 S        2.344     0.039   139.469    19.877
    40   8 O        0.858    -0.399    21.655     6.239
    41   1 H        0.924     0.038     2.475     2.460
    42   1 H        0.924     0.048     2.345     2.395
    43   1 H        0.925     0.064     2.153     2.295
    44   1 H        0.926     0.040     2.443     2.444
    45   1 H        0.926     0.038     2.471     2.458
    46   1 H        0.926     0.038     2.481     2.463
    47   1 H        0.926     0.055     2.259     2.351
    48   1 H        0.923     0.080     1.974     2.197
    49   1 H        0.924     0.074     2.042     2.235
    50   1 H        0.926     0.047     2.362     2.403
    51   1 H        0.926     0.040     2.451     2.448
    52   1 H        0.926     0.039     2.458     2.452
    53   1 H        0.926     0.041     2.430     2.438
    54   1 H        0.924     0.041     2.435     2.440
    55   1 H        0.924     0.047     2.358     2.402
    56   1 H        0.925     0.062     2.171     2.304
    57   1 H        0.926     0.070     2.081     2.256
    58   1 H        0.927     0.070     2.088     2.260
    59   1 H        0.923     0.063     2.160     2.298
    60   1 H        0.804     0.350     0.588     1.204
    61   1 H        0.926     0.071     2.072     2.251
    62   1 H        0.927     0.069     2.097     2.265

Wiberg/Mayer (AO) data.
largest (>0.10) Wiberg bond orders for each atom

     #   Z sym  total        # sym  WBO       # sym  WBO       # sym  WBO
 ---------------------------------------------------------------------------
     1   6 C    3.936 --     4 C    1.390     8 C    1.311     2 O    1.065
     2   8 O    2.231 --     1 C    1.065     3 C    0.981
     3   6 C    3.943 --     2 O    0.981    43 H    0.979    42 H    0.977
                            41 H    0.977
     4   6 C    3.987 --     5 C    1.427     1 C    1.390    44 H    0.966
                             7 C    0.100
     5   6 C    3.991 --     6 C    1.452     4 C    1.427    45 H    0.971
                             8 C    0.106
     6   6 C    3.991 --     5 C    1.452     7 C    1.415    46 H    0.971
     7   6 C    3.988 --     8 C    1.449     6 C    1.415    47 H    0.960
                             4 C    0.100
     8   6 C    3.979 --     7 C    1.449     1 C    1.311     9 C    0.998
                             5 C    0.106
     9   6 C    3.954 --     8 C    0.998    10 C    0.963    32 N    0.938
                            48 H    0.936
    10   6 C    3.956 --    11 C    0.995     9 C    0.963    49 H    0.947
                            19 N    0.941
    11   6 C    3.981 --    12 C    1.433    16 C    1.328    10 C    0.995
                            14 C    0.106
    12   6 C    3.989 --    11 C    1.433    13 C    1.429    50 H    0.964
                            15 C    0.103
    13   6 C    3.991 --    14 C    1.441    12 C    1.429    51 H    0.971
    14   6 C    3.990 --    13 C    1.441    15 C    1.438    52 H    0.971
                            11 C    0.106
    15   6 C    3.987 --    14 C    1.438    16 C    1.380    53 H    0.965
                            12 C    0.103
    16   6 C    3.935 --    15 C    1.380    11 C    1.328    17 O    1.059
    17   8 O    2.233 --    16 C    1.059    18 C    0.982
    18   6 C    3.944 --    17 O    0.982    56 H    0.979    55 H    0.977
                            54 H    0.976
    19   7 N    3.478 --    20 C    1.226    28 C    0.978    10 C    0.941
                            27 O    0.203
    20   6 C    3.957 --    27 O    1.698    19 N    1.226    21 C    0.955
    21   6 C    3.944 --    22 C    1.535    26 S    1.164    20 C    0.955
                            25 C    0.116
    22   6 C    3.880 --    21 C    1.535    24 C    1.240    23 F    0.960
    23   9 F    1.094 --    22 C    0.960
    24   6 C    3.984 --    25 C    1.628    22 C    1.240    57 H    0.961
    25   6 C    3.950 --    24 C    1.628    26 S    1.200    58 H    0.968
                            21 C    0.116
    26  16 S    2.645 --    25 C    1.200    21 C    1.164
    27   8 O    2.048 --    20 C    1.698    19 N    0.203
    28   6 C    3.971 --    32 N    0.989    19 N    0.978    59 H    0.947
                            29 C    0.907
    29   6 C    3.924 --    31 O    1.765    30 O    1.180    28 C    0.907
    30   8 O    2.250 --    29 C    1.180    60 H    0.850    31 O    0.187
    31   8 O    2.051 --    29 C    1.765    30 O    0.187
    32   7 N    3.477 --    33 C    1.212    28 C    0.989     9 C    0.938
                            40 O    0.194
    33   6 C    3.955 --    40 O    1.700    32 N    1.212    34 C    0.961
    34   6 C    3.942 --    35 C    1.525    39 S    1.167    33 C    0.961
                            38 C    0.116
    35   6 C    3.880 --    34 C    1.525    37 C    1.245    36 F    0.959
    36   9 F    1.095 --    35 C    0.959
    37   6 C    3.984 --    38 C    1.622    35 C    1.245    61 H    0.961
    38   6 C    3.950 --    37 C    1.622    39 S    1.206    62 H    0.968
                            34 C    0.116
    39  16 S    2.652 --    38 C    1.206    34 C    1.167
    40   8 O    2.051 --    33 C    1.700    32 N    0.194
    41   1 H    0.999 --     3 C    0.977
    42   1 H    0.998 --     3 C    0.977
    43   1 H    0.995 --     3 C    0.979
    44   1 H    0.998 --     4 C    0.966
    45   1 H    0.998 --     5 C    0.971
    46   1 H    0.998 --     6 C    0.971
    47   1 H    0.996 --     7 C    0.960
    48   1 H    0.993 --     9 C    0.936
    49   1 H    0.994 --    10 C    0.947
    50   1 H    0.997 --    12 C    0.964
    51   1 H    0.998 --    13 C    0.971
    52   1 H    0.998 --    14 C    0.971
    53   1 H    0.998 --    15 C    0.965
    54   1 H    0.998 --    18 C    0.976
    55   1 H    0.998 --    18 C    0.977
    56   1 H    0.996 --    18 C    0.979
    57   1 H    0.994 --    24 C    0.961
    58   1 H    0.994 --    25 C    0.968
    59   1 H    0.996 --    28 C    0.947
    60   1 H    0.877 --    30 O    0.850
    61   1 H    0.994 --    37 C    0.961
    62   1 H    0.995 --    38 C    0.968
 ---------------------------------------------------------------------------

molecular dipole:
                 x           y           z       tot (Debye)
 q only:       -0.355       0.079      -0.013
   full:       -0.160       0.360       0.680       1.997

           -------------------------------------------------
          | TOTAL ENERGY             -117.398417100698 Eh   |
          | GRADIENT NORM               0.000943289285 Eh/Î± |
          | HOMO-LUMO GAP               2.706917732953 eV   |
           -------------------------------------------------

 * finished run on 2022/03/17 at 02:19:08.601
