   * xtb version 6.3.3 (4ae9cef) compiled by 'conda@95abc7406d43' on 2020-10-14
          program call               : xtb acid_431.xyz --opt --chrg 0 --uhf 0 --gfn 2
          number of atoms            :                    60
          number of electrons        :                   182
          charge                     :                     0
          spin                       :                   0.0

   ID    Z sym.   atoms
    1    6 C      1-14, 16-21, 24, 25, 29-34
    2    7 N      15, 28
    3   16 S      22, 35
    4    8 O      23, 26, 27, 36
    5    1 H      37-60

          :  Hamiltonian                  GFN2-xTB          :
 * total energy  :  -100.8173246 Eh     change       -0.1512660E-08 Eh
 * total energy  :  -100.8293940 Eh     change       -0.1206940E-01 Eh
 * total energy  :  -100.8329542 Eh     change       -0.3560155E-02 Eh
 * total energy  :  -100.8338905 Eh     change       -0.9362523E-03 Eh
 * total energy  :  -100.8343637 Eh     change       -0.4732622E-03 Eh
 * total energy  :  -100.8346455 Eh     change       -0.2817936E-03 Eh
 * total energy  :  -100.8349055 Eh     change       -0.2600271E-03 Eh
 * total energy  :  -100.8351838 Eh     change       -0.2782333E-03 Eh
 * total energy  :  -100.8355093 Eh     change       -0.3254908E-03 Eh
 * total energy  :  -100.8358612 Eh     change       -0.3519745E-03 Eh
 * total energy  :  -100.8385607 Eh     change       -0.8827744E-05 Eh
 * total energy  :  -100.8385709 Eh     change       -0.1020413E-04 Eh
 * total energy  :  -100.8385900 Eh     change       -0.1916236E-04 Eh
 * total energy  :  -100.8385793 Eh     change        0.1074276E-04 Eh
 * total energy  :  -100.8385970 Eh     change       -0.1769745E-04 Eh
 * total energy  :  -100.8386015 Eh     change       -0.4549404E-05 Eh
 * total energy  :  -100.8386016 Eh     change       -0.3260517E-07 Eh
 * total energy  :  -100.8386067 Eh     change       -0.5139775E-05 Eh
 * total energy  :  -100.8386111 Eh     change       -0.4330120E-05 Eh
   *** GEOMETRY OPTIMIZATION CONVERGED AFTER 54 ITERATIONS ***

 final structure:
================
60
 xtb: 6.3.3 (4ae9cef)
C         0.58203120524172   -1.76326686848728    3.08382955825690
C         1.04484515697211   -1.81482170180916    4.38519477688690
C         2.18999505919496   -1.12275857029668    4.74301876448726
C         2.87412433650047   -0.39352104374327    3.78762550487505
C         2.41092319389528   -0.34073669473716    2.48326221519018
C         1.25268648293030   -1.01314875152359    2.12379332624187
C         0.71019768433322   -0.98579066374489    0.71078728797785
C        -0.76678108016425   -0.51449797338940    0.64881688958194
C        -1.60208256030567   -1.40524774788248   -0.23788008447193
C        -2.57948528217918   -2.22791198841886    0.30446140074870
C        -3.35168427293817   -3.03049375607504   -0.51613583789850
C        -3.14674562414530   -3.02412911235044   -1.88481694759020
C        -2.16082198216851   -2.21856641935358   -2.42990759358323
C        -1.39066208842155   -1.41320270022851   -1.61150642949260
N        -0.67185590564959    0.83140670793375    0.10337236964584
C        -1.68191835346673    1.56882284337666   -0.42890867121206
C        -3.05106497668011    1.08849170177819   -0.16211634757502
C        -4.04788271910335    0.91854412210406   -1.08477828520212
C        -3.88858928107109    1.11629349738157   -2.55331710559797
C        -5.25541853664959    0.47859260618608   -0.48492843237770
C        -5.16911108274440    0.35659529700734    0.86146946157936
S        -3.60524379519612    0.75590844671089    1.44785335677702
O        -1.45284139336732    2.56745691539530   -1.08657077547625
C         0.69339055359262    1.20233722332041   -0.16296360815132
C         1.26431154807427    2.13884546904316    0.92095393928143
O         0.42048674502159    2.32072828857952    1.92728644145685
O         2.35537785559201    2.63341068505923    0.85738913224047
N         1.39300681573296   -0.05374020148237   -0.16399827781485
C         2.51197775248360   -0.40236872809457   -0.85395518594553
C         3.03578470952981    0.62854701747458   -1.77800449997762
C         4.22650520603670    1.28917242673829   -1.68324528168646
C         5.16552966962312    1.15033896717214   -0.53393747957809
C         4.43005613697746    2.16818218868770   -2.77901342597973
C         3.41836233704472    2.14506439789380   -3.67887349658040
S         2.16857443354294    1.05822103935929   -3.22037877547837
O         3.03114174304167   -1.48948046320171   -0.70731314567284
H        -0.30069985085888   -2.32070740572273    2.80524571526383
H         0.51358785543381   -2.40039537231282    5.12076224205452
H         2.55232536094727   -1.16188736687021    5.75936238150319
H         3.77712293661205    0.13603536163838    4.05286124875393
H         2.96821716966361    0.21736050381699    1.74686170958396
H         0.82201120790244   -1.98940518380910    0.28122288738529
H        -1.19026574562681   -0.47802215052537    1.65832428019155
H        -2.74578042590016   -2.22921225226588    1.37211675199067
H        -4.11685766894701   -3.65884677215496   -0.08545684677332
H        -3.75275202934513   -3.64690967677719   -2.52570044844985
H        -1.98998648671014   -2.21622840298845   -3.49615825970146
H        -0.62736596030432   -0.78243094261042   -2.04399327075149
H        -4.74777758460616    1.65262119915233   -2.95191622521586
H        -2.98703298266817    1.68321378608172   -2.76546028670487
H        -3.82713357553795    0.14878953215039   -3.05331828034509
H        -6.14873302583780    0.27419476878093   -1.04742349372024
H        -5.93038957092640    0.06476375465722    1.55711324953040
H         0.76639225642895    1.73541675776418   -1.12168898923783
H         0.79337767886768    2.92319332573096    2.59167808361508
H         4.88287454110362    1.85479975241836    0.24929427455968
H         5.12250525245493    0.14226707857967   -0.12792673073302
H         6.18356819602290    1.36904986678068   -0.84645495000808
H         5.30486808748756    2.78484130599238   -2.88195101531974
H         3.32080467322973    2.69421807609923   -4.59396176534673

          :  Hamiltonian                  GFN2-xTB          :
         :: total energy            -100.838611056414 Eh    ::
         :: gradient norm              0.000545240862 Eh/a0 ::
         :: HOMO-LUMO gap              3.302820175397 eV    ::
         :: SCC energy              -102.294616299649 Eh    ::
         :: -> dispersion             -0.092148462418 Eh    ::
         :: repulsion energy           1.453138204541 Eh    ::

    * Orbital Energies and Occupations

         #    Occupation            Energy/Eh            Energy/eV
      -------------------------------------------------------------
         1        2.0000           -0.7700992             -20.9555
       ...           ...                  ...                  ...
        79        2.0000           -0.4322361             -11.7617
        80        2.0000           -0.4223641             -11.4931
        81        2.0000           -0.4190308             -11.4024
        82        2.0000           -0.4147403             -11.2857
        83        2.0000           -0.4116835             -11.2025
        84        2.0000           -0.4109751             -11.1832
        85        2.0000           -0.4055347             -11.0352
        86        2.0000           -0.4030822             -10.9684
        87        2.0000           -0.4015434             -10.9266
        88        2.0000           -0.4000903             -10.8870
        89        2.0000           -0.3948539             -10.7445
        90        2.0000           -0.3920538             -10.6683
        91        2.0000           -0.3870301             -10.5316 (HOMO)
        92                         -0.2656537              -7.2288 (LUMO)
        93                         -0.2609853              -7.1018
        94                         -0.2515866              -6.8460
        95                         -0.2423828              -6.5956
        96                         -0.2373530              -6.4587
        97                         -0.2337411              -6.3604
        98                         -0.2319672              -6.3121
        99                         -0.2245752              -6.1110
       100                         -0.2215498              -6.0287
       101                         -0.2044377              -5.5630
       102                         -0.1990169              -5.4155
       ...                                ...                  ...
       178                          0.6871184              18.6974
      -------------------------------------------------------------
                  HL-Gap            0.1213764 Eh            3.3028 eV

     #   Z          covCN         q      C6AA      Î±(0)
     1   6 C        2.925    -0.037    28.921     8.819
     2   6 C        2.920    -0.027    28.676     8.781
     3   6 C        2.920    -0.030    28.746     8.792
     4   6 C        2.920    -0.027    28.678     8.782
     5   6 C        2.923    -0.030    28.758     8.794
     6   6 C        2.970     0.004    27.937     8.670
     7   6 C        3.835     0.042    19.848     6.338
     8   6 C        3.820     0.032    20.023     6.368
     9   6 C        2.974    -0.000    28.036     8.685
    10   6 C        2.923    -0.035    28.867     8.811
    11   6 C        2.920    -0.027    28.677     8.782
    12   6 C        2.920    -0.029    28.723     8.789
    13   6 C        2.920    -0.026    28.655     8.778
    14   6 C        2.924    -0.030    28.758     8.794
    15   7 N        2.768    -0.109    23.386     7.182
    16   6 C        2.783     0.273    22.381     7.749
    17   6 C        2.998    -0.023    28.566     8.767
    18   6 C        3.148     0.014    27.424     8.567
    19   6 C        3.755    -0.108    22.624     6.782
    20   6 C        3.121    -0.052    29.104     8.835
    21   6 C        2.935    -0.019    28.481     8.752
    22  16 S        2.316    -0.028   142.217    20.071
    23   8 O        0.860    -0.438    22.445     6.352
    24   6 C        3.776     0.091    19.096     6.226
    25   6 C        2.688     0.358    20.930     7.487
    26   8 O        1.659    -0.351    19.920     6.025
    27   8 O        0.856    -0.393    21.537     6.222
    28   7 N        2.770    -0.111    23.423     7.188
    29   6 C        2.778     0.276    22.328     7.740
    30   6 C        3.001    -0.027    28.665     8.783
    31   6 C        3.144     0.018    27.364     8.559
    32   6 C        3.756    -0.107    22.606     6.779
    33   6 C        3.122    -0.049    29.020     8.822
    34   6 C        2.934    -0.018    28.451     8.748
    35  16 S        2.313    -0.033   142.412    20.085
    36   8 O        0.859    -0.420    22.094     6.302
    37   1 H        0.926     0.032     2.563     2.504
    38   1 H        0.926     0.037     2.484     2.465
    39   1 H        0.926     0.037     2.490     2.468
    40   1 H        0.926     0.038     2.472     2.459
    41   1 H        0.926     0.037     2.489     2.467
    42   1 H        0.924     0.079     1.985     2.203
    43   1 H        0.924     0.064     2.154     2.295
    44   1 H        0.926     0.034     2.532     2.489
    45   1 H        0.926     0.038     2.476     2.461
    46   1 H        0.926     0.038     2.478     2.462
    47   1 H        0.926     0.040     2.455     2.450
    48   1 H        0.926     0.036     2.507     2.476
    49   1 H        0.925     0.055     2.252     2.347
    50   1 H        0.925     0.063     2.161     2.299
    51   1 H        0.924     0.049     2.336     2.390
    52   1 H        0.926     0.045     2.384     2.414
    53   1 H        0.926     0.052     2.296     2.370
    54   1 H        0.923     0.099     1.798     2.097
    55   1 H        0.804     0.342     0.606     1.223
    56   1 H        0.924     0.063     2.165     2.301
    57   1 H        0.925     0.054     2.275     2.359
    58   1 H        0.925     0.050     2.317     2.380
    59   1 H        0.926     0.045     2.379     2.412
    60   1 H        0.926     0.050     2.316     2.380

Wiberg/Mayer (AO) data.
largest (>0.10) Wiberg bond orders for each atom

     #   Z sym  total        # sym  WBO       # sym  WBO       # sym  WBO
 ---------------------------------------------------------------------------
     1   6 C    3.991 --     2 C    1.452     6 C    1.404    37 H    0.968
                             4 C    0.113
     2   6 C    3.991 --     1 C    1.452     3 C    1.432    38 H    0.971
                             5 C    0.110
     3   6 C    3.992 --     4 C    1.447     2 C    1.432    39 H    0.971
                             6 C    0.110
     4   6 C    3.992 --     3 C    1.447     5 C    1.435    40 H    0.971
                             1 C    0.113
     5   6 C    3.991 --     4 C    1.435     6 C    1.423    41 H    0.965
                             2 C    0.110
     6   6 C    3.985 --     5 C    1.423     1 C    1.404     7 C    0.983
                             3 C    0.110
     7   6 C    3.963 --     6 C    0.983    28 N    0.971     8 C    0.951
                            42 H    0.944
     8   6 C    3.965 --     9 C    0.989    15 N    0.963     7 C    0.951
                            43 H    0.951
     9   6 C    3.986 --    10 C    1.414    14 C    1.409     8 C    0.989
                            12 C    0.109
    10   6 C    3.990 --    11 C    1.442     9 C    1.414    44 H    0.968
                            13 C    0.110
    11   6 C    3.992 --    10 C    1.442    12 C    1.441    45 H    0.971
                            14 C    0.112
    12   6 C    3.990 --    11 C    1.441    13 C    1.435    46 H    0.971
                             9 C    0.109
    13   6 C    3.992 --    14 C    1.448    12 C    1.435    47 H    0.970
                            10 C    0.110
    14   6 C    3.992 --    13 C    1.448     9 C    1.409    48 H    0.969
                            11 C    0.112
    15   7 N    3.468 --    16 C    1.204    24 C    0.989     8 C    0.963
                            23 O    0.184
    16   6 C    3.951 --    23 O    1.658    15 N    1.204    17 C    1.004
    17   6 C    3.939 --    18 C    1.546    22 S    1.135    16 C    1.004
                            21 C    0.110
    18   6 C    3.985 --    17 C    1.546    20 C    1.248    19 C    1.027
    19   6 C    3.994 --    18 C    1.027    50 H    0.980    49 H    0.973
                            51 H    0.965
    20   6 C    3.986 --    21 C    1.632    18 C    1.248    52 H    0.964
    21   6 C    3.950 --    20 C    1.632    22 S    1.194    53 H    0.969
                            17 C    0.110
    22  16 S    2.625 --    21 C    1.194    17 C    1.135
    23   8 O    2.006 --    16 C    1.658    15 N    0.184
    24   6 C    3.966 --    15 N    0.989    28 N    0.984    54 H    0.926
                            25 C    0.910
    25   6 C    3.918 --    27 O    1.771    26 O    1.167    24 C    0.910
    26   8 O    2.233 --    25 C    1.167    55 H    0.856    27 O    0.184
    27   8 O    2.054 --    25 C    1.771    26 O    0.184
    28   7 N    3.473 --    29 C    1.196    24 C    0.984     7 C    0.971
                            36 O    0.188
    29   6 C    3.948 --    36 O    1.683    28 N    1.196    30 C    0.984
    30   6 C    3.937 --    31 C    1.564    35 S    1.133    29 C    0.984
                            34 C    0.115
    31   6 C    3.985 --    30 C    1.564    33 C    1.240    32 C    1.025
    32   6 C    3.995 --    31 C    1.025    58 H    0.980    57 H    0.979
                            56 H    0.962
    33   6 C    3.987 --    34 C    1.640    31 C    1.240    59 H    0.963
    34   6 C    3.948 --    33 C    1.640    35 S    1.186    60 H    0.969
                            30 C    0.115
    35  16 S    2.620 --    34 C    1.186    30 C    1.133
    36   8 O    2.021 --    29 C    1.683    28 N    0.188
    37   1 H    0.999 --     1 C    0.968
    38   1 H    0.998 --     2 C    0.971
    39   1 H    0.998 --     3 C    0.971
    40   1 H    0.998 --     4 C    0.971
    41   1 H    0.999 --     5 C    0.965
    42   1 H    0.994 --     7 C    0.944
    43   1 H    0.995 --     8 C    0.951
    44   1 H    0.999 --    10 C    0.968
    45   1 H    0.998 --    11 C    0.971
    46   1 H    0.998 --    12 C    0.971
    47   1 H    0.998 --    13 C    0.970
    48   1 H    0.999 --    14 C    0.969
    49   1 H    0.997 --    19 C    0.973
    50   1 H    0.996 --    19 C    0.980
    51   1 H    0.998 --    19 C    0.965
    52   1 H    0.998 --    20 C    0.964
    53   1 H    0.996 --    21 C    0.969
    54   1 H    0.990 --    24 C    0.926
    55   1 H    0.882 --    26 O    0.856
    56   1 H    0.996 --    32 C    0.962
    57   1 H    0.997 --    32 C    0.979
    58   1 H    0.997 --    32 C    0.980
    59   1 H    0.997 --    33 C    0.963
    60   1 H    0.996 --    34 C    0.969
 ---------------------------------------------------------------------------

molecular dipole:
                 x           y           z       tot (Debye)
 q only:       -1.232      -0.500       0.991
   full:       -1.187      -0.260       0.880       3.814

           -------------------------------------------------
          | TOTAL ENERGY             -100.838611056414 Eh   |
          | GRADIENT NORM               0.000545240862 Eh/Î± |
          | HOMO-LUMO GAP               3.302820175397 eV   |
           -------------------------------------------------

 * finished run on 2022/03/17 at 01:08:47.387
