   * xtb version 6.3.3 (4ae9cef) compiled by 'conda@95abc7406d43' on 2020-10-14
          program call               : xtb acid_362.xyz --opt --chrg 0 --uhf 0 --gfn 2
          number of atoms            :                    74
          number of electrons        :                   250
          charge                     :                     0
          spin                       :                   0.0

   ID    Z sym.   atoms
    1    6 C      1, 2, 6-15, 19-22, 24-28, 30-32, 34, 35, 39-43, 45-47
    2    9 F      3-5, 16-18
    3    7 N      23, 38
    4    8 O      29, 33, 36, 37, 44, 48
    5    1 H      49-74

          :  Hamiltonian                  GFN2-xTB          :
 * total energy  :  -144.7488423 Eh     change       -0.2004953E-08 Eh
 * total energy  :  -144.7656595 Eh     change       -0.1681716E-01 Eh
 * total energy  :  -144.7711473 Eh     change       -0.5487829E-02 Eh
 * total energy  :  -144.7726913 Eh     change       -0.1543971E-02 Eh
 * total energy  :  -144.7738095 Eh     change       -0.1118224E-02 Eh
 * total energy  :  -144.7744707 Eh     change       -0.6612070E-03 Eh
 * total energy  :  -144.7750257 Eh     change       -0.5550220E-03 Eh
 * total energy  :  -144.7756377 Eh     change       -0.6119830E-03 Eh
 * total energy  :  -144.7762635 Eh     change       -0.6257498E-03 Eh
 * total energy  :  -144.7767173 Eh     change       -0.4538374E-03 Eh
 * total energy  :  -144.7774633 Eh     change       -0.7436368E-05 Eh
 * total energy  :  -144.7774765 Eh     change       -0.1318436E-04 Eh
 * total energy  :  -144.7774813 Eh     change       -0.4792081E-05 Eh
 * total energy  :  -144.7774924 Eh     change       -0.1110016E-04 Eh
 * total energy  :  -144.7774969 Eh     change       -0.4520897E-05 Eh
 * total energy  :  -144.7775071 Eh     change       -0.1018546E-04 Eh
 * total energy  :  -144.7774949 Eh     change        0.1221547E-04 Eh
 * total energy  :  -144.7775086 Eh     change       -0.1377846E-04 Eh
 * total energy  :  -144.7775128 Eh     change       -0.4153226E-05 Eh
   *** GEOMETRY OPTIMIZATION CONVERGED AFTER 34 ITERATIONS ***

 final structure:
================
74
 xtb: 6.3.3 (4ae9cef)
C         0.78284425498537   -4.46614319855998   -0.61956961134707
C        -0.47281854953078   -4.78098770300313   -1.38416043018100
F        -0.53478916914179   -6.05616410759686   -1.78824972333500
F        -1.58921735145925   -4.58382907950663   -0.64368282759981
F        -0.64341509243034   -4.03945969278347   -2.49223214404395
C         1.69436664309117   -5.49297545493209   -0.40626809458651
C         2.85259733191118   -5.26191143122765    0.31005677775747
C         3.10250972819478   -4.00010452514512    0.81832054262846
C         2.19613801753954   -2.97971105588095    0.60750321079030
C         1.02651660233491   -3.18837074693136   -0.11298471717188
C         0.07504140818319   -2.03646717121680   -0.30299261368862
C        -0.66832988216375   -1.62683573959666    0.99184190071563
C        -2.01785225312053   -2.27785181258957    1.12112437612639
C        -2.30134115493807   -3.26156850167386    2.06807217629016
C        -1.24679997908159   -3.74978738505192    3.02072232737422
F        -0.17511897309058   -4.27267229302853    2.37700281496598
F        -1.68151451554717   -4.72054667880177    3.83401050628404
F        -0.74869485698039   -2.79492400534533    3.82489069492085
C        -3.56692247869799   -3.83174848117920    2.13239438620126
C        -4.55699022859073   -3.43133049114721    1.25672618253344
C        -4.28277042218291   -2.46360462155878    0.30644987928001
C        -3.02480233175437   -1.89913114903588    0.24060948668956
N        -0.79933932656261   -0.18207753104314    0.81970782267620
C        -1.60204446209673    0.57000476026392    1.64366875319781
C        -1.63175882036256    2.02217152455671    1.32166070981158
C        -1.85862906401230    2.47308403578258    0.02218643890575
C        -1.92262576996985    3.82216389995313   -0.24528989457944
C        -1.76079715162785    4.75676367118778    0.78125445468269
O        -1.82659326535289    6.06050601757090    0.40588798233528
C        -1.73098518304679    7.05520701253443    1.39873118614544
C        -1.55622855724449    4.30733396515712    2.08232207454593
C        -1.50428442740102    2.95024030867337    2.34452725445923
O        -2.28695727939530    0.06191554435717    2.50227918272860
C         0.39060315253881    0.29063966506845    0.16381950289735
C         1.46078998671067    0.67724993282687    1.21344915594864
O         2.69901115329664    0.41163901032585    0.81019281339740
O         1.19062745154987    1.19640611157838    2.25839989807434
N         0.76878025373872   -0.80662371014993   -0.68562204314781
C         1.59432521017589   -0.77229711219216   -1.77075603530681
C         2.07588281669202    0.58841577475137   -2.15291899799012
C         1.19381004406167    1.54886969900930   -2.62868010176203
C         1.64329363439412    2.80112109391106   -3.01055565865344
C         2.99734630508179    3.10892158881146   -2.91939560174009
O         3.54698108779915    4.30557356296143   -3.24771899007792
C         2.70925726026446    5.32235967608189   -3.74581345782587
C         3.88803106014603    2.13297381332971   -2.46429212758489
C         3.43362477721482    0.88619298731953   -2.09634619022476
O         1.89615437134816   -1.78226104288956   -2.36691143794129
H         1.49366875323740   -6.47506319544284   -0.80486348287175
H         3.55470128627307   -6.06531591410620    0.46858202970687
H         4.00419469768881   -3.80983387015625    1.38041014625264
H         2.40402276627866   -1.99522858959750    0.99533015930814
H        -0.65516022061174   -2.26491610590519   -1.08613640123410
H        -0.03418062579899   -1.83595947745287    1.86144878563308
H        -3.77264363668573   -4.59011847577335    2.87147229431312
H        -5.53762773508961   -3.87667801574820    1.31635106404911
H        -5.04932507913735   -2.14862256701680   -0.38494564649802
H        -2.81525129472145   -1.14019064288635   -0.49803133062172
H        -2.02060917997849    1.76342554294427   -0.77677824169457
H        -2.10760257146242    4.18597723852503   -1.24374751115191
H        -0.75894966549667    7.02897874567873    1.90150598343754
H        -2.52879583551076    6.95792583894371    2.14147161965217
H        -1.84002654334598    8.00380317958003    0.87536130471998
H        -1.44151178186668    5.00254231761638    2.89832818531185
H        -1.34828878677629    2.59738542860890    3.35143614939292
H         0.20461962174454    1.21119303650005   -0.40555797766541
H         3.35181814978169    0.70940590176017    1.46643845978004
H         0.14359354161236    1.31454290810957   -2.73285012764640
H         0.93153220263457    3.52177821481615   -3.38049995194843
H         3.36335506582742    6.16923641719448   -3.94622946130400
H         1.95248669354302    5.61567482331226   -3.01131668540553
H         2.21804446024625    5.01765017934229   -4.67503792729842
H         4.93636782477452    2.38126003746021   -2.41870032354822
H         4.12465488736750    0.13077510974892   -1.75681690624748

          :  Hamiltonian                  GFN2-xTB          :
         :: total energy            -144.777512795811 Eh    ::
         :: gradient norm              0.000746352255 Eh/a0 ::
         :: HOMO-LUMO gap              3.289110723783 eV    ::
         :: SCC energy              -146.489252694829 Eh    ::
         :: -> dispersion             -0.104346526299 Eh    ::
         :: repulsion energy           1.708147804804 Eh    ::

    * Orbital Energies and Occupations

         #    Occupation            Energy/Eh            Energy/eV
      -------------------------------------------------------------
         1        2.0000           -0.8729479             -23.7541
       ...           ...                  ...                  ...
       113        2.0000           -0.4357620             -11.8577
       114        2.0000           -0.4339234             -11.8077
       115        2.0000           -0.4319834             -11.7549
       116        2.0000           -0.4300938             -11.7034
       117        2.0000           -0.4266019             -11.6084
       118        2.0000           -0.4245576             -11.5528
       119        2.0000           -0.4227886             -11.5047
       120        2.0000           -0.4177033             -11.3663
       121        2.0000           -0.4077614             -11.0958
       122        2.0000           -0.4026751             -10.9573
       123        2.0000           -0.3995000             -10.8709
       124        2.0000           -0.3951690             -10.7531
       125        2.0000           -0.3933241             -10.7029 (HOMO)
       126                         -0.2724515              -7.4138 (LUMO)
       127                         -0.2609379              -7.1005
       128                         -0.2561838              -6.9711
       129                         -0.2535137              -6.8985
       130                         -0.2502121              -6.8086
       131                         -0.2476427              -6.7387
       132                         -0.2450880              -6.6692
       133                         -0.2415398              -6.5726
       134                         -0.2399015              -6.5281
       135                         -0.2111212              -5.7449
       136                         -0.2027880              -5.5181
       ...                                ...                  ...
       218                          0.6692390              18.2109
      -------------------------------------------------------------
                  HL-Gap            0.1208726 Eh            3.2891 eV

     #   Z          covCN         q      C6AA      Î±(0)
     1   6 C        2.977    -0.023    28.570     8.768
     2   6 C        3.336     0.485    17.299     6.588
     3   9 F        0.792    -0.200    11.239     3.960
     4   9 F        0.791    -0.224    11.488     4.004
     5   9 F        0.791    -0.204    11.277     3.967
     6   6 C        2.924    -0.018    28.470     8.750
     7   6 C        2.920    -0.020    28.515     8.757
     8   6 C        2.919    -0.016    28.413     8.741
     9   6 C        2.928    -0.022    28.557     8.764
    10   6 C        2.970     0.026    27.414     8.588
    11   6 C        3.828     0.044    19.811     6.333
    12   6 C        3.840     0.050    19.707     6.315
    13   6 C        2.972     0.028    27.371     8.582
    14   6 C        2.977    -0.023    28.569     8.767
    15   6 C        3.336     0.486    17.293     6.587
    16   9 F        0.791    -0.225    11.499     4.006
    17   9 F        0.792    -0.201    11.240     3.960
    18   9 F        0.791    -0.204    11.278     3.967
    19   6 C        2.923    -0.018    28.462     8.749
    20   6 C        2.921    -0.020    28.501     8.755
    21   6 C        2.919    -0.015    28.381     8.736
    22   6 C        2.928    -0.020    28.507     8.756
    23   7 N        2.772    -0.129    23.793     7.245
    24   6 C        2.761     0.280    22.262     7.727
    25   6 C        2.975    -0.027    28.680     8.784
    26   6 C        2.921    -0.035    28.873     8.812
    27   6 C        2.919    -0.056    29.381     8.889
    28   6 C        2.866     0.147    24.796     8.162
    29   8 O        1.706    -0.263    18.364     5.786
    30   6 C        3.644     0.034    20.342     6.483
    31   6 C        2.917    -0.063    29.576     8.918
    32   6 C        2.925    -0.016    28.410     8.741
    33   8 O        0.859    -0.404    21.763     6.255
    34   6 C        3.772     0.085    19.207     6.245
    35   6 C        2.687     0.346    21.130     7.523
    36   8 O        1.659    -0.360    20.083     6.050
    37   8 O        0.856    -0.381    21.296     6.187
    38   7 N        2.767    -0.117    23.540     7.206
    39   6 C        2.760     0.275    22.353     7.742
    40   6 C        2.974    -0.028    28.700     8.788
    41   6 C        2.923    -0.035    28.865     8.811
    42   6 C        2.916    -0.067    29.660     8.931
    43   6 C        2.866     0.147    24.793     8.162
    44   8 O        1.706    -0.261    18.332     5.781
    45   6 C        3.644     0.034    20.340     6.483
    46   6 C        2.920    -0.053    29.326     8.880
    47   6 C        2.923    -0.021    28.532     8.760
    48   8 O        0.859    -0.411    21.906     6.275
    49   1 H        0.926     0.069     2.101     2.267
    50   1 H        0.926     0.058     2.225     2.332
    51   1 H        0.926     0.054     2.268     2.355
    52   1 H        0.926     0.049     2.331     2.388
    53   1 H        0.924     0.067     2.114     2.273
    54   1 H        0.924     0.055     2.264     2.353
    55   1 H        0.926     0.068     2.102     2.267
    56   1 H        0.926     0.058     2.217     2.328
    57   1 H        0.926     0.057     2.237     2.339
    58   1 H        0.926     0.049     2.329     2.386
    59   1 H        0.926     0.035     2.516     2.480
    60   1 H        0.926     0.053     2.284     2.363
    61   1 H        0.924     0.043     2.403     2.424
    62   1 H        0.924     0.046     2.374     2.410
    63   1 H        0.925     0.066     2.135     2.285
    64   1 H        0.926     0.047     2.356     2.400
    65   1 H        0.926     0.065     2.143     2.289
    66   1 H        0.923     0.083     1.944     2.180
    67   1 H        0.804     0.346     0.597     1.214
    68   1 H        0.926     0.035     2.521     2.483
    69   1 H        0.926     0.044     2.398     2.422
    70   1 H        0.925     0.067     2.123     2.279
    71   1 H        0.924     0.043     2.407     2.426
    72   1 H        0.924     0.045     2.384     2.414
    73   1 H        0.926     0.057     2.228     2.334
    74   1 H        0.926     0.054     2.274     2.358

Wiberg/Mayer (AO) data.
largest (>0.10) Wiberg bond orders for each atom

     #   Z sym  total        # sym  WBO       # sym  WBO       # sym  WBO
 ---------------------------------------------------------------------------
     1   6 C    3.970 --     6 C    1.414    10 C    1.384     2 C    0.952
                             8 C    0.105
     2   6 C    3.821 --     3 F    0.956     1 C    0.952     5 F    0.946
                             4 F    0.928
     3   9 F    1.078 --     2 C    0.956
     4   9 F    1.055 --     2 C    0.928
     5   9 F    1.077 --     2 C    0.946
     6   6 C    3.987 --     7 C    1.443     1 C    1.414    49 H    0.965
                             9 C    0.109
     7   6 C    3.989 --     6 C    1.443     8 C    1.434    50 H    0.969
                            10 C    0.108
     8   6 C    3.990 --     9 C    1.448     7 C    1.434    51 H    0.969
                             1 C    0.105
     9   6 C    3.990 --     8 C    1.448    10 C    1.410    52 H    0.964
                             6 C    0.109
    10   6 C    3.987 --     9 C    1.410     1 C    1.384    11 C    0.996
                             7 C    0.108
    11   6 C    3.967 --    10 C    0.996    38 N    0.955    53 H    0.953
                            12 C    0.948
    12   6 C    3.970 --    13 C    0.999    23 N    0.959    54 H    0.953
                            11 C    0.948
    13   6 C    3.987 --    22 C    1.406    14 C    1.387    12 C    0.999
                            20 C    0.108
    14   6 C    3.970 --    19 C    1.411    13 C    1.387    15 C    0.953
                            21 C    0.104
    15   6 C    3.821 --    17 F    0.956    14 C    0.953    18 F    0.946
                            16 F    0.927
    16   9 F    1.053 --    15 C    0.927
    17   9 F    1.078 --    15 C    0.956
    18   9 F    1.076 --    15 C    0.946
    19   6 C    3.987 --    20 C    1.445    14 C    1.411    55 H    0.966
                            22 C    0.109
    20   6 C    3.989 --    19 C    1.445    21 C    1.431    56 H    0.969
                            13 C    0.108
    21   6 C    3.990 --    22 C    1.451    20 C    1.431    57 H    0.969
                            14 C    0.104
    22   6 C    3.990 --    21 C    1.451    13 C    1.406    58 H    0.966
                            19 C    0.109
    23   7 N    3.408 --    24 C    1.155    34 C    0.993    12 C    0.959
                            33 O    0.173
    24   6 C    3.940 --    33 O    1.717    23 N    1.155    25 C    0.981
    25   6 C    3.985 --    32 C    1.405    26 C    1.371    24 C    0.981
    26   6 C    3.991 --    27 C    1.481    25 C    1.371    59 H    0.967
    27   6 C    3.987 --    26 C    1.481    28 C    1.338    60 H    0.967
                            32 C    0.104
    28   6 C    3.937 --    31 C    1.372    27 C    1.338    29 O    1.074
    29   8 O    2.240 --    28 C    1.074    30 C    0.982
    30   6 C    3.943 --    29 O    0.982    63 H    0.979    62 H    0.977
                            61 H    0.976
    31   6 C    3.988 --    32 C    1.446    28 C    1.372    64 H    0.965
    32   6 C    3.988 --    31 C    1.446    25 C    1.405    65 H    0.967
                            27 C    0.104
    33   8 O    2.039 --    24 C    1.717    23 N    0.173
    34   6 C    3.974 --    38 N    0.995    23 N    0.993    66 H    0.916
                            35 C    0.906
    35   6 C    3.918 --    37 O    1.786    36 O    1.155    34 C    0.906
    36   8 O    2.224 --    35 C    1.155    67 H    0.853    37 O    0.182
    37   8 O    2.071 --    35 C    1.786    36 O    0.182
    38   7 N    3.449 --    39 C    1.189    34 C    0.995    11 C    0.955
                            48 O    0.188
    39   6 C    3.943 --    48 O    1.706    38 N    1.189    40 C    0.965
    40   6 C    3.985 --    41 C    1.407    47 C    1.381    39 C    0.965
    41   6 C    3.991 --    42 C    1.441    40 C    1.407    68 H    0.968
                            46 C    0.107
    42   6 C    3.987 --    41 C    1.441    43 C    1.369    69 H    0.965
    43   6 C    3.938 --    42 C    1.369    46 C    1.342    44 O    1.076
    44   8 O    2.244 --    43 C    1.076    45 C    0.982
    45   6 C    3.943 --    44 O    0.982    70 H    0.979    71 H    0.977
                            72 H    0.976
    46   6 C    3.987 --    47 C    1.478    43 C    1.342    73 H    0.967
                            41 C    0.107
    47   6 C    3.990 --    46 C    1.478    40 C    1.381    74 H    0.968
    48   8 O    2.031 --    39 C    1.706    38 N    0.188
    49   1 H    0.995 --     6 C    0.965
    50   1 H    0.996 --     7 C    0.969
    51   1 H    0.996 --     8 C    0.969
    52   1 H    0.997 --     9 C    0.964
    53   1 H    0.995 --    11 C    0.953
    54   1 H    0.997 --    12 C    0.953
    55   1 H    0.995 --    19 C    0.966
    56   1 H    0.996 --    20 C    0.969
    57   1 H    0.996 --    21 C    0.969
    58   1 H    0.997 --    22 C    0.966
    59   1 H    0.998 --    26 C    0.967
    60   1 H    0.996 --    27 C    0.967
    61   1 H    0.998 --    30 C    0.976
    62   1 H    0.998 --    30 C    0.977
    63   1 H    0.995 --    30 C    0.979
    64   1 H    0.997 --    31 C    0.965
    65   1 H    0.996 --    32 C    0.967
    66   1 H    0.992 --    34 C    0.916
    67   1 H    0.879 --    36 O    0.853
    68   1 H    0.999 --    41 C    0.968
    69   1 H    0.997 --    42 C    0.965
    70   1 H    0.995 --    45 C    0.979
    71   1 H    0.998 --    45 C    0.977
    72   1 H    0.998 --    45 C    0.976
    73   1 H    0.996 --    46 C    0.967
    74   1 H    0.996 --    47 C    0.968
 ---------------------------------------------------------------------------

molecular dipole:
                 x           y           z       tot (Debye)
 q only:        0.671       2.581      -0.426
   full:        0.801       3.015      -0.314       7.970

           -------------------------------------------------
          | TOTAL ENERGY             -144.777512795811 Eh   |
          | GRADIENT NORM               0.000746352255 Eh/Î± |
          | HOMO-LUMO GAP               3.289110723783 eV   |
           -------------------------------------------------

 * finished run on 2022/03/17 at 00:17:09.573
