   * xtb version 6.3.3 (4ae9cef) compiled by 'conda@95abc7406d43' on 2020-10-14
          program call               : xtb acid_36.xyz --opt --chrg 0 --uhf 0 --gfn 2
          number of atoms            :                    72
          number of electrons        :                   202
          charge                     :                     0
          spin                       :                   0.0

   ID    Z sym.   atoms
    1    8 O      1, 14, 15, 26
    2    6 C      2-10, 12, 13, 17-25, 27-40
    3    7 N      11, 16
    4    1 H      41-72

          :  Hamiltonian                  GFN2-xTB          :
 * total energy  :  -111.2813049 Eh     change       -0.9230803E-09 Eh
 * total energy  :  -111.2938771 Eh     change       -0.1257212E-01 Eh
 * total energy  :  -111.2972209 Eh     change       -0.3343839E-02 Eh
 * total energy  :  -111.2981677 Eh     change       -0.9468232E-03 Eh
 * total energy  :  -111.2986926 Eh     change       -0.5248869E-03 Eh
 * total energy  :  -111.2989733 Eh     change       -0.2806678E-03 Eh
 * total energy  :  -111.2992369 Eh     change       -0.2636443E-03 Eh
 * total energy  :  -111.2995295 Eh     change       -0.2925900E-03 Eh
 * total energy  :  -111.2998525 Eh     change       -0.3229827E-03 Eh
 * total energy  :  -111.3001872 Eh     change       -0.3346723E-03 Eh
 * total energy  :  -111.3039604 Eh     change       -0.2676627E-04 Eh
 * total energy  :  -111.3039680 Eh     change       -0.7626142E-05 Eh
 * total energy  :  -111.3039809 Eh     change       -0.1282383E-04 Eh
 * total energy  :  -111.3039861 Eh     change       -0.5275311E-05 Eh
 * total energy  :  -111.3039971 Eh     change       -0.1093662E-04 Eh
 * total energy  :  -111.3039836 Eh     change        0.1343855E-04 Eh
 * total energy  :  -111.3040002 Eh     change       -0.1658684E-04 Eh
 * total energy  :  -111.3040056 Eh     change       -0.5362410E-05 Eh
 * total energy  :  -111.3040082 Eh     change       -0.2622337E-05 Eh
   *** GEOMETRY OPTIMIZATION CONVERGED AFTER 69 ITERATIONS ***

 final structure:
================
72
 xtb: 6.3.3 (4ae9cef)
O        -0.19733480423397   -2.18546571421998   -1.71609197502510
C        -0.77258104163744   -1.18433439140856   -1.33677191548953
C        -2.25442167657119   -1.01738993180403   -1.35322153242356
C        -2.84249922250052   -0.05514970491554   -2.16488540102989
C        -4.21850319482065    0.10660645439008   -2.16996394830710
C        -4.87363121565680    1.13235674484082   -3.04498230903306
C        -4.99232346019923   -0.70042251960355   -1.34319507453241
C        -4.42258565259471   -1.67867968496713   -0.54417980617231
C        -5.26026115509416   -2.54165960706176    0.34828433911713
C        -3.04342800264352   -1.84277938875341   -0.56923568640707
N        -0.08620763602617   -0.11302280481018   -0.86194628498127
C         1.35576391688139   -0.13038206052983   -0.78734734383871
C         1.98145085410823    0.48990949436119   -2.05161301168185
O         1.07605938523714    1.07325143975703   -2.82966054464282
O         3.15223621242158    0.45818445868006   -2.30961840636185
N         1.64843553554090    0.67499006978580    0.36877227772488
C         2.26081649444688    0.24747710496223    1.52275607464023
C         3.10819536643466   -0.96546059527287    1.41136077262368
C         3.00437467412265   -1.92081394886036    2.41728254192086
C         3.78056019792384   -3.06883952358933    2.38121824844520
C         3.64289121787427   -4.11952815656966    3.44058381059770
C         4.67566638878937   -3.23682153063711    1.33189228771243
C         4.81225071430288   -2.28221484392601    0.33322375800765
C         5.80719945913988   -2.46154016265012   -0.77169286273506
C         4.02113927942838   -1.14231957685165    0.37850873596194
O         2.11222910297163    0.85488355546460    2.56370050629999
C         0.63570019249918    1.71513079813766    0.44565890213641
C         1.06080627393015    3.00406794301074   -0.21620141047528
C         0.12612867114675    4.01751316925087   -0.39781016178055
C         0.48891745989190    5.20787816557791   -1.00048352280120
C         1.79273542247985    5.40362471036228   -1.42424899673778
C         2.73356624231345    4.40955072036476   -1.22283349739522
C         2.37206025218345    3.21817456059017   -0.61655918872958
C        -0.62072532294139    1.07612726818928   -0.21714383358024
C        -1.67779949611311    0.73795561353245    0.80218526880308
C        -1.42779500183702   -0.22839409389844    1.76914073452215
C        -2.39436728697625   -0.54528932806529    2.70460855278979
C        -3.61862712181704    0.10159744295850    2.68523975606346
C        -3.86913549212414    1.07248969213114    1.73178514200696
C        -2.90129320669082    1.39199078663000    0.79702985120158
H        -2.22059167555059    0.55994464113985   -2.79995204689371
H        -4.13527841503972    1.79113229034310   -3.49511212722591
H        -5.57795481235155    1.73175332084374   -2.47056484021795
H        -5.42916357129955    0.64298802317944   -3.84459393651104
H        -6.06476847943938   -0.56288046377625   -1.33170191176537
H        -5.06835883600737   -3.59439831445715    0.14839247116903
H        -5.00892880435581   -2.34858011999742    1.39073265106474
H        -6.31919212838124   -2.34456121221083    0.20313422404150
H        -2.57690199849861   -2.60211337190752    0.04035930479400
H         1.72792871777124   -1.15884496194993   -0.69513195579867
H         1.49702984929527    1.44927624242192   -3.62012774066931
H         2.30671189739682   -1.75584701763647    3.22544670083628
H         3.25262138257691   -3.69251159869769    4.36097500984399
H         2.95340543817637   -4.89546744772001    3.10623780671695
H         4.60189815359806   -4.58951685362873    3.64649449410685
H         5.28508120839086   -4.12938427888452    1.29667566257212
H         5.93944151002324   -3.51463083114548   -1.00892912898391
H         5.48541491750895   -1.93106064359340   -1.66437428340852
H         6.77446311593187   -2.05935261186053   -0.46890925164836
H         4.13014534584009   -0.39040702452261   -0.38730867713163
H         0.45449755785092    1.91457509342005    1.51034627504205
H        -0.88747985663330    3.87792140172837   -0.05077322217369
H        -0.24685480193838    5.98688126568408   -1.13546474095769
H         2.07552362594293    6.33199688191602   -1.89775873608732
H         3.75650747732406    4.55942524177334   -1.53423262505924
H         3.11804752302699    2.45702591161908   -0.44687858229022
H        -1.03196746471417    1.75515131488995   -0.97252546694003
H        -0.47601809744875   -0.73961069218643    1.78472788067077
H        -2.19176628241008   -1.29940053242887    3.45047101602550
H        -4.37484652650081   -0.14849469420748    3.41452207537065
H        -4.82150724165607    1.58088568535170    1.71350074741298
H        -3.10280305203349    2.14485673190089    0.04878010768078

          :  Hamiltonian                  GFN2-xTB          :
         :: total energy            -111.304008210802 Eh    ::
         :: gradient norm              0.000489177022 Eh/a0 ::
         :: HOMO-LUMO gap              3.501668011243 eV    ::
         :: SCC energy              -113.057113300643 Eh    ::
         :: -> dispersion             -0.099957253320 Eh    ::
         :: repulsion energy           1.749916417993 Eh    ::

    * Orbital Energies and Occupations

         #    Occupation            Energy/Eh            Energy/eV
      -------------------------------------------------------------
         1        2.0000           -0.7681361             -20.9020
       ...           ...                  ...                  ...
        89        2.0000           -0.4224836             -11.4964
        90        2.0000           -0.4188844             -11.3984
        91        2.0000           -0.4147548             -11.2861
        92        2.0000           -0.4130570             -11.2399
        93        2.0000           -0.4078727             -11.0988
        94        2.0000           -0.4047020             -11.0125
        95        2.0000           -0.3998345             -10.8801
        96        2.0000           -0.3987157             -10.8496
        97        2.0000           -0.3969371             -10.8012
        98        2.0000           -0.3954383             -10.7604
        99        2.0000           -0.3909162             -10.6374
       100        2.0000           -0.3897825             -10.6065
       101        2.0000           -0.3880012             -10.5581 (HOMO)
       102                         -0.2593173              -7.0564 (LUMO)
       103                         -0.2479870              -6.7481
       104                         -0.2418591              -6.5813
       105                         -0.2351967              -6.4000
       106                         -0.2321968              -6.3184
       107                         -0.2312527              -6.2927
       108                         -0.2300773              -6.2607
       109                         -0.2230626              -6.0698
       110                         -0.2173824              -5.9153
       111                         -0.1996670              -5.4332
       112                         -0.1896084              -5.1595
       ...                                ...                  ...
       192                          0.6687612              18.1979
      -------------------------------------------------------------
                  HL-Gap            0.1286839 Eh            3.5017 eV

     #   Z          covCN         q      C6AA      Î±(0)
     1   8 O        0.859    -0.438    22.446     6.352
     2   6 C        2.764     0.272    22.406     7.752
     3   6 C        2.975    -0.016    28.408     8.743
     4   6 C        2.928    -0.045    29.111     8.848
     5   6 C        2.965     0.019    27.593     8.616
     6   6 C        3.758    -0.109    22.643     6.784
     7   6 C        2.931    -0.049    29.220     8.865
     8   6 C        2.965     0.020    27.569     8.612
     9   6 C        3.758    -0.111    22.664     6.787
    10   6 C        2.930    -0.037    28.923     8.820
    11   7 N        2.767    -0.116    23.517     7.202
    12   6 C        3.785     0.093    19.061     6.219
    13   6 C        2.689     0.358    20.921     7.486
    14   8 O        1.659    -0.356    20.023     6.041
    15   8 O        0.856    -0.390    21.473     6.213
    16   7 N        2.762    -0.124    23.686     7.228
    17   6 C        2.766     0.272    22.405     7.752
    18   6 C        2.972    -0.024    28.592     8.771
    19   6 C        2.931    -0.036    28.894     8.816
    20   6 C        2.964     0.020    27.560     8.611
    21   6 C        3.758    -0.110    22.661     6.787
    22   6 C        2.931    -0.046    29.143     8.853
    23   6 C        2.965     0.022    27.501     8.602
    24   6 C        3.758    -0.113    22.711     6.794
    25   6 C        2.927    -0.051    29.259     8.871
    26   8 O        0.859    -0.423    22.135     6.308
    27   6 C        3.845     0.037    19.918     6.348
    28   6 C        2.971     0.003    27.955     8.673
    29   6 C        2.925    -0.038    28.946     8.823
    30   6 C        2.920    -0.028    28.709     8.787
    31   6 C        2.920    -0.031    28.781     8.798
    32   6 C        2.920    -0.028    28.689     8.784
    33   6 C        2.923    -0.033    28.816     8.803
    34   6 C        3.818     0.034    19.987     6.363
    35   6 C        2.973     0.000    28.020     8.683
    36   6 C        2.924    -0.028    28.690     8.784
    37   6 C        2.920    -0.026    28.646     8.777
    38   6 C        2.921    -0.029    28.727     8.789
    39   6 C        2.920    -0.027    28.673     8.781
    40   6 C        2.924    -0.034    28.852     8.809
    41   1 H        0.926     0.031     2.572     2.508
    42   1 H        0.925     0.041     2.430     2.438
    43   1 H        0.925     0.047     2.363     2.404
    44   1 H        0.925     0.051     2.312     2.378
    45   1 H        0.925     0.035     2.513     2.479
    46   1 H        0.925     0.051     2.303     2.373
    47   1 H        0.925     0.048     2.341     2.393
    48   1 H        0.925     0.044     2.396     2.421
    49   1 H        0.926     0.039     2.466     2.456
    50   1 H        0.924     0.095     1.828     2.114
    51   1 H        0.804     0.341     0.611     1.228
    52   1 H        0.926     0.043     2.405     2.425
    53   1 H        0.925     0.046     2.368     2.406
    54   1 H        0.924     0.050     2.320     2.382
    55   1 H        0.925     0.046     2.372     2.408
    56   1 H        0.925     0.036     2.498     2.472
    57   1 H        0.925     0.046     2.375     2.410
    58   1 H        0.925     0.054     2.275     2.359
    59   1 H        0.924     0.051     2.308     2.376
    60   1 H        0.926     0.052     2.296     2.369
    61   1 H        0.923     0.086     1.915     2.164
    62   1 H        0.926     0.031     2.575     2.509
    63   1 H        0.926     0.035     2.513     2.479
    64   1 H        0.926     0.035     2.511     2.478
    65   1 H        0.926     0.039     2.467     2.456
    66   1 H        0.926     0.040     2.448     2.447
    67   1 H        0.924     0.055     2.263     2.352
    68   1 H        0.926     0.034     2.535     2.490
    69   1 H        0.926     0.039     2.463     2.454
    70   1 H        0.926     0.036     2.502     2.473
    71   1 H        0.926     0.037     2.493     2.469
    72   1 H        0.926     0.030     2.587     2.515

Wiberg/Mayer (AO) data.
largest (>0.10) Wiberg bond orders for each atom

     #   Z sym  total        # sym  WBO       # sym  WBO       # sym  WBO
 ---------------------------------------------------------------------------
     1   8 O    2.004 --     2 C    1.681    11 N    0.188
     2   6 C    3.943 --     1 O    1.681    11 N    1.209     3 C    0.967
     3   6 C    3.987 --    10 C    1.418     4 C    1.392     2 C    0.967
                             7 C    0.104
     4   6 C    3.989 --     5 C    1.423     3 C    1.392    41 H    0.967
                             8 C    0.103
     5   6 C    3.989 --     4 C    1.423     7 C    1.401     6 C    1.025
                            10 C    0.105
     6   6 C    3.995 --     5 C    1.025    42 H    0.985    43 H    0.976
                            44 H    0.970
     7   6 C    3.990 --     8 C    1.426     5 C    1.401    45 H    0.968
                             3 C    0.104
     8   6 C    3.988 --     7 C    1.426    10 C    1.400     9 C    1.025
                             4 C    0.103
     9   6 C    3.995 --     8 C    1.025    48 H    0.986    46 H    0.973
                            47 H    0.970
    10   6 C    3.989 --     3 C    1.418     8 C    1.400    49 H    0.969
                             5 C    0.105
    11   7 N    3.468 --     2 C    1.209    12 C    0.980    34 C    0.964
                             1 O    0.188
    12   6 C    3.968 --    16 N    0.986    11 N    0.980    50 H    0.932
                            13 C    0.915
    13   6 C    3.916 --    15 O    1.773    14 O    1.160    12 C    0.915
    14   8 O    2.226 --    13 C    1.160    51 H    0.858    15 O    0.181
    15   8 O    2.059 --    13 C    1.773    14 O    0.181
    16   7 N    3.439 --    17 C    1.164    12 C    0.986    27 C    0.972
                            26 O    0.175
    17   6 C    3.939 --    26 O    1.694    16 N    1.164    18 C    0.994
    18   6 C    3.987 --    25 C    1.395    19 C    1.392    17 C    0.994
                            22 C    0.101
    19   6 C    3.989 --    20 C    1.417    18 C    1.392    52 H    0.967
                            23 C    0.103
    20   6 C    3.988 --    19 C    1.417    22 C    1.409    21 C    1.025
                            25 C    0.103
    21   6 C    3.995 --    20 C    1.025    53 H    0.983    55 H    0.980
                            54 H    0.967
    22   6 C    3.990 --    23 C    1.415    20 C    1.409    56 H    0.968
                            18 C    0.101
    23   6 C    3.989 --    22 C    1.415    25 C    1.410    24 C    1.026
                            19 C    0.103
    24   6 C    3.994 --    23 C    1.026    58 H    0.981    57 H    0.981
                            59 H    0.966
    25   6 C    3.989 --    23 C    1.410    18 C    1.395    60 H    0.962
                            20 C    0.103
    26   8 O    2.023 --    17 C    1.694    16 N    0.175
    27   6 C    3.964 --    28 C    0.990    16 N    0.972    34 C    0.946
                            61 H    0.938
    28   6 C    3.985 --    33 C    1.418    29 C    1.404    27 C    0.990
                            31 C    0.109
    29   6 C    3.991 --    30 C    1.451    28 C    1.404    62 H    0.968
                            32 C    0.112
    30   6 C    3.992 --    29 C    1.451    31 C    1.433    63 H    0.971
                            33 C    0.110
    31   6 C    3.992 --    32 C    1.444    30 C    1.433    64 H    0.971
                            28 C    0.109
    32   6 C    3.992 --    31 C    1.444    33 C    1.438    65 H    0.971
                            29 C    0.112
    33   6 C    3.991 --    32 C    1.438    28 C    1.418    66 H    0.966
                            30 C    0.110
    34   6 C    3.967 --    35 C    0.992    11 N    0.964    67 H    0.952
                            27 C    0.946
    35   6 C    3.987 --    40 C    1.414    36 C    1.407    34 C    0.992
                            38 C    0.109
    36   6 C    3.992 --    37 C    1.449    35 C    1.407    68 H    0.969
                            39 C    0.111
    37   6 C    3.992 --    36 C    1.449    38 C    1.435    69 H    0.971
                            40 C    0.110
    38   6 C    3.990 --    39 C    1.440    37 C    1.435    70 H    0.971
                            35 C    0.109
    39   6 C    3.992 --    40 C    1.442    38 C    1.440    71 H    0.971
                            36 C    0.111
    40   6 C    3.990 --    39 C    1.442    35 C    1.414    72 H    0.968
                            37 C    0.110
    41   1 H    0.999 --     4 C    0.967
    42   1 H    0.998 --     6 C    0.985
    43   1 H    0.998 --     6 C    0.976
    44   1 H    0.997 --     6 C    0.970
    45   1 H    0.998 --     7 C    0.968
    46   1 H    0.997 --     9 C    0.973
    47   1 H    0.998 --     9 C    0.970
    48   1 H    0.998 --     9 C    0.986
    49   1 H    0.998 --    10 C    0.969
    50   1 H    0.990 --    12 C    0.932
    51   1 H    0.883 --    14 O    0.858
    52   1 H    0.998 --    19 C    0.967
    53   1 H    0.998 --    21 C    0.983
    54   1 H    0.997 --    21 C    0.967
    55   1 H    0.998 --    21 C    0.980
    56   1 H    0.998 --    22 C    0.968
    57   1 H    0.998 --    24 C    0.981
    58   1 H    0.997 --    24 C    0.981
    59   1 H    0.997 --    24 C    0.966
    60   1 H    0.997 --    25 C    0.962
    61   1 H    0.992 --    27 C    0.938
    62   1 H    0.999 --    29 C    0.968
    63   1 H    0.998 --    30 C    0.971
    64   1 H    0.998 --    31 C    0.971
    65   1 H    0.998 --    32 C    0.971
    66   1 H    0.998 --    33 C    0.966
    67   1 H    0.996 --    34 C    0.952
    68   1 H    0.999 --    36 C    0.969
    69   1 H    0.998 --    37 C    0.971
    70   1 H    0.998 --    38 C    0.971
    71   1 H    0.998 --    39 C    0.971
    72   1 H    0.999 --    40 C    0.968
 ---------------------------------------------------------------------------

molecular dipole:
                 x           y           z       tot (Debye)
 q only:       -1.312       0.661      -0.441
   full:       -1.370       0.651      -0.620       4.166

           -------------------------------------------------
          | TOTAL ENERGY             -111.304008210802 Eh   |
          | GRADIENT NORM               0.000489177022 Eh/Î± |
          | HOMO-LUMO GAP               3.501668011243 eV   |
           -------------------------------------------------

 * finished run on 2022/03/17 at 00:15:57.359
