   * xtb version 6.3.3 (4ae9cef) compiled by 'conda@95abc7406d43' on 2020-10-14
          program call               : xtb acid_24.xyz --opt --chrg 0 --uhf 0 --gfn 2
          number of atoms            :                    66
          number of electrons        :                   238
          charge                     :                     0
          spin                       :                   0.0

   ID    Z sym.   atoms
    1    6 C      1, 2, 6-15, 19-22, 24-26, 28-31, 33, 34, 38-44
    2    9 F      3-5, 16-18
    3    7 N      23, 37
    4   35 Br     27, 45
    5    8 O      32, 35, 36, 46
    6    1 H      47-66

          :  Hamiltonian                  GFN2-xTB          :
 * total energy  :  -137.4432874 Eh     change       -0.3238227E-08 Eh
 * total energy  :  -137.4604142 Eh     change       -0.1712688E-01 Eh
 * total energy  :  -137.4656575 Eh     change       -0.5243304E-02 Eh
 * total energy  :  -137.4670382 Eh     change       -0.1380656E-02 Eh
 * total energy  :  -137.4678241 Eh     change       -0.7858493E-03 Eh
 * total energy  :  -137.4682075 Eh     change       -0.3834312E-03 Eh
 * total energy  :  -137.4685512 Eh     change       -0.3436857E-03 Eh
 * total energy  :  -137.4689685 Eh     change       -0.4173485E-03 Eh
 * total energy  :  -137.4693615 Eh     change       -0.3929858E-03 Eh
 * total energy  :  -137.4696723 Eh     change       -0.3107616E-03 Eh
 * total energy  :  -137.4753805 Eh     change       -0.2101491E-04 Eh
 * total energy  :  -137.4753969 Eh     change       -0.1640430E-04 Eh
 * total energy  :  -137.4754190 Eh     change       -0.2217016E-04 Eh
 * total energy  :  -137.4754337 Eh     change       -0.1462432E-04 Eh
 * total energy  :  -137.4754430 Eh     change       -0.9324420E-05 Eh
 * total energy  :  -137.4754507 Eh     change       -0.7683437E-05 Eh
 * total energy  :  -137.4754518 Eh     change       -0.1094355E-05 Eh
 * total energy  :  -137.4754568 Eh     change       -0.5076501E-05 Eh
 * total energy  :  -137.4754607 Eh     change       -0.3840436E-05 Eh
   *** GEOMETRY OPTIMIZATION CONVERGED AFTER 44 ITERATIONS ***

 final structure:
================
66
 xtb: 6.3.3 (4ae9cef)
C        -1.94909673273321   -2.45273479099934   -0.27041894591486
C        -2.11995620227080   -1.80397291441769   -1.61926457788560
F        -3.28865927607482   -2.13163032075320   -2.19162279668595
F        -2.08120040725034   -0.46333219184554   -1.64768333735794
F        -1.16147006310267   -2.21258483881843   -2.47699431820277
C        -2.48266186869858   -3.73666885408722   -0.19041592822033
C        -2.35954453996226   -4.48943311171419    0.95912145166672
C        -1.68759790434727   -3.95964778849160    2.04516358957591
C        -1.15180421834214   -2.69023713729080    1.96668281881163
C        -1.26799596254646   -1.90663514552538    0.82112397302789
C        -0.60695112548509   -0.55024905982355    0.87111501766295
C         0.53775091046025   -0.34238480684324   -0.15403798177981
C         1.86750809044517   -0.69137267368787    0.47216817666942
C         2.62053519058131   -1.81139701204676    0.11532892564776
C         2.13882738765715   -2.78175154815165   -0.93015627571074
F         2.96802726208561   -3.81964462591431   -1.09474130580476
F         0.93954271946358   -3.31181120906818   -0.62172497014522
F         2.00651672142578   -2.22277329183454   -2.14435911128509
C         3.83766362440875   -2.06860329578986    0.73756741890783
C         4.30761949633246   -1.22963169261138    1.72931470458302
C         3.55368658283991   -0.13385063467290    2.11297341567442
C         2.34886281712858    0.12840197518522    1.48987623420891
N         0.43418183247093    1.07460592135879   -0.45207740250098
C         1.38661588877069    1.92190627713338   -0.90871792226923
C         2.57771125045620    1.28637490067896   -1.54842127778603
C         2.44693327969143    0.64901900920186   -2.77737651033632
Br        0.75048951641615    0.57380350876722   -3.62934114048633
C         3.54339872537929    0.08957307183532   -3.41149076079592
C         4.78738291140425    0.17111512869594   -2.81269608756046
C         4.93952501121494    0.83595303816635   -1.60614488214710
C         3.84222251791488    1.40382638272059   -0.98530298700088
O         1.23581885994947    3.12511406934731   -0.82857026517653
C        -0.83400287454585    1.64630762863472   -0.05862805818036
C        -0.62094939391549    2.90108751737469    0.81730319252574
O         0.23643346905868    2.66812265713840    1.81136387093942
O        -1.23425354758612    3.91845253017548    0.68079345379945
N        -1.50010611670358    0.57740840604126    0.64100190714617
C        -2.79119215945958    0.57131517397221    1.05659507872129
C        -3.54742746059269    1.82938799851140    0.75796105569887
C        -4.16410347006062    2.01341591578342   -0.47224084901162
C        -4.90681277599061    3.15607017320595   -0.71295687745943
C        -5.04430381931301    4.11848940554772    0.27329197856798
C        -4.44101157170860    3.94623729141183    1.50656070509887
C        -3.70190388595433    2.80133074904515    1.73515234766215
Br       -2.83540229903890    2.57287251026596    3.40960524735727
O        -3.28798351753541   -0.37213219852300    1.63190292139603
H        -3.00239582924279   -4.14251777125747   -1.04466948896710
H        -2.78522935941613   -5.47937124938781    1.00237770531327
H        -1.58100053926509   -4.53110433179812    2.95424121450156
H        -0.63552795547905   -2.28380599514888    2.82346996241633
H        -0.18562617786976   -0.43593179553385    1.88131006863334
H         0.35778216064125   -0.92727201265635   -1.06083780815384
H         4.41186493413988   -2.93327201071546    0.44438560657513
H         5.25298692598952   -1.43820643810316    2.20449092999746
H         3.90337880059835    0.51867163728262    2.89815675693653
H         1.77121344298767    0.99083927045453    1.78588992452009
H         3.41631779692006   -0.40526641357623   -4.36124584883389
H         5.64178855576512   -0.27248421274763   -3.30021664897519
H         5.91492179112650    0.91983256001716   -1.15272497567472
H         3.95147296554593    1.93990374629005   -0.05528992891211
H        -1.40607296908352    1.96856476319257   -0.94364738065309
H         0.31898233789199    3.45665496587027    2.37281498199875
H        -4.05461707684946    1.25773275061009   -1.23492205817129
H        -5.37602682148431    3.29500875126009   -1.67451985873210
H        -5.61951451329038    5.01174887935815    0.08442993331743
H        -4.53556234196354    4.69256380929248    2.27992699722210

          :  Hamiltonian                  GFN2-xTB          :
         :: total energy            -137.475460679122 Eh    ::
         :: gradient norm              0.000442286743 Eh/a0 ::
         :: HOMO-LUMO gap              3.156810214084 eV    ::
         :: SCC energy              -139.071368213541 Eh    ::
         :: -> dispersion             -0.112537137588 Eh    ::
         :: repulsion energy           1.590903870954 Eh    ::

    * Orbital Energies and Occupations

         #    Occupation            Energy/Eh            Energy/eV
      -------------------------------------------------------------
         1        2.0000           -0.8937904             -24.3213
       ...           ...                  ...                  ...
       107        2.0000           -0.4466256             -12.1533
       108        2.0000           -0.4411430             -12.0041
       109        2.0000           -0.4385527             -11.9336
       110        2.0000           -0.4372587             -11.8984
       111        2.0000           -0.4289258             -11.6717
       112        2.0000           -0.4282709             -11.6538
       113        2.0000           -0.4244668             -11.5503
       114        2.0000           -0.4167661             -11.3408
       115        2.0000           -0.4159127             -11.3176
       116        2.0000           -0.4098253             -11.1519
       117        2.0000           -0.4090581             -11.1310
       118        2.0000           -0.4071902             -11.0802
       119        2.0000           -0.4036891             -10.9849 (HOMO)
       120                         -0.2876784              -7.8281 (LUMO)
       121                         -0.2788160              -7.5870
       122                         -0.2718776              -7.3982
       123                         -0.2661955              -7.2435
       124                         -0.2622144              -7.1352
       125                         -0.2597336              -7.0677
       126                         -0.2546802              -6.9302
       127                         -0.2500356              -6.8038
       128                         -0.2487925              -6.7700
       129                         -0.2376849              -6.4677
       130                         -0.2330266              -6.3410
       ...                                ...                  ...
       214                          0.6466702              17.5968
      -------------------------------------------------------------
                  HL-Gap            0.1160106 Eh            3.1568 eV

     #   Z          covCN         q      C6AA      Î±(0)
     1   6 C        2.975    -0.022    28.542     8.763
     2   6 C        3.340     0.488    17.210     6.561
     3   9 F        0.792    -0.204    11.274     3.966
     4   9 F        0.792    -0.213    11.372     3.983
     5   9 F        0.792    -0.208    11.319     3.974
     6   6 C        2.931    -0.017    28.438     8.746
     7   6 C        2.919    -0.019    28.472     8.750
     8   6 C        2.919    -0.015    28.379     8.736
     9   6 C        2.932    -0.022    28.554     8.763
    10   6 C        2.964     0.025    27.450     8.594
    11   6 C        3.829     0.049    19.732     6.321
    12   6 C        3.812     0.042    19.864     6.344
    13   6 C        2.971     0.005    27.900     8.664
    14   6 C        2.975    -0.036    28.885     8.816
    15   6 C        3.335     0.485    17.302     6.589
    16   9 F        0.792    -0.200    11.235     3.959
    17   9 F        0.791    -0.214    11.376     3.984
    18   9 F        0.791    -0.204    11.281     3.967
    19   6 C        2.923    -0.025    28.616     8.773
    20   6 C        2.919    -0.023    28.591     8.768
    21   6 C        2.918    -0.019    28.495     8.754
    22   6 C        2.927    -0.035    28.869     8.811
    23   7 N        2.769    -0.100    23.205     7.155
    24   6 C        2.777     0.280    22.262     7.728
    25   6 C        3.043    -0.022    28.516     8.759
    26   6 C        2.920     0.082    26.176     8.390
    27  35 Br       1.075    -0.140   188.893    22.160
    28   6 C        2.997    -0.029    28.724     8.792
    29   6 C        2.923    -0.025    28.633     8.775
    30   6 C        2.918    -0.031    28.767     8.795
    31   6 C        2.925    -0.025    28.627     8.774
    32   8 O        0.860    -0.413    21.937     6.280
    33   6 C        3.765     0.094    19.067     6.224
    34   6 C        2.687     0.368    20.761     7.457
    35   8 O        1.659    -0.363    20.153     6.060
    36   8 O        0.856    -0.380    21.279     6.185
    37   7 N        2.761    -0.108    23.359     7.178
    38   6 C        2.768     0.283    22.217     7.719
    39   6 C        3.053    -0.023    28.537     8.761
    40   6 C        2.925    -0.025    28.624     8.774
    41   6 C        2.919    -0.023    28.591     8.768
    42   6 C        2.924    -0.021    28.538     8.761
    43   6 C        2.996    -0.025    28.624     8.776
    44   6 C        2.922     0.086    26.089     8.376
    45  35 Br       1.084    -0.160   189.466    22.194
    46   8 O        0.859    -0.414    21.956     6.282
    47   1 H        0.926     0.068     2.106     2.269
    48   1 H        0.926     0.060     2.198     2.318
    49   1 H        0.926     0.059     2.214     2.327
    50   1 H        0.926     0.052     2.295     2.369
    51   1 H        0.923     0.064     2.154     2.295
    52   1 H        0.924     0.067     2.114     2.274
    53   1 H        0.926     0.069     2.093     2.262
    54   1 H        0.926     0.061     2.189     2.314
    55   1 H        0.926     0.061     2.190     2.314
    56   1 H        0.926     0.075     2.030     2.228
    57   1 H        0.926     0.070     2.081     2.256
    58   1 H        0.926     0.055     2.262     2.352
    59   1 H        0.926     0.049     2.326     2.385
    60   1 H        0.926     0.050     2.324     2.384
    61   1 H        0.923     0.084     1.935     2.176
    62   1 H        0.804     0.348     0.592     1.208
    63   1 H        0.926     0.055     2.260     2.351
    64   1 H        0.926     0.054     2.274     2.358
    65   1 H        0.926     0.053     2.280     2.361
    66   1 H        0.926     0.063     2.169     2.303

Wiberg/Mayer (AO) data.
largest (>0.10) Wiberg bond orders for each atom

     #   Z sym  total        # sym  WBO       # sym  WBO       # sym  WBO
 ---------------------------------------------------------------------------
     1   6 C    3.971 --     6 C    1.408    10 C    1.389     2 C    0.951
                             8 C    0.106
     2   6 C    3.822 --     1 C    0.951     3 F    0.950     4 F    0.943
                             5 F    0.938
     3   9 F    1.074 --     2 C    0.950
     4   9 F    1.069 --     2 C    0.943
     5   9 F    1.071 --     2 C    0.938
     6   6 C    3.987 --     7 C    1.447     1 C    1.408    47 H    0.966
                             9 C    0.109
     7   6 C    3.988 --     6 C    1.447     8 C    1.430    48 H    0.968
                            10 C    0.108
     8   6 C    3.989 --     9 C    1.451     7 C    1.430    49 H    0.968
                             1 C    0.106
     9   6 C    3.988 --     8 C    1.451    10 C    1.404    50 H    0.965
                             6 C    0.109
    10   6 C    3.985 --     9 C    1.404     1 C    1.389    11 C    0.995
                             7 C    0.108
    11   6 C    3.967 --    10 C    0.995    37 N    0.958    51 H    0.949
                            12 C    0.946
    12   6 C    3.969 --    13 C    0.994    23 N    0.966    52 H    0.950
                            11 C    0.946
    13   6 C    3.986 --    22 C    1.404    14 C    1.389    12 C    0.994
                            20 C    0.108
    14   6 C    3.971 --    19 C    1.410    13 C    1.389    15 C    0.949
                            21 C    0.104
    15   6 C    3.824 --    16 F    0.955    14 C    0.949    18 F    0.944
                            17 F    0.938
    16   9 F    1.078 --    15 C    0.955
    17   9 F    1.066 --    15 C    0.938
    18   9 F    1.076 --    15 C    0.944
    19   6 C    3.987 --    20 C    1.446    14 C    1.410    53 H    0.965
                            22 C    0.110
    20   6 C    3.988 --    19 C    1.446    21 C    1.430    54 H    0.968
                            13 C    0.108
    21   6 C    3.989 --    22 C    1.450    20 C    1.430    55 H    0.968
                            14 C    0.104
    22   6 C    3.986 --    21 C    1.450    13 C    1.404    56 H    0.957
                            19 C    0.110
    23   7 N    3.475 --    24 C    1.220    33 C    0.977    12 C    0.966
                            32 O    0.190
    24   6 C    3.946 --    32 O    1.675    23 N    1.220    25 C    0.962
    25   6 C    3.987 --    31 C    1.401    26 C    1.378    24 C    0.962
                            29 C    0.106
    26   6 C    3.946 --    28 C    1.408    25 C    1.378    27 Br   0.994
    27  35 Br   1.148 --    26 C    0.994
    28   6 C    3.988 --    29 C    1.443    26 C    1.408    57 H    0.965
                            31 C    0.109
    29   6 C    3.990 --    28 C    1.443    30 C    1.430    58 H    0.968
                            25 C    0.106
    30   6 C    3.991 --    31 C    1.444    29 C    1.430    59 H    0.969
    31   6 C    3.989 --    30 C    1.444    25 C    1.401    60 H    0.966
                            28 C    0.109
    32   8 O    2.054 --    24 C    1.675    23 N    0.190
    33   6 C    3.959 --    37 N    0.984    23 N    0.977    61 H    0.941
                            34 C    0.906
    34   6 C    3.926 --    36 O    1.784    35 O    1.143    33 C    0.906
    35   8 O    2.213 --    34 C    1.143    62 H    0.853    36 O    0.176
    36   8 O    2.071 --    34 C    1.784    35 O    0.176
    37   7 N    3.470 --    38 C    1.211    33 C    0.984    11 C    0.958
                            46 O    0.193
    38   6 C    3.946 --    46 O    1.696    37 N    1.211    39 C    0.952
    39   6 C    3.986 --    40 C    1.405    44 C    1.387    38 C    0.952
                            42 C    0.108
    40   6 C    3.989 --    41 C    1.439    39 C    1.405    63 H    0.966
                            43 C    0.110
    41   6 C    3.990 --    40 C    1.439    42 C    1.436    64 H    0.968
                            44 C    0.102
    42   6 C    3.990 --    43 C    1.437    41 C    1.436    65 H    0.968
                            39 C    0.108
    43   6 C    3.989 --    42 C    1.437    44 C    1.416    66 H    0.967
                            40 C    0.110
    44   6 C    3.941 --    43 C    1.416    39 C    1.387    45 Br   0.973
                            41 C    0.102
    45  35 Br   1.112 --    44 C    0.973
    46   8 O    2.037 --    38 C    1.696    37 N    0.193
    47   1 H    0.995 --     6 C    0.966
    48   1 H    0.995 --     7 C    0.968
    49   1 H    0.996 --     8 C    0.968
    50   1 H    0.997 --     9 C    0.965
    51   1 H    0.995 --    11 C    0.949
    52   1 H    0.995 --    12 C    0.950
    53   1 H    0.995 --    19 C    0.965
    54   1 H    0.995 --    20 C    0.968
    55   1 H    0.996 --    21 C    0.968
    56   1 H    0.994 --    22 C    0.957
    57   1 H    0.994 --    28 C    0.965
    58   1 H    0.997 --    29 C    0.968
    59   1 H    0.996 --    30 C    0.969
    60   1 H    0.998 --    31 C    0.966
    61   1 H    0.992 --    33 C    0.941
    62   1 H    0.878 --    35 O    0.853
    63   1 H    0.997 --    40 C    0.966
    64   1 H    0.996 --    41 C    0.968
    65   1 H    0.997 --    42 C    0.968
    66   1 H    0.996 --    43 C    0.967
 ---------------------------------------------------------------------------

molecular dipole:
                 x           y           z       tot (Debye)
 q only:        2.227      -0.811       1.704
   full:        2.414      -0.712       1.203       7.091

           -------------------------------------------------
          | TOTAL ENERGY             -137.475460679122 Eh   |
          | GRADIENT NORM               0.000442286743 Eh/Î± |
          | HOMO-LUMO GAP               3.156810214084 eV   |
           -------------------------------------------------

 * finished run on 2022/03/16 at 22:50:31.077
