   * xtb version 6.3.3 (4ae9cef) compiled by 'conda@95abc7406d43' on 2020-10-14
          program call               : xtb acid_141.xyz --opt --chrg 0 --uhf 0 --gfn 2
          number of atoms            :                    68
          number of electrons        :                   202
          charge                     :                     0
          spin                       :                   0.0

   ID    Z sym.   atoms
    1    6 C      1-14, 16-20, 22-24, 26, 27, 31-35, 37-39
    2    7 N      15, 30
    3    8 O      21, 25, 28, 29, 36, 40
    4    1 H      41-68

          :  Hamiltonian                  GFN2-xTB          :
 * total energy  :  -113.0566220 Eh     change       -0.9886776E-09 Eh
 * total energy  :  -113.0696193 Eh     change       -0.1299728E-01 Eh
 * total energy  :  -113.0736171 Eh     change       -0.3997781E-02 Eh
 * total energy  :  -113.0748633 Eh     change       -0.1246164E-02 Eh
 * total energy  :  -113.0758140 Eh     change       -0.9507217E-03 Eh
 * total energy  :  -113.0764367 Eh     change       -0.6227239E-03 Eh
 * total energy  :  -113.0768863 Eh     change       -0.4496094E-03 Eh
 * total energy  :  -113.0772441 Eh     change       -0.3577427E-03 Eh
 * total energy  :  -113.0775622 Eh     change       -0.3180947E-03 Eh
 * total energy  :  -113.0778035 Eh     change       -0.2413466E-03 Eh
 * total energy  :  -113.0807343 Eh     change       -0.2186533E-04 Eh
 * total energy  :  -113.0807506 Eh     change       -0.1627729E-04 Eh
 * total energy  :  -113.0807605 Eh     change       -0.9868795E-05 Eh
 * total energy  :  -113.0807675 Eh     change       -0.7038792E-05 Eh
 * total energy  :  -113.0807741 Eh     change       -0.6525787E-05 Eh
 * total energy  :  -113.0807809 Eh     change       -0.6847301E-05 Eh
 * total energy  :  -113.0807871 Eh     change       -0.6238677E-05 Eh
 * total energy  :  -113.0807923 Eh     change       -0.5125061E-05 Eh
 * total energy  :  -113.0807941 Eh     change       -0.1838684E-05 Eh
   *** GEOMETRY OPTIMIZATION CONVERGED AFTER 65 ITERATIONS ***

 final structure:
================
68
 xtb: 6.3.3 (4ae9cef)
C        -0.27441218509803   -1.86839136075134   -2.00791258166609
C        -0.21427816200376   -2.71652379385300   -3.09816519854429
C        -0.15735983247900   -4.08724621038560   -2.90954906655843
C        -0.16437285006151   -4.60590957866969   -1.62638773747432
C        -0.22191166853351   -3.75758185091668   -0.53454606270588
C        -0.27445771673779   -2.38367037876751   -0.71686955535238
C        -0.32186134538501   -1.45149368685683    0.46779204629411
C         0.94926792508536   -0.56431700446794    0.55728742308333
C         1.49623998017656   -0.47119971168145    1.96393388232285
C         1.69327751098723    0.74861819144720    2.59637431509715
C         2.19753541022660    0.79554265239683    3.88569547354240
C         2.51883081514601   -0.37352532925501    4.55195729961008
C         2.34529029708478   -1.59292992921192    3.91815069433135
C         1.84050110414882   -1.64098943364176    2.63192092890478
N         0.50727311545851    0.71314819963216    0.02915562119649
C         1.00714141580294    1.31499195902222   -1.10150536279326
C         2.39875768138741    0.96682074835254   -1.48062885838793
C         3.44121292309918    0.88071572201109   -0.56648469972277
C         4.73085975381812    0.60871333394101   -0.98765408096073
C         4.99746672261551    0.40759877783600   -2.33921599058048
O         6.21783511090913    0.12573356708780   -2.85921485941782
C         7.32370297998446    0.04054943500182   -1.99196759778332
C         3.95039241437473    0.50238208659342   -3.26096734479585
C         2.67489744121459    0.79120223612489   -2.83737683804444
O         0.33680407043173    2.09751014141634   -1.74406383554613
C        -0.90330062849973    0.86358726367988    0.31445365363711
C        -1.11735874351445    1.56609228420815    1.66604386291864
O        -1.45418028524191    0.71356742627969    2.63308067091462
O        -0.99603681012765    2.74593138578603    1.83702230765448
N        -1.40385002757308   -0.48855570031976    0.31804743292349
C        -2.69338357139847   -0.86726715528659    0.53077125470949
C        -3.69444065940671    0.22655147435608    0.36932358485531
C        -3.83014833137978    0.90395973188852   -0.84047678448310
C        -4.78214654861598    1.88789484848932   -0.98260561109591
C        -5.61919425235032    2.22603874638796    0.08409294335102
O        -6.51248171225281    3.21996966951703   -0.15877551029441
C        -7.39248325080698    3.60463802284268    0.86966325834911
C        -5.49535068153820    1.53977761550791    1.28772250420791
C        -4.54569426654739    0.54107274451737    1.41721650797402
O        -2.98549770061716   -2.01271122637079    0.80475252692708
H        -0.32888277053735   -0.80050686656988   -2.16325653072500
H        -0.21630552299878   -2.30630206765814   -4.09724252511740
H        -0.11468415728793   -4.74920795251485   -3.76167649052475
H        -0.13022108009861   -5.67467920219925   -1.47449305384531
H        -0.24079758141894   -4.16422411410268    0.46585851186278
H        -0.48123079980173   -2.02761190373124    1.38602907750825
H         1.72935273127468   -0.97454122208067   -0.09461242314819
H         1.45560963471550    1.66892762151440    2.08287594219195
H         2.34080609365568    1.75203750860169    4.36648010592469
H         2.90996344358477   -0.33525069530298    5.55754171013229
H         2.60570035707564   -2.50912418114937    4.42669004363836
H         1.71766040697093   -2.59283665045344    2.13577694521146
H         3.25896485697960    1.04950324700107    0.48387580230829
H         5.51835899584998    0.56113907322487   -0.25230021208352
H         7.50388789658311    0.98947832847353   -1.47762701144803
H         7.19510922041390   -0.75634612544731   -1.25302093867779
H         8.17699926903450   -0.19203834400581   -2.62654819958957
H         4.17354598624217    0.35448794288460   -4.30527878738117
H         1.87007848536248    0.88527723282051   -3.54990369060602
H        -1.34322983873685    1.50377724043565   -0.46452556472628
H        -1.58150165685569    1.18121142505912    3.47414564325080
H        -3.20317529761956    0.64061812313515   -1.67967238261281
H        -4.90244424840288    2.41683313096891   -1.91438622810891
H        -8.04827072200056    2.77953015462691    1.16646330102572
H        -6.85038149114790    3.97330850538194    1.74645040660825
H        -7.99481980905386    4.41129690450060    0.45470387155875
H        -6.13447783570737    1.76645391992111    2.12642334465789
H        -4.45870300785966   -0.00150894722438    2.34676371611184

          :  Hamiltonian                  GFN2-xTB          :
         :: total energy            -113.080794104417 Eh    ::
         :: gradient norm              0.000610185664 Eh/a0 ::
         :: HOMO-LUMO gap              3.319538828858 eV    ::
         :: SCC energy              -114.733978308593 Eh    ::
         :: -> dispersion             -0.091085949390 Eh    ::
         :: repulsion energy           1.650640192110 Eh    ::

    * Orbital Energies and Occupations

         #    Occupation            Energy/Eh            Energy/eV
      -------------------------------------------------------------
         1        2.0000           -0.7664724             -20.8568
       ...           ...                  ...                  ...
        89        2.0000           -0.4248389             -11.5605
        90        2.0000           -0.4203163             -11.4374
        91        2.0000           -0.4193846             -11.4120
        92        2.0000           -0.4164267             -11.3315
        93        2.0000           -0.4150483             -11.2940
        94        2.0000           -0.4106197             -11.1735
        95        2.0000           -0.4083226             -11.1110
        96        2.0000           -0.4042524             -11.0003
        97        2.0000           -0.3997791             -10.8785
        98        2.0000           -0.3938878             -10.7182
        99        2.0000           -0.3910128             -10.6400
       100        2.0000           -0.3879932             -10.5578
       101        2.0000           -0.3816753             -10.3859 (HOMO)
       102                         -0.2596845              -7.0664 (LUMO)
       103                         -0.2543159              -6.9203
       104                         -0.2406975              -6.5497
       105                         -0.2375232              -6.4633
       106                         -0.2369096              -6.4466
       107                         -0.2356523              -6.4124
       108                         -0.2283026              -6.2124
       109                         -0.2280075              -6.2044
       110                         -0.2263251              -6.1586
       111                         -0.1958763              -5.3301
       112                         -0.1928423              -5.2475
       ...                                ...                  ...
       188                          0.6771490              18.4262
      -------------------------------------------------------------
                  HL-Gap            0.1219908 Eh            3.3195 eV

     #   Z          covCN         q      C6AA      Î±(0)
     1   6 C        2.924    -0.033    28.822     8.804
     2   6 C        2.919    -0.028    28.694     8.784
     3   6 C        2.920    -0.029    28.727     8.789
     4   6 C        2.920    -0.027    28.664     8.780
     5   6 C        2.924    -0.030    28.742     8.792
     6   6 C        2.974     0.005    27.899     8.664
     7   6 C        3.826     0.042    19.854     6.340
     8   6 C        3.832     0.035    19.957     6.356
     9   6 C        2.971     0.002    27.983     8.677
    10   6 C        2.923    -0.036    28.887     8.814
    11   6 C        2.920    -0.029    28.717     8.788
    12   6 C        2.920    -0.030    28.761     8.794
    13   6 C        2.919    -0.027    28.672     8.781
    14   6 C        2.925    -0.037    28.910     8.817
    15   7 N        2.762    -0.122    23.643     7.222
    16   6 C        2.768     0.272    22.396     7.751
    17   6 C        2.973    -0.027    28.676     8.784
    18   6 C        2.921    -0.032    28.804     8.801
    19   6 C        2.916    -0.066    29.646     8.929
    20   6 C        2.866     0.150    24.748     8.155
    21   8 O        1.706    -0.259    18.293     5.775
    22   6 C        3.644     0.034    20.333     6.481
    23   6 C        2.919    -0.052    29.298     8.876
    24   6 C        2.925    -0.019    28.492     8.754
    25   8 O        0.859    -0.421    22.094     6.302
    26   6 C        3.779     0.087    19.162     6.236
    27   6 C        2.688     0.352    21.023     7.504
    28   8 O        1.659    -0.362    20.135     6.057
    29   8 O        0.856    -0.384    21.362     6.197
    30   7 N        2.765    -0.119    23.587     7.213
    31   6 C        2.764     0.273    22.378     7.747
    32   6 C        2.975    -0.033    28.818     8.806
    33   6 C        2.922    -0.031    28.766     8.795
    34   6 C        2.920    -0.051    29.271     8.872
    35   6 C        2.866     0.148    24.785     8.161
    36   8 O        1.706    -0.262    18.335     5.781
    37   6 C        3.644     0.036    20.311     6.478
    38   6 C        2.917    -0.066    29.645     8.928
    39   6 C        2.925    -0.025    28.639     8.776
    40   8 O        0.859    -0.424    22.169     6.313
    41   1 H        0.926     0.031     2.578     2.511
    42   1 H        0.926     0.036     2.500     2.472
    43   1 H        0.926     0.036     2.504     2.474
    44   1 H        0.926     0.038     2.482     2.464
    45   1 H        0.926     0.038     2.475     2.460
    46   1 H        0.924     0.067     2.117     2.276
    47   1 H        0.924     0.058     2.226     2.333
    48   1 H        0.926     0.039     2.463     2.454
    49   1 H        0.926     0.038     2.472     2.459
    50   1 H        0.926     0.037     2.487     2.466
    51   1 H        0.926     0.039     2.469     2.457
    52   1 H        0.926     0.034     2.527     2.486
    53   1 H        0.926     0.042     2.416     2.431
    54   1 H        0.926     0.041     2.437     2.441
    55   1 H        0.924     0.044     2.391     2.418
    56   1 H        0.924     0.043     2.414     2.430
    57   1 H        0.925     0.067     2.123     2.278
    58   1 H        0.926     0.058     2.220     2.330
    59   1 H        0.926     0.059     2.206     2.322
    60   1 H        0.923     0.103     1.758     2.073
    61   1 H        0.804     0.340     0.613     1.230
    62   1 H        0.926     0.043     2.408     2.427
    63   1 H        0.926     0.058     2.219     2.329
    64   1 H        0.924     0.042     2.418     2.432
    65   1 H        0.924     0.042     2.421     2.433
    66   1 H        0.925     0.065     2.144     2.290
    67   1 H        0.926     0.041     2.441     2.443
    68   1 H        0.926     0.045     2.381     2.413

Wiberg/Mayer (AO) data.
largest (>0.10) Wiberg bond orders for each atom

     #   Z sym  total        # sym  WBO       # sym  WBO       # sym  WBO
 ---------------------------------------------------------------------------
     1   6 C    3.992 --     2 C    1.449     6 C    1.409    41 H    0.968
                             4 C    0.112
     2   6 C    3.992 --     1 C    1.449     3 C    1.436    42 H    0.971
                             5 C    0.111
     3   6 C    3.990 --     4 C    1.442     2 C    1.436    43 H    0.971
                             6 C    0.110
     4   6 C    3.992 --     3 C    1.442     5 C    1.441    44 H    0.971
                             1 C    0.112
     5   6 C    3.990 --     4 C    1.441     6 C    1.417    45 H    0.968
                             2 C    0.111
     6   6 C    3.986 --     5 C    1.417     1 C    1.409     7 C    0.989
                             3 C    0.110
     7   6 C    3.965 --     6 C    0.989    30 N    0.961    46 H    0.953
                             8 C    0.947
     8   6 C    3.967 --     9 C    0.988    15 N    0.974     7 C    0.947
                            47 H    0.945
     9   6 C    3.986 --    10 C    1.418    14 C    1.405     8 C    0.988
                            12 C    0.110
    10   6 C    3.991 --    11 C    1.436     9 C    1.418    48 H    0.964
                            13 C    0.110
    11   6 C    3.992 --    12 C    1.445    10 C    1.436    49 H    0.971
                            14 C    0.112
    12   6 C    3.991 --    11 C    1.445    13 C    1.432    50 H    0.971
                             9 C    0.110
    13   6 C    3.991 --    14 C    1.451    12 C    1.432    51 H    0.971
                            10 C    0.110
    14   6 C    3.991 --    13 C    1.451     9 C    1.405    52 H    0.968
                            11 C    0.112
    15   7 N    3.433 --    16 C    1.164    26 C    0.981     8 C    0.974
                            25 O    0.174
    16   6 C    3.941 --    25 O    1.693    15 N    1.164    17 C    0.996
    17   6 C    3.986 --    18 C    1.397    24 C    1.365    16 C    0.996
    18   6 C    3.991 --    19 C    1.448    17 C    1.397    53 H    0.965
                            23 C    0.103
    19   6 C    3.987 --    18 C    1.448    20 C    1.367    54 H    0.965
    20   6 C    3.936 --    19 C    1.367    23 C    1.336    21 O    1.078
    21   8 O    2.246 --    20 C    1.078    22 C    0.982
    22   6 C    3.944 --    21 O    0.982    57 H    0.979    56 H    0.977
                            55 H    0.976
    23   6 C    3.987 --    24 C    1.489    20 C    1.336    58 H    0.966
                            18 C    0.103
    24   6 C    3.988 --    23 C    1.489    17 C    1.365    59 H    0.967
    25   8 O    2.024 --    16 C    1.693    15 N    0.174
    26   6 C    3.965 --    30 N    0.984    15 N    0.981    60 H    0.926
                            27 C    0.917
    27   6 C    3.917 --    29 O    1.781    28 O    1.149    26 C    0.917
    28   8 O    2.218 --    27 C    1.149    61 H    0.859    29 O    0.181
    29   8 O    2.063 --    27 C    1.781    28 O    0.181
    30   7 N    3.452 --    31 C    1.197    26 C    0.984     7 C    0.961
                            40 O    0.185
    31   6 C    3.946 --    40 O    1.692    30 N    1.197    32 C    0.971
    32   6 C    3.986 --    39 C    1.413    33 C    1.374    31 C    0.971
    33   6 C    3.991 --    34 C    1.482    32 C    1.374    62 H    0.967
                            38 C    0.100
    34   6 C    3.988 --    33 C    1.482    35 C    1.339    63 H    0.967
                            39 C    0.106
    35   6 C    3.937 --    38 C    1.373    34 C    1.339    36 O    1.073
    36   8 O    2.242 --    35 C    1.073    37 C    0.984
    37   6 C    3.945 --    36 O    0.984    66 H    0.979    64 H    0.977
                            65 H    0.976
    38   6 C    3.987 --    39 C    1.440    35 C    1.373    67 H    0.965
                            33 C    0.100
    39   6 C    3.990 --    38 C    1.440    32 C    1.413    68 H    0.969
                            34 C    0.106
    40   8 O    2.014 --    31 C    1.692    30 N    0.185
    41   1 H    0.999 --     1 C    0.968
    42   1 H    0.998 --     2 C    0.971
    43   1 H    0.998 --     3 C    0.971
    44   1 H    0.998 --     4 C    0.971
    45   1 H    0.999 --     5 C    0.968
    46   1 H    0.995 --     7 C    0.953
    47   1 H    0.996 --     8 C    0.945
    48   1 H    0.998 --    10 C    0.964
    49   1 H    0.998 --    11 C    0.971
    50   1 H    0.998 --    12 C    0.971
    51   1 H    0.998 --    13 C    0.971
    52   1 H    0.999 --    14 C    0.968
    53   1 H    0.998 --    18 C    0.965
    54   1 H    0.998 --    19 C    0.965
    55   1 H    0.998 --    22 C    0.976
    56   1 H    0.998 --    22 C    0.977
    57   1 H    0.995 --    22 C    0.979
    58   1 H    0.996 --    23 C    0.966
    59   1 H    0.996 --    24 C    0.967
    60   1 H    0.989 --    26 C    0.926
    61   1 H    0.884 --    28 O    0.859
    62   1 H    0.998 --    33 C    0.967
    63   1 H    0.996 --    34 C    0.967
    64   1 H    0.998 --    37 C    0.977
    65   1 H    0.998 --    37 C    0.976
    66   1 H    0.995 --    37 C    0.979
    67   1 H    0.998 --    38 C    0.965
    68   1 H    0.998 --    39 C    0.969
 ---------------------------------------------------------------------------

molecular dipole:
                 x           y           z       tot (Debye)
 q only:        1.498      -0.572       1.105
   full:        1.519      -0.493       1.530       5.622

           -------------------------------------------------
          | TOTAL ENERGY             -113.080794104417 Eh   |
          | GRADIENT NORM               0.000610185664 Eh/Î± |
          | HOMO-LUMO GAP               3.319538828858 eV   |
           -------------------------------------------------

 * finished run on 2022/03/16 at 21:48:30.906
