   * xtb version 6.3.3 (4ae9cef) compiled by 'conda@95abc7406d43' on 2020-10-14
          program call               : xtb acid_185.xyz --opt --chrg 0 --uhf 0 --gfn 2
          number of atoms            :                    78
          number of electrons        :                   250
          charge                     :                     0
          spin                       :                   0.0

   ID    Z sym.   atoms
    1    6 C      1, 2, 6-15, 19-22, 24-32, 34, 35, 39-47
    2    9 F      3-5, 16-18
    3    7 N      23, 38
    4    8 O      33, 36, 37, 48
    5    1 H      49-78

          :  Hamiltonian                  GFN2-xTB          :
 * total energy  :  -142.9653893 Eh     change       -0.2016577E-08 Eh
 * total energy  :  -142.9832565 Eh     change       -0.1786712E-01 Eh
 * total energy  :  -142.9889181 Eh     change       -0.5661656E-02 Eh
 * total energy  :  -142.9904901 Eh     change       -0.1571942E-02 Eh
 * total energy  :  -142.9914366 Eh     change       -0.9465064E-03 Eh
 * total energy  :  -142.9919723 Eh     change       -0.5357261E-03 Eh
 * total energy  :  -142.9924626 Eh     change       -0.4903510E-03 Eh
 * total energy  :  -142.9930363 Eh     change       -0.5736658E-03 Eh
 * total energy  :  -142.9936886 Eh     change       -0.6522819E-03 Eh
 * total energy  :  -142.9943377 Eh     change       -0.6491214E-03 Eh
 * total energy  :  -143.0000521 Eh     change       -0.2586046E-04 Eh
 * total energy  :  -143.0000613 Eh     change       -0.9218696E-05 Eh
 * total energy  :  -143.0000825 Eh     change       -0.2121664E-04 Eh
 * total energy  :  -143.0000842 Eh     change       -0.1704291E-05 Eh
 * total energy  :  -143.0000927 Eh     change       -0.8446914E-05 Eh
 * total energy  :  -143.0001057 Eh     change       -0.1301652E-04 Eh
 * total energy  :  -143.0001159 Eh     change       -0.1023539E-04 Eh
 * total energy  :  -143.0001294 Eh     change       -0.1353076E-04 Eh
 * total energy  :  -143.0001322 Eh     change       -0.2763813E-05 Eh
   *** GEOMETRY OPTIMIZATION CONVERGED AFTER 68 ITERATIONS ***

 final structure:
================
78
 xtb: 6.3.3 (4ae9cef)
C        -2.76613467352722    0.42940507327629   -1.37463755615560
C        -2.13848105323137    1.77410127473911   -1.63713998579109
F        -0.90394433536047    1.71563095416942   -2.16072077104234
F        -2.03675468293744    2.53134108168303   -0.52638783755999
F        -2.85376887510852    2.51163919332869   -2.50044193314176
C        -4.07497540729153    0.25766422862468   -1.81564359269774
C        -4.74254898960074   -0.93351892315179   -1.60954180284793
C        -4.10149881437216   -1.96856534074820   -0.95436315515238
C        -2.80902445389089   -1.79460621373846   -0.50166915820993
C        -2.11506433892460   -0.60305013914450   -0.69198458522782
C        -0.70667990558852   -0.55515766204593   -0.14517477371253
C         0.39234864874541   -0.68792310408254   -1.22397782750990
C         1.04674673193974   -2.04953338423715   -1.14837780674237
C         0.69061875354958   -3.13258975020985   -1.95231507538321
C        -0.45147613116491   -3.17310948002533   -2.93332059657283
F        -1.49769438037359   -3.85402375013045   -2.39624295090411
F        -0.13228228875925   -3.83510528329424   -4.05470082793842
F        -0.97151932086939   -2.00660118592152   -3.33566814829848
C         1.35373081303739   -4.35245297801432   -1.81624936514235
C         2.36170028266809   -4.51020815081445   -0.88749246012333
C         2.69331457864129   -3.45122066818515   -0.05935215586463
C         2.03738622043989   -2.24335121092898   -0.18782139513462
N         1.33465063442677    0.37466539235830   -0.90806905353560
C         2.48337644705544    0.49717145544026   -1.62839162986095
C         3.35255103228593    1.62967990753515   -1.19470613032780
C         4.48533104519495    1.35540471086426   -0.44318087483827
C         5.30393943582292    2.39044792344530   -0.00960516555847
C         6.51553927803881    2.08735211820529    0.81873504496250
C         4.97513136007635    3.69293906598151   -0.35666628415212
C         3.85756909659567    3.98091987266697   -1.12923124197166
C         3.53401757322546    5.38959990502721   -1.52130909039413
C         3.04393893116714    2.93611360070810   -1.54490001231416
O         2.76288852811023   -0.28528306962186   -2.51084597915035
C         0.86891294775956    1.26437134777411    0.12305028111940
C         1.86038894807254    1.36156302638318    1.30353693101772
O         2.25106627502983    2.60396494279930    1.52129901720528
O         2.26992104718033    0.39707088217317    1.89303714418334
N        -0.36486331561018    0.65470915614537    0.57725769401606
C        -0.81982196029530    0.94818185019858    1.82698705101720
C        -2.04448745318415    0.18456185294749    2.20867682044859
C        -3.29965490380178    0.68284236982107    1.89313354858011
C        -4.43728393502318   -0.05586472948200    2.18462482141629
C        -5.79928294544163    0.45578806800111    1.82891196956118
C        -4.29342818202078   -1.28958110777778    2.80451595819197
C        -3.04570913018753   -1.78824145450287    3.15453329173685
C        -2.92838895063602   -3.12032771622017    3.83060594905684
C        -1.91722460185374   -1.04002513651698    2.84918873899633
O        -0.25731822527174    1.77126943388575    2.51807625674334
H        -4.57165079729531    1.06466242390232   -2.33121900196473
H        -5.75508405367367   -1.04806639955685   -1.96315168620644
H        -4.60292606837464   -2.90953252838285   -0.79208974750851
H        -2.31937376988539   -2.60497664118434    0.01646415181356
H        -0.61113803593445   -1.40612566186651    0.54482554134958
H         0.00478776891299   -0.50373803263408   -2.22786957055525
H         1.06935829675123   -5.17782451169848   -2.45133313153064
H         2.87429345219356   -5.45567777242743   -0.80453233939997
H         3.46319223696268   -3.56393246363768    0.68848549600260
H         2.29522862165487   -1.42732479104902    0.47106791667183
H         4.72165767368795    0.33272111034956   -0.18783593587481
H         6.23944012718235    1.50869189032234    1.69920397063666
H         7.00942975599449    3.00110983993651    1.13927373316141
H         7.22431839744448    1.49377180203540    0.24271060952739
H         5.60704920174241    4.50397570412347   -0.02192897455099
H         4.06892723895729    6.10111791292547   -0.89757447133582
H         2.46605223134653    5.57620894788722   -1.43398751246198
H         3.81997820438889    5.56149596324553   -2.55911381793630
H         2.17216730456340    3.13730277322834   -2.15053932963558
H         0.68897558171748    2.28640890549121   -0.24408563513722
H         2.82838371435552    2.65644764795848    2.29955941566108
H        -3.38507387464437    1.64950594348173    1.42136033198725
H        -5.73489417883412    1.42814910664052    1.34866192395940
H        -6.41532709640319    0.54831286524475    2.72202847794464
H        -6.29598278333762   -0.23655958121662    1.15044751510141
H        -5.17556416378344   -1.87266737623698    3.02944176584369
H        -3.56811834238447   -3.15808953799931    4.71036532740763
H        -3.24563531737201   -3.91489018417631    3.15544126908482
H        -1.90358788585891   -3.31392566235844    4.13583648036646
H        -0.93464079478941   -1.40461094173611    3.11404393257673

          :  Hamiltonian                  GFN2-xTB          :
         :: total energy            -143.000132204302 Eh    ::
         :: gradient norm              0.000287891457 Eh/a0 ::
         :: HOMO-LUMO gap              3.174595437889 eV    ::
         :: SCC energy              -144.808338316926 Eh    ::
         :: -> dispersion             -0.114942786062 Eh    ::
         :: repulsion energy           1.803439566480 Eh    ::

    * Orbital Energies and Occupations

         #    Occupation            Energy/Eh            Energy/eV
      -------------------------------------------------------------
         1        2.0000           -0.8848584             -24.0782
       ...           ...                  ...                  ...
       113        2.0000           -0.4401994             -11.9784
       114        2.0000           -0.4386436             -11.9361
       115        2.0000           -0.4361068             -11.8671
       116        2.0000           -0.4291078             -11.6766
       117        2.0000           -0.4276931             -11.6381
       118        2.0000           -0.4166950             -11.3388
       119        2.0000           -0.4113600             -11.1937
       120        2.0000           -0.4054284             -11.0323
       121        2.0000           -0.4035578             -10.9814
       122        2.0000           -0.4026567             -10.9568
       123        2.0000           -0.3966742             -10.7941
       124        2.0000           -0.3937521             -10.7145
       125        2.0000           -0.3920211             -10.6674 (HOMO)
       126                         -0.2753569              -7.4928 (LUMO)
       127                         -0.2657494              -7.2314
       128                         -0.2613489              -7.1117
       129                         -0.2524585              -6.8697
       130                         -0.2514864              -6.8433
       131                         -0.2378550              -6.4724
       132                         -0.2318829              -6.3099
       133                         -0.2315296              -6.3002
       134                         -0.2270874              -6.1794
       135                         -0.2231176              -6.0713
       136                         -0.2089698              -5.6864
       ...                                ...                  ...
       222                          0.6590349              17.9333
      -------------------------------------------------------------
                  HL-Gap            0.1166642 Eh            3.1746 eV

     #   Z          covCN         q      C6AA      Î±(0)
     1   6 C        2.974    -0.026    28.659     8.781
     2   6 C        3.336     0.488    17.262     6.580
     3   9 F        0.791    -0.209    11.332     3.976
     4   9 F        0.791    -0.212    11.355     3.981
     5   9 F        0.793    -0.203    11.271     3.966
     6   6 C        2.926    -0.022    28.550     8.763
     7   6 C        2.920    -0.021    28.533     8.760
     8   6 C        2.918    -0.015    28.380     8.736
     9   6 C        2.931    -0.026    28.662     8.780
    10   6 C        2.966     0.009    27.815     8.651
    11   6 C        3.818     0.042    19.851     6.341
    12   6 C        3.820     0.045    19.799     6.332
    13   6 C        2.969     0.021    27.527     8.606
    14   6 C        2.974    -0.030    28.754     8.796
    15   6 C        3.340     0.484    17.259     6.570
    16   9 F        0.792    -0.222    11.468     4.000
    17   9 F        0.792    -0.199    11.224     3.957
    18   9 F        0.792    -0.210    11.336     3.977
    19   6 C        2.931    -0.022    28.543     8.762
    20   6 C        2.918    -0.023    28.585     8.767
    21   6 C        2.919    -0.017    28.438     8.745
    22   6 C        2.927    -0.027    28.669     8.781
    23   7 N        2.765    -0.113    23.468     7.195
    24   6 C        2.766     0.273    22.381     7.748
    25   6 C        2.976    -0.023    28.580     8.769
    26   6 C        2.930    -0.041    29.014     8.834
    27   6 C        2.965     0.018    27.594     8.616
    28   6 C        3.758    -0.111    22.682     6.790
    29   6 C        2.930    -0.049    29.222     8.865
    30   6 C        2.965     0.024    27.468     8.597
    31   6 C        3.758    -0.112    22.696     6.792
    32   6 C        2.928    -0.043    29.069     8.842
    33   8 O        0.859    -0.419    22.062     6.298
    34   6 C        3.755     0.095    19.058     6.225
    35   6 C        2.688     0.368    20.753     7.455
    36   8 O        1.660    -0.348    19.870     6.018
    37   8 O        0.856    -0.406    21.800     6.260
    38   7 N        2.765    -0.119    23.577     7.212
    39   6 C        2.769     0.278    22.301     7.734
    40   6 C        2.977    -0.017    28.435     8.747
    41   6 C        2.928    -0.044    29.090     8.845
    42   6 C        2.965     0.019    27.587     8.615
    43   6 C        3.758    -0.113    22.707     6.794
    44   6 C        2.932    -0.051    29.274     8.873
    45   6 C        2.965     0.020    27.564     8.612
    46   6 C        3.758    -0.112    22.697     6.792
    47   6 C        2.928    -0.044    29.094     8.846
    48   8 O        0.859    -0.412    21.913     6.276
    49   1 H        0.926     0.071     2.077     2.254
    50   1 H        0.926     0.060     2.201     2.320
    51   1 H        0.926     0.062     2.181     2.309
    52   1 H        0.926     0.052     2.299     2.371
    53   1 H        0.923     0.056     2.245     2.343
    54   1 H        0.924     0.082     1.955     2.187
    55   1 H        0.926     0.061     2.182     2.310
    56   1 H        0.926     0.056     2.252     2.347
    57   1 H        0.926     0.057     2.230     2.335
    58   1 H        0.926     0.075     2.032     2.229
    59   1 H        0.926     0.038     2.478     2.462
    60   1 H        0.925     0.048     2.346     2.395
    61   1 H        0.925     0.044     2.396     2.421
    62   1 H        0.925     0.052     2.290     2.367
    63   1 H        0.925     0.036     2.499     2.472
    64   1 H        0.925     0.046     2.372     2.409
    65   1 H        0.925     0.050     2.314     2.379
    66   1 H        0.925     0.053     2.280     2.361
    67   1 H        0.926     0.038     2.482     2.464
    68   1 H        0.923     0.079     1.992     2.207
    69   1 H        0.804     0.348     0.594     1.210
    70   1 H        0.926     0.041     2.440     2.443
    71   1 H        0.925     0.046     2.374     2.410
    72   1 H        0.925     0.056     2.252     2.347
    73   1 H        0.925     0.047     2.358     2.402
    74   1 H        0.926     0.039     2.457     2.451
    75   1 H        0.925     0.053     2.284     2.363
    76   1 H        0.925     0.049     2.328     2.386
    77   1 H        0.925     0.047     2.363     2.404
    78   1 H        0.926     0.037     2.491     2.468

Wiberg/Mayer (AO) data.
largest (>0.10) Wiberg bond orders for each atom

     #   Z sym  total        # sym  WBO       # sym  WBO       # sym  WBO
 ---------------------------------------------------------------------------
     1   6 C    3.971 --     6 C    1.412    10 C    1.385     2 C    0.950
                             8 C    0.106
     2   6 C    3.822 --     5 F    0.951     1 C    0.950     3 F    0.944
                             4 F    0.938
     3   9 F    1.072 --     2 C    0.944
     4   9 F    1.068 --     2 C    0.938
     5   9 F    1.074 --     2 C    0.951
     6   6 C    3.987 --     7 C    1.443     1 C    1.412    49 H    0.965
                             9 C    0.109
     7   6 C    3.988 --     6 C    1.443     8 C    1.433    50 H    0.968
                            10 C    0.108
     8   6 C    3.989 --     9 C    1.447     7 C    1.433    51 H    0.968
                             1 C    0.106
     9   6 C    3.988 --     8 C    1.447    10 C    1.409    52 H    0.965
                             6 C    0.109
    10   6 C    3.986 --     9 C    1.409     1 C    1.385    11 C    0.991
                             7 C    0.108
    11   6 C    3.970 --    10 C    0.991    38 N    0.968    53 H    0.950
                            12 C    0.948
    12   6 C    3.967 --    13 C    0.989    23 N    0.965    54 H    0.949
                            11 C    0.948
    13   6 C    3.986 --    22 C    1.401    14 C    1.395    12 C    0.989
                            20 C    0.106
    14   6 C    3.966 --    19 C    1.399    13 C    1.395    15 C    0.951
                            21 C    0.105
    15   6 C    3.818 --    17 F    0.955    14 C    0.951    18 F    0.948
                            16 F    0.924
    16   9 F    1.053 --    15 C    0.924
    17   9 F    1.079 --    15 C    0.955
    18   9 F    1.077 --    15 C    0.948
    19   6 C    3.988 --    20 C    1.453    14 C    1.399    55 H    0.967
                            22 C    0.111
    20   6 C    3.989 --    19 C    1.453    21 C    1.425    56 H    0.969
                            13 C    0.106
    21   6 C    3.990 --    22 C    1.455    20 C    1.425    57 H    0.969
                            14 C    0.105
    22   6 C    3.986 --    21 C    1.455    13 C    1.401    58 H    0.957
                            19 C    0.111
    23   7 N    3.456 --    24 C    1.195    34 C    0.987    12 C    0.965
                            33 O    0.188
    24   6 C    3.941 --    33 O    1.700    23 N    1.195    25 C    0.960
    25   6 C    3.987 --    26 C    1.410    32 C    1.406    24 C    0.960
                            29 C    0.103
    26   6 C    3.990 --    25 C    1.410    27 C    1.405    59 H    0.969
                            30 C    0.106
    27   6 C    3.988 --    29 C    1.419    26 C    1.405    28 C    1.025
                            32 C    0.106
    28   6 C    3.995 --    27 C    1.025    61 H    0.985    60 H    0.974
                            62 H    0.971
    29   6 C    3.990 --    27 C    1.419    30 C    1.410    63 H    0.967
                            25 C    0.103
    30   6 C    3.988 --    32 C    1.411    29 C    1.410    31 C    1.026
                            26 C    0.106
    31   6 C    3.995 --    30 C    1.026    64 H    0.984    65 H    0.977
                            66 H    0.967
    32   6 C    3.989 --    30 C    1.411    25 C    1.406    67 H    0.968
                            27 C    0.106
    33   8 O    2.024 --    24 C    1.700    23 N    0.188
    34   6 C    3.962 --    23 N    0.987    38 N    0.974    68 H    0.942
                            35 C    0.908
    35   6 C    3.922 --    37 O    1.746    36 O    1.173    34 C    0.908
    36   8 O    2.235 --    35 C    1.173    69 H    0.853    37 O    0.177
    37   8 O    2.042 --    35 C    1.746    36 O    0.177
    38   7 N    3.446 --    39 C    1.199    34 C    0.974    11 C    0.968
                            48 O    0.184
    39   6 C    3.938 --    48 O    1.692    38 N    1.199    40 C    0.959
    40   6 C    3.987 --    41 C    1.408    47 C    1.406    39 C    0.959
                            44 C    0.108
    41   6 C    3.989 --    42 C    1.409    40 C    1.408    70 H    0.967
                            45 C    0.104
    42   6 C    3.988 --    44 C    1.416    41 C    1.409    43 C    1.025
                            47 C    0.104
    43   6 C    3.994 --    42 C    1.025    71 H    0.986    73 H    0.972
                            72 H    0.971
    44   6 C    3.990 --    42 C    1.416    45 C    1.415    74 H    0.968
                            40 C    0.108
    45   6 C    3.988 --    44 C    1.415    47 C    1.408    46 C    1.025
                            41 C    0.104
    46   6 C    3.994 --    45 C    1.025    77 H    0.985    75 H    0.974
                            76 H    0.970
    47   6 C    3.989 --    45 C    1.408    40 C    1.406    78 H    0.967
                            42 C    0.104
    48   8 O    2.052 --    39 C    1.692    38 N    0.184
    49   1 H    0.995 --     6 C    0.965
    50   1 H    0.995 --     7 C    0.968
    51   1 H    0.995 --     8 C    0.968
    52   1 H    0.997 --     9 C    0.965
    53   1 H    0.996 --    11 C    0.950
    54   1 H    0.993 --    12 C    0.949
    55   1 H    0.996 --    19 C    0.967
    56   1 H    0.996 --    20 C    0.969
    57   1 H    0.996 --    21 C    0.969
    58   1 H    0.994 --    22 C    0.957
    59   1 H    0.998 --    26 C    0.969
    60   1 H    0.998 --    28 C    0.974
    61   1 H    0.998 --    28 C    0.985
    62   1 H    0.997 --    28 C    0.971
    63   1 H    0.998 --    29 C    0.967
    64   1 H    0.997 --    31 C    0.984
    65   1 H    0.997 --    31 C    0.977
    66   1 H    0.997 --    31 C    0.967
    67   1 H    0.998 --    32 C    0.968
    68   1 H    0.993 --    34 C    0.942
    69   1 H    0.878 --    36 O    0.853
    70   1 H    0.998 --    41 C    0.967
    71   1 H    0.998 --    43 C    0.986
    72   1 H    0.997 --    43 C    0.971
    73   1 H    0.998 --    43 C    0.972
    74   1 H    0.998 --    44 C    0.968
    75   1 H    0.997 --    46 C    0.974
    76   1 H    0.997 --    46 C    0.970
    77   1 H    0.997 --    46 C    0.985
    78   1 H    0.998 --    47 C    0.967
 ---------------------------------------------------------------------------

molecular dipole:
                 x           y           z       tot (Debye)
 q only:       -0.831      -0.917       1.451
   full:       -0.858      -0.769       1.498       4.804

           -------------------------------------------------
          | TOTAL ENERGY             -143.000132204302 Eh   |
          | GRADIENT NORM               0.000287891457 Eh/Î± |
          | HOMO-LUMO GAP               3.174595437889 eV   |
           -------------------------------------------------

 * finished run on 2022/03/16 at 22:15:37.558
