   * xtb version 6.3.3 (4ae9cef) compiled by 'conda@95abc7406d43' on 2020-10-14
          program call               : xtb acid_177.xyz --opt --chrg 0 --uhf 0 --gfn 2
          number of atoms            :                    76
          number of electrons        :                   246
          charge                     :                     0
          spin                       :                   0.0

   ID    Z sym.   atoms
    1    6 C      1-22, 24-28, 32, 33, 35, 36, 40-44, 48, 49
    2    7 N      23, 29, 39, 45
    3    8 O      30, 31, 34, 37, 38, 46, 47, 50
    4    1 H      51-76

          :  Hamiltonian                  GFN2-xTB          :
 * total energy  :  -138.6774837 Eh     change       -0.9473808E-09 Eh
 * total energy  :  -138.6990912 Eh     change       -0.2160745E-01 Eh
 * total energy  :  -138.7050859 Eh     change       -0.5994746E-02 Eh
 * total energy  :  -138.7062526 Eh     change       -0.1166703E-02 Eh
 * total energy  :  -138.7075856 Eh     change       -0.1333037E-02 Eh
 * total energy  :  -138.7079943 Eh     change       -0.4086434E-03 Eh
 * total energy  :  -138.7083163 Eh     change       -0.3220412E-03 Eh
 * total energy  :  -138.7085017 Eh     change       -0.1854104E-03 Eh
 * total energy  :  -138.7087023 Eh     change       -0.2006030E-03 Eh
 * total energy  :  -138.7089103 Eh     change       -0.2079796E-03 Eh
 * total energy  :  -138.7097341 Eh     change       -0.1889538E-04 Eh
 * total energy  :  -138.7097524 Eh     change       -0.1833348E-04 Eh
 * total energy  :  -138.7097685 Eh     change       -0.1606071E-04 Eh
 * total energy  :  -138.7097887 Eh     change       -0.2015355E-04 Eh
 * total energy  :  -138.7098073 Eh     change       -0.1859969E-04 Eh
 * total energy  :  -138.7098219 Eh     change       -0.1459642E-04 Eh
 * total energy  :  -138.7098330 Eh     change       -0.1111244E-04 Eh
 * total energy  :  -138.7098387 Eh     change       -0.5730393E-05 Eh
 * total energy  :  -138.7098428 Eh     change       -0.4050496E-05 Eh
   *** GEOMETRY OPTIMIZATION CONVERGED AFTER 40 ITERATIONS ***

 final structure:
================
76
 xtb: 6.3.3 (4ae9cef)
C        -4.06893019740632   -4.57881704087092   -2.35988271198154
C        -4.67176847263334   -4.77932667807403   -1.15203241684252
C        -4.16891757815602   -4.13698874281883   -0.01212865519543
C        -3.07630970515428   -3.31929000464792   -0.09225063345111
C        -2.42020851180957   -3.08939371444913   -1.32207511389622
C        -2.94309641025038   -3.73644253624893   -2.47888464314227
C        -2.33979595870621   -3.53052506494456   -3.73565678320931
C        -1.25261813533354   -2.71507730274937   -3.85696717971290
C        -0.72647857189125   -2.08515781003184   -2.72316757552667
C        -1.27684567597447   -2.25631195187153   -1.47559646041624
C        -0.66115467893611   -1.52264801359729   -0.30491008517332
C         0.87689759977459   -1.64967397049362   -0.22106593797213
C         1.35917751821489   -2.35803048032202    1.02288897676737
C         1.93308080516167   -3.59492846901193    0.86862062636200
C         2.41823906517744   -4.32155643863103    1.96243237308331
C         2.33886677868912   -3.79605708351060    3.21931471689817
C         1.75213688633689   -2.53184403970158    3.42958487263667
C         1.23742606769160   -1.79875988262580    2.32394159435585
C         0.63226784846835   -0.55093921469038    2.59128275586209
C         0.56085029921680   -0.04870278248609    3.86096849144023
C         1.08751242297186   -0.76667078757060    4.94313457600704
C         1.66506855844663   -1.98472191441211    4.72728959354101
N         1.35995298744811   -0.27131003352142   -0.30349912447222
C         2.69560569652494   -0.00688142095841   -0.30655501206672
C         3.04656541574168    1.44895223658026   -0.35944477652093
C         3.83670709850125    1.92444533059711   -1.40018218970392
C         4.19566762944037    3.25773655994215   -1.44062642438670
C         3.77344846255479    4.10458670344910   -0.42351631631041
N         4.14384171887700    5.50108261127259   -0.46195077751593
O         4.81502060687443    5.87730108181003   -1.39724578289889
O         3.75565524693407    6.20745294026344    0.44238633054785
C         3.01046982142620    3.63439600223202    0.63890311470170
C         2.64784284474492    2.30239834098134    0.66756612148216
O         3.52972359295412   -0.87678777466605   -0.21277242223813
C         0.31646733320252    0.61320159714195   -0.75139194476762
C         0.43409805444994    0.90230829745605   -2.26767415854823
O        -0.71347586396632    1.33640746761586   -2.77103118776227
O         1.45396047290937    0.79809252820208   -2.88676657377445
N        -0.89204187904850   -0.07742817390874   -0.40039300134055
C        -2.04013859499126    0.47884153124145    0.06333808742938
C        -2.06770587079545    1.98049849742935    0.06452434120740
C        -1.49777700351410    2.68272712765313    1.12461810294859
C        -1.57164367829290    4.06137016215215    1.16282435603831
C        -2.22175114473019    4.73068564978982    0.13367191964515
N        -2.30179962346352    6.17444699568188    0.16853611223683
O        -1.84957687004440    6.73522753155314    1.14139938044031
O        -2.81528546043348    6.72734656224131   -0.77881368872631
C        -2.80766683924052    4.04061702672531   -0.91990492026087
C        -2.73336680004945    2.66129401437111   -0.94865028890713
O        -2.97149961069786   -0.18414531615670    0.45740722696813
H        -4.44548054765112   -5.06037320804033   -3.25104608467800
H        -5.53458968252465   -5.42304044070482   -1.06759484889624
H        -4.65532657547356   -4.28946815891889    0.93972044882239
H        -2.73933931040869   -2.83091430367394    0.80658979977411
H        -2.75439826174505   -4.03002363333614   -4.59914099786474
H        -0.78509656572560   -2.55320747499715   -4.81673415594147
H         0.14606273030696   -1.46141928250348   -2.85064941665467
H        -1.11409594149791   -1.85986001764610    0.62982944455618
H         1.26028059016262   -2.21111241742951   -1.08178319700605
H         2.02621642090176   -4.01898540031344   -0.12028136150766
H         2.86504221306728   -5.29002608891090    1.79702469879654
H         2.72394998278962   -4.33681467137142    4.07142818614550
H         0.20656573790626    0.01762792693103    1.78213977328611
H         0.09108984936490    0.90800723822412    4.04254207403305
H         1.02623319008277   -0.35336792873192    5.93858755614667
H         2.06673327147606   -2.55504736527879    5.55232044099678
H         4.15284735848643    1.24463437203826   -2.17454446054731
H         4.80020102144880    3.65493850194615   -2.24155054870047
H         2.71935828283870    4.31775176664477    1.42214280306100
H         2.07937371666542    1.91374725927111    1.50008520280744
H         0.37113420448373    1.59981049569401   -0.26528967962993
H        -0.63020990871369    1.52848860457384   -3.72084524554104
H        -1.01312739568714    2.14756684424570    1.92786431695389
H        -1.14097449212732    4.62918015597494    1.97359142280487
H        -3.31734735408635    4.59411522423508   -1.69369124613403
H        -3.19180223155098    2.10478984866512   -1.75030780896003

          :  Hamiltonian                  GFN2-xTB          :
         :: total energy            -138.709842753381 Eh    ::
         :: gradient norm              0.000695540563 Eh/a0 ::
         :: HOMO-LUMO gap              1.555472866496 eV    ::
         :: SCC energy              -140.706863445869 Eh    ::
         :: -> dispersion             -0.113011927991 Eh    ::
         :: repulsion energy           1.992843136166 Eh    ::

    * Orbital Energies and Occupations

         #    Occupation            Energy/Eh            Energy/eV
      -------------------------------------------------------------
         1        2.0000           -0.8017687             -21.8172
       ...           ...                  ...                  ...
       111        2.0000           -0.4429982             -12.0546
       112        2.0000           -0.4415553             -12.0153
       113        2.0000           -0.4386266             -11.9356
       114        2.0000           -0.4336170             -11.7993
       115        2.0000           -0.4321644             -11.7598
       116        2.0000           -0.4288758             -11.6703
       117        2.0000           -0.4220812             -11.4854
       118        2.0000           -0.4201313             -11.4324
       119        2.0000           -0.4180980             -11.3770
       120        2.0000           -0.4164657             -11.3326
       121        2.0000           -0.4161820             -11.3249
       122        2.0000           -0.3955008             -10.7621
       123        2.0000           -0.3923912             -10.6775 (HOMO)
       124                         -0.3352287              -9.1220 (LUMO)
       125                         -0.3311337              -9.0106
       126                         -0.2899047              -7.8887
       127                         -0.2798618              -7.6154
       128                         -0.2792517              -7.5988
       129                         -0.2762155              -7.5162
       130                         -0.2723422              -7.4108
       131                         -0.2629387              -7.1549
       132                         -0.2607439              -7.0952
       133                         -0.2459526              -6.6927
       134                         -0.2447881              -6.6610
       ...                                ...                  ...
       226                          0.6806449              18.5213
      -------------------------------------------------------------
                  HL-Gap            0.0571626 Eh            1.5555 eV

     #   Z          covCN         q      C6AA      Î±(0)
     1   6 C        2.922    -0.034    28.840     8.807
     2   6 C        2.915    -0.027    28.664     8.779
     3   6 C        2.917    -0.025    28.623     8.773
     4   6 C        2.916    -0.030    28.738     8.791
     5   6 C        2.982     0.014    27.703     8.634
     6   6 C        2.989     0.016    27.649     8.625
     7   6 C        2.921    -0.034    28.838     8.806
     8   6 C        2.913    -0.033    28.811     8.802
     9   6 C        2.923    -0.039    28.960     8.825
    10   6 C        2.964    -0.006    28.180     8.707
    11   6 C        3.822     0.037    19.936     6.354
    12   6 C        3.824     0.042    19.855     6.341
    13   6 C        2.965     0.001    28.012     8.681
    14   6 C        2.924    -0.027    28.676     8.782
    15   6 C        2.914    -0.026    28.640     8.776
    16   6 C        2.921    -0.033    28.811     8.802
    17   6 C        2.989     0.017    27.621     8.621
    18   6 C        2.983     0.011    27.762     8.643
    19   6 C        2.918    -0.039    28.982     8.828
    20   6 C        2.917    -0.030    28.741     8.791
    21   6 C        2.915    -0.029    28.722     8.788
    22   6 C        2.921    -0.031    28.778     8.797
    23   7 N        2.764    -0.116    23.532     7.205
    24   6 C        2.762     0.278    22.294     7.732
    25   6 C        2.976    -0.003    28.091     8.694
    26   6 C        2.923    -0.012    28.310     8.725
    27   6 C        2.918    -0.018    28.468     8.750
    28   6 C        2.917     0.004    27.935     8.667
    29   7 N        2.759     0.547    13.516     5.460
    30   8 O        0.930    -0.379    21.229     6.179
    31   8 O        0.930    -0.380    21.243     6.181
    32   6 C        2.917    -0.023    28.589     8.768
    33   6 C        2.923    -0.031    28.769     8.796
    34   8 O        0.859    -0.396    21.603     6.232
    35   6 C        3.758     0.091    19.115     6.233
    36   6 C        2.686     0.349    21.076     7.513
    37   8 O        1.659    -0.360    20.094     6.051
    38   8 O        0.856    -0.382    21.328     6.192
    39   7 N        2.764    -0.110    23.396     7.184
    40   6 C        2.761     0.274    22.366     7.745
    41   6 C        2.975    -0.003    28.095     8.694
    42   6 C        2.923    -0.026    28.662     8.780
    43   6 C        2.917    -0.021    28.542     8.761
    44   6 C        2.917     0.005    27.916     8.664
    45   7 N        2.759     0.548    13.504     5.458
    46   8 O        0.930    -0.375    21.154     6.168
    47   8 O        0.930    -0.379    21.230     6.179
    48   6 C        2.918    -0.019    28.482     8.752
    49   6 C        2.923    -0.018    28.448     8.747
    50   8 O        0.859    -0.400    21.686     6.244
    51   1 H        0.926     0.037     2.493     2.469
    52   1 H        0.926     0.037     2.489     2.467
    53   1 H        0.926     0.039     2.461     2.453
    54   1 H        0.926     0.046     2.369     2.407
    55   1 H        0.926     0.040     2.452     2.449
    56   1 H        0.926     0.036     2.506     2.476
    57   1 H        0.926     0.024     2.670     2.555
    58   1 H        0.924     0.076     2.021     2.223
    59   1 H        0.924     0.063     2.159     2.298
    60   1 H        0.926     0.039     2.458     2.452
    61   1 H        0.926     0.042     2.418     2.432
    62   1 H        0.926     0.041     2.432     2.439
    63   1 H        0.926     0.018     2.757     2.597
    64   1 H        0.926     0.026     2.643     2.542
    65   1 H        0.926     0.037     2.495     2.470
    66   1 H        0.926     0.039     2.466     2.456
    67   1 H        0.926     0.080     1.976     2.198
    68   1 H        0.926     0.089     1.886     2.147
    69   1 H        0.926     0.085     1.931     2.173
    70   1 H        0.926     0.052     2.301     2.372
    71   1 H        0.923     0.065     2.142     2.289
    72   1 H        0.804     0.351     0.587     1.203
    73   1 H        0.926     0.055     2.256     2.349
    74   1 H        0.926     0.088     1.899     2.155
    75   1 H        0.926     0.088     1.902     2.156
    76   1 H        0.926     0.067     2.120     2.277

Wiberg/Mayer (AO) data.
largest (>0.10) Wiberg bond orders for each atom

     #   Z sym  total        # sym  WBO       # sym  WBO       # sym  WBO
 ---------------------------------------------------------------------------
     1   6 C    3.991 --     2 C    1.558     6 C    1.278    51 H    0.968
                             4 C    0.119
     2   6 C    3.992 --     1 C    1.558     3 C    1.322    52 H    0.970
     3   6 C    3.991 --     4 C    1.555     2 C    1.322    53 H    0.971
     4   6 C    3.991 --     3 C    1.555     5 C    1.283    54 H    0.958
                             1 C    0.119
     5   6 C    3.988 --     4 C    1.283    10 C    1.256     6 C    1.249
     6   6 C    3.990 --     7 C    1.283     1 C    1.278     5 C    1.249
     7   6 C    3.989 --     8 C    1.549     6 C    1.283    55 H    0.967
                            10 C    0.115
     8   6 C    3.992 --     7 C    1.549     9 C    1.329    56 H    0.970
     9   6 C    3.991 --    10 C    1.522     8 C    1.329    57 H    0.961
    10   6 C    3.983 --     9 C    1.522     5 C    1.256    11 C    0.987
                             7 C    0.115
    11   6 C    3.953 --    10 C    0.987    12 C    0.958    58 H    0.946
                            39 N    0.942
    12   6 C    3.956 --    13 C    0.990    11 C    0.958    23 N    0.950
                            59 H    0.949
    13   6 C    3.983 --    14 C    1.523    18 C    1.254    12 C    0.990
                            16 C    0.115
    14   6 C    3.989 --    13 C    1.523    15 C    1.327    60 H    0.967
    15   6 C    3.991 --    16 C    1.553    14 C    1.327    61 H    0.970
    16   6 C    3.990 --    15 C    1.553    17 C    1.279    62 H    0.968
                            13 C    0.115
    17   6 C    3.990 --    22 C    1.281    16 C    1.279    18 C    1.252
    18   6 C    3.989 --    19 C    1.283    13 C    1.254    17 C    1.252
    19   6 C    3.992 --    20 C    1.554    18 C    1.283    63 H    0.962
                            22 C    0.118
    20   6 C    3.992 --    19 C    1.554    21 C    1.322    64 H    0.970
    21   6 C    3.992 --    22 C    1.557    20 C    1.322    65 H    0.971
    22   6 C    3.991 --    21 C    1.557    17 C    1.281    66 H    0.968
                            19 C    0.118
    23   7 N    3.449 --    24 C    1.193    35 C    0.994    12 C    0.950
                            34 O    0.190
    24   6 C    3.950 --    34 O    1.713    23 N    1.193    25 C    0.960
    25   6 C    3.986 --    26 C    1.402    33 C    1.391    24 C    0.960
    26   6 C    3.986 --    27 C    1.451    25 C    1.402    67 H    0.964
                            32 C    0.106
    27   6 C    3.984 --    26 C    1.451    28 C    1.386    68 H    0.959
                            33 C    0.104
    28   6 C    3.964 --    27 C    1.386    32 C    1.380    29 N    0.959
    29   7 N    3.912 --    30 O    1.456    31 O    1.455    28 C    0.959
    30   8 O    1.940 --    29 N    1.456    31 O    0.366
    31   8 O    1.939 --    29 N    1.455    30 O    0.366
    32   6 C    3.985 --    33 C    1.459    28 C    1.380    69 H    0.959
                            26 C    0.106
    33   6 C    3.990 --    32 C    1.459    25 C    1.391    70 H    0.966
                            27 C    0.104
    34   8 O    2.043 --    24 C    1.713    23 N    0.190
    35   6 C    3.977 --    39 N    0.997    23 N    0.994    71 H    0.922
                            36 C    0.902
    36   6 C    3.919 --    38 O    1.779    37 O    1.162    35 C    0.902
    37   8 O    2.223 --    36 C    1.162    72 H    0.851    38 O    0.183
    38   8 O    2.067 --    36 C    1.779    37 O    0.183
    39   7 N    3.472 --    40 C    1.210    35 C    0.997    11 C    0.942
                            50 O    0.196
    40   6 C    3.950 --    50 O    1.707    39 N    1.210    41 C    0.950
    41   6 C    3.986 --    49 C    1.402    42 C    1.395    40 C    0.950
    42   6 C    3.990 --    43 C    1.455    41 C    1.395    73 H    0.965
                            48 C    0.105
    43   6 C    3.984 --    42 C    1.455    44 C    1.384    74 H    0.959
                            49 C    0.106
    44   6 C    3.965 --    48 C    1.387    43 C    1.384    45 N    0.956
    45   7 N    3.913 --    46 O    1.459    47 O    1.456    44 C    0.956
    46   8 O    1.945 --    45 N    1.459    47 O    0.368
    47   8 O    1.941 --    45 N    1.456    46 O    0.368
    48   6 C    3.984 --    49 C    1.451    44 C    1.387    75 H    0.959
                            42 C    0.105
    49   6 C    3.988 --    48 C    1.451    41 C    1.402    76 H    0.966
                            43 C    0.106
    50   8 O    2.040 --    40 C    1.707    39 N    0.196
    51   1 H    0.998 --     1 C    0.968
    52   1 H    0.998 --     2 C    0.970
    53   1 H    0.998 --     3 C    0.971
    54   1 H    0.997 --     4 C    0.958
    55   1 H    0.997 --     7 C    0.967
    56   1 H    0.998 --     8 C    0.970
    57   1 H    0.999 --     9 C    0.961
    58   1 H    0.994 --    11 C    0.946
    59   1 H    0.995 --    12 C    0.949
    60   1 H    0.998 --    14 C    0.967
    61   1 H    0.997 --    15 C    0.970
    62   1 H    0.997 --    16 C    0.968
    63   1 H    0.999 --    19 C    0.962
    64   1 H    0.999 --    20 C    0.970
    65   1 H    0.998 --    21 C    0.971
    66   1 H    0.998 --    22 C    0.968
    67   1 H    0.993 --    26 C    0.964
    68   1 H    0.992 --    27 C    0.959
    69   1 H    0.992 --    32 C    0.959
    70   1 H    0.997 --    33 C    0.966
    71   1 H    0.995 --    35 C    0.922
    72   1 H    0.876 --    37 O    0.851
    73   1 H    0.996 --    42 C    0.965
    74   1 H    0.992 --    43 C    0.959
    75   1 H    0.992 --    48 C    0.959
    76   1 H    0.995 --    49 C    0.966
 ---------------------------------------------------------------------------

molecular dipole:
                 x           y           z       tot (Debye)
 q only:       -1.214      -3.698      -0.368
   full:       -1.246      -3.370      -0.597       9.258

           -------------------------------------------------
          | TOTAL ENERGY             -138.709842753381 Eh   |
          | GRADIENT NORM               0.000695540563 Eh/Î± |
          | HOMO-LUMO GAP               1.555472866496 eV   |
           -------------------------------------------------

 * finished run on 2022/03/16 at 22:07:07.490
