   * xtb version 6.3.3 (4ae9cef) compiled by 'conda@95abc7406d43' on 2020-10-14
          program call               : xtb acid_212.xyz --opt --chrg 0 --uhf 0 --gfn 2
          number of atoms            :                    66
          number of electrons        :                   238
          charge                     :                     0
          spin                       :                   0.0

   ID    Z sym.   atoms
    1    6 C      1, 2, 6-15, 19-22, 24-29, 31, 33, 34, 38-41, 43-45
    2    9 F      3-5, 16-18, 30, 42
    3    7 N      23, 37
    4    8 O      32, 35, 36, 46
    5    1 H      47-66

          :  Hamiltonian                  GFN2-xTB          :
 * total energy  :  -138.7335269 Eh     change       -0.1223640E-08 Eh
 * total energy  :  -138.7483640 Eh     change       -0.1483711E-01 Eh
 * total energy  :  -138.7524205 Eh     change       -0.4056424E-02 Eh
 * total energy  :  -138.7534816 Eh     change       -0.1061142E-02 Eh
 * total energy  :  -138.7542046 Eh     change       -0.7230291E-03 Eh
 * total energy  :  -138.7547443 Eh     change       -0.5396981E-03 Eh
 * total energy  :  -138.7552925 Eh     change       -0.5481928E-03 Eh
 * total energy  :  -138.7557466 Eh     change       -0.4540650E-03 Eh
 * total energy  :  -138.7560850 Eh     change       -0.3384232E-03 Eh
 * total energy  :  -138.7563367 Eh     change       -0.2517166E-03 Eh
 * total energy  :  -138.7586469 Eh     change       -0.3460581E-04 Eh
 * total energy  :  -138.7586696 Eh     change       -0.2268682E-04 Eh
 * total energy  :  -138.7586827 Eh     change       -0.1311796E-04 Eh
 * total energy  :  -138.7586958 Eh     change       -0.1309851E-04 Eh
 * total energy  :  -138.7587099 Eh     change       -0.1404915E-04 Eh
 * total energy  :  -138.7587214 Eh     change       -0.1155642E-04 Eh
 * total energy  :  -138.7587298 Eh     change       -0.8358644E-05 Eh
 * total energy  :  -138.7587356 Eh     change       -0.5834469E-05 Eh
 * total energy  :  -138.7587396 Eh     change       -0.4026588E-05 Eh
   *** GEOMETRY OPTIMIZATION CONVERGED AFTER 39 ITERATIONS ***

 final structure:
================
66
 xtb: 6.3.3 (4ae9cef)
C         0.51937255872278   -3.43039693671337    1.62008967645219
C         0.76272274878137   -4.41316779548869    0.50562780318069
F        -0.06610191893493   -4.24285985804167   -0.54717064769123
F         2.00729506410169   -4.32606765594089   -0.00039944669348
F         0.60765130175086   -5.68481757969210    0.88821281589810
C         0.28816933997012   -3.92231413157706    2.89808723881425
C         0.08732334102490   -3.05248998643127    3.95403130870382
C         0.12877200235922   -1.68812583677108    3.73419410922591
C         0.35879353501464   -1.19918778927139    2.46125583780492
C         0.55308351506442   -2.05269662898193    1.38472084119317
C         0.75390281475782   -1.50298547275011   -0.01043033481811
C        -0.60031322358162   -1.41520773751662   -0.75188601222780
C        -0.51121891426333   -1.56247437798239   -2.25799551048193
C        -1.67097431415435   -1.69466050887125   -3.03616686664842
C        -3.04658654239990   -1.61463891586741   -2.42547183559123
F        -3.26615718536590   -2.47822800540975   -1.43240713057057
F        -4.02428688460389   -1.81498347219514   -3.31606851273521
F        -3.27681170029424   -0.37043615566568   -1.92142762612296
C        -1.59089443116520   -1.83489580920525   -4.41575419378657
C        -0.36210310913420   -1.83895248901447   -5.04903776804758
C         0.78706437180611   -1.68432238418270   -4.29853963140866
C         0.70983831030099   -1.54799780909897   -2.92313221808142
N        -1.05319567245286   -0.06671984197445   -0.38144214899747
C        -1.97675465125140    0.04486826654481    0.65076877791124
C        -2.14501342312200    1.42681587693061    1.19072576211871
C        -2.39860785073104    2.52519606841699    0.37396628455271
C        -2.56208675275526    3.78208480107816    0.93128687178623
C        -2.46336815499277    3.96298721342921    2.30004959715389
C        -2.22933158678369    2.85716957539247    3.09906305450830
F        -2.13627494556988    3.01944873624984    4.43046081427522
C        -2.08064754611670    1.58874599579101    2.57034945915261
O        -2.61065068820410   -0.89835032009595    1.04978933250254
C         0.12619432659599    0.75891755536623   -0.45160447576679
C         0.37208804413338    1.25145466982216   -1.90589700215546
O        -0.73867711771850    1.44645566981085   -2.60865128094105
O         1.46410697528740    1.48181383033892   -2.32751015868434
N         1.19052301087802   -0.11088300163957    0.00892911334858
C         2.48366712810298    0.22673016023233    0.27987667026035
C         2.74893720150291    1.69433547496045    0.39021574521475
C         3.69731419809494    2.27790865427910   -0.43710223411403
C         3.96260396580495    3.62678449148058   -0.29171115353497
F         4.87137832060634    4.20401839539689   -1.09715552023586
C         3.32903049846213    4.40438388749332    0.66181777694059
C         2.40586350093447    3.80360736730567    1.49947550149418
C         2.11493855071048    2.45720651170871    1.36644960798520
O         3.32872540743652   -0.61917373706067    0.46302323336117
H         0.26661714496046   -4.98803154112456    3.06361755858816
H        -0.09439953843076   -3.44196322860045    4.94304167383078
H        -0.01564868525180   -1.00170550295510    4.55485591892872
H         0.40163665995403   -0.13253899323909    2.30262461820933
H         1.49516882915167   -2.11335793056087   -0.52829678664613
H        -1.31827073331070   -2.12982444790936   -0.34118130003058
H        -2.49572040181078   -1.93835641032228   -4.99371342936048
H        -0.30985036945398   -1.95093192689686   -6.12014323442429
H         1.75345362706932   -1.66429822510993   -4.77685644544870
H         1.63143918931617   -1.41579575498126   -2.38142431004950
H        -2.50247830041470    2.39675877115719   -0.69235913042993
H        -2.76557593840032    4.62739258015094    0.29283436958351
H        -2.57786021508481    4.93566359221457    2.75085767650224
H        -1.92192020571707    0.73941082216872    3.21619805555423
H         0.03360575081638    1.66018551041530    0.16860218378094
H        -1.53045896006418    1.11008274094832   -2.15146343801293
H         4.20729996773556    1.69720054611466   -1.18750534908075
H         3.56787752842398    5.45257622542806    0.74532432099236
H         1.91305310920441    4.38717406850738    2.26217637627897
H         1.41272712268002    1.99645513998321    2.04730614672462

          :  Hamiltonian                  GFN2-xTB          :
         :: total energy            -138.758739627930 Eh    ::
         :: gradient norm              0.000265998898 Eh/a0 ::
         :: HOMO-LUMO gap              3.270921498166 eV    ::
         :: SCC energy              -140.356871148898 Eh    ::
         :: -> dispersion             -0.100116758837 Eh    ::
         :: repulsion energy           1.593851635440 Eh    ::

    * Orbital Energies and Occupations

         #    Occupation            Energy/Eh            Energy/eV
      -------------------------------------------------------------
         1        2.0000           -0.8919497             -24.2712
       ...           ...                  ...                  ...
       107        2.0000           -0.4593042             -12.4983
       108        2.0000           -0.4574681             -12.4483
       109        2.0000           -0.4535469             -12.3416
       110        2.0000           -0.4520732             -12.3015
       111        2.0000           -0.4499681             -12.2443
       112        2.0000           -0.4483933             -12.2014
       113        2.0000           -0.4458732             -12.1328
       114        2.0000           -0.4383526             -11.9282
       115        2.0000           -0.4373340             -11.9005
       116        2.0000           -0.4336166             -11.7993
       117        2.0000           -0.4276856             -11.6379
       118        2.0000           -0.4200339             -11.4297
       119        2.0000           -0.4153876             -11.3033 (HOMO)
       120                         -0.2951834              -8.0323 (LUMO)
       121                         -0.2850402              -7.7563
       122                         -0.2757241              -7.5028
       123                         -0.2734095              -7.4399
       124                         -0.2712963              -7.3823
       125                         -0.2697143              -7.3393
       126                         -0.2684099              -7.3038
       127                         -0.2640947              -7.1864
       128                         -0.2533756              -6.8947
       129                         -0.2431940              -6.6176
       130                         -0.2245993              -6.1117
       ...                                ...                  ...
       204                          0.6464577              17.5910
      -------------------------------------------------------------
                  HL-Gap            0.1202042 Eh            3.2709 eV

     #   Z          covCN         q      C6AA      Î±(0)
     1   6 C        2.977    -0.029    28.722     8.791
     2   6 C        3.335     0.485    17.314     6.591
     3   9 F        0.791    -0.219    11.432     3.994
     4   9 F        0.791    -0.207    11.302     3.971
     5   9 F        0.792    -0.197    11.208     3.955
     6   6 C        2.923    -0.019    28.477     8.751
     7   6 C        2.920    -0.020    28.514     8.757
     8   6 C        2.919    -0.017    28.425     8.743
     9   6 C        2.926    -0.022    28.555     8.763
    10   6 C        2.971     0.016    27.649     8.625
    11   6 C        3.828     0.040    19.877     6.344
    12   6 C        3.857     0.036    19.929     6.349
    13   6 C        2.965     0.005    27.908     8.665
    14   6 C        2.977    -0.033    28.818     8.806
    15   6 C        3.335     0.486    17.291     6.587
    16   9 F        0.791    -0.192    11.155     3.945
    17   9 F        0.792    -0.199    11.220     3.957
    18   9 F        0.790    -0.232    11.568     4.018
    19   6 C        2.924    -0.021    28.542     8.761
    20   6 C        2.919    -0.019    28.476     8.751
    21   6 C        2.919    -0.013    28.337     8.729
    22   6 C        2.925    -0.027    28.687     8.783
    23   7 N        2.764    -0.156    24.379     7.333
    24   6 C        2.765     0.279    22.280     7.730
    25   6 C        2.978    -0.016    28.414     8.744
    26   6 C        2.919    -0.039    28.962     8.825
    27   6 C        2.923    -0.024    28.604     8.771
    28   6 C        2.917    -0.043    29.077     8.843
    29   6 C        2.786     0.177    24.198     8.057
    30   9 F        0.787    -0.212    11.363     3.982
    31   6 C        2.922    -0.042    29.046     8.838
    32   8 O        0.858    -0.377    21.229     6.177
    33   6 C        3.787     0.073    19.380     6.270
    34   6 C        2.685     0.346    21.128     7.522
    35   8 O        1.659    -0.355    20.001     6.037
    36   8 O        0.856    -0.347    20.658     6.094
    37   7 N        2.765    -0.126    23.742     7.237
    38   6 C        2.760     0.277    22.316     7.736
    39   6 C        2.979    -0.011    28.285     8.724
    40   6 C        2.921    -0.032    28.803     8.801
    41   6 C        2.787     0.178    24.164     8.052
    42   9 F        0.787    -0.212    11.359     3.981
    43   6 C        2.917    -0.046    29.147     8.853
    44   6 C        2.923    -0.029    28.722     8.789
    45   6 C        2.921    -0.041    29.007     8.832
    46   8 O        0.859    -0.403    21.745     6.252
    47   1 H        0.926     0.071     2.074     2.252
    48   1 H        0.926     0.061     2.184     2.311
    49   1 H        0.926     0.056     2.244     2.343
    50   1 H        0.926     0.037     2.485     2.465
    51   1 H        0.924     0.087     1.910     2.161
    52   1 H        0.924     0.101     1.772     2.082
    53   1 H        0.926     0.071     2.070     2.250
    54   1 H        0.926     0.064     2.154     2.295
    55   1 H        0.926     0.067     2.115     2.274
    56   1 H        0.926     0.066     2.134     2.285
    57   1 H        0.926     0.049     2.335     2.389
    58   1 H        0.926     0.061     2.185     2.311
    59   1 H        0.926     0.072     2.061     2.245
    60   1 H        0.926     0.075     2.028     2.227
    61   1 H        0.923     0.068     2.112     2.273
    62   1 H        0.804     0.342     0.607     1.224
    63   1 H        0.926     0.084     1.933     2.174
    64   1 H        0.926     0.067     2.119     2.276
    65   1 H        0.926     0.051     2.313     2.378
    66   1 H        0.926     0.030     2.583     2.513

Wiberg/Mayer (AO) data.
largest (>0.10) Wiberg bond orders for each atom

     #   Z sym  total        # sym  WBO       # sym  WBO       # sym  WBO
 ---------------------------------------------------------------------------
     1   6 C    3.970 --     6 C    1.421    10 C    1.377     2 C    0.950
                             8 C    0.107
     2   6 C    3.823 --     5 F    0.959     1 C    0.950     4 F    0.942
                             3 F    0.933
     3   9 F    1.060 --     2 C    0.933
     4   9 F    1.073 --     2 C    0.942
     5   9 F    1.082 --     2 C    0.959
     6   6 C    3.987 --     7 C    1.437     1 C    1.421    47 H    0.965
                             9 C    0.108
     7   6 C    3.988 --     8 C    1.440     6 C    1.437    48 H    0.968
                            10 C    0.109
     8   6 C    3.990 --     7 C    1.440     9 C    1.439    49 H    0.969
                             1 C    0.107
     9   6 C    3.991 --     8 C    1.439    10 C    1.419    50 H    0.963
                             6 C    0.108
    10   6 C    3.987 --     9 C    1.419     1 C    1.377    11 C    0.990
                             7 C    0.109
    11   6 C    3.966 --    10 C    0.990    37 N    0.966    12 C    0.957
                            51 H    0.941
    12   6 C    3.960 --    13 C    0.990    11 C    0.957    23 N    0.950
                            52 H    0.942
    13   6 C    3.985 --    22 C    1.422    14 C    1.373    12 C    0.990
                            20 C    0.108
    14   6 C    3.969 --    19 C    1.423    13 C    1.373    15 C    0.949
                            21 C    0.107
    15   6 C    3.821 --    16 F    0.961    17 F    0.958    14 C    0.949
                            18 F    0.915
    16   9 F    1.093 --    15 C    0.961
    17   9 F    1.081 --    15 C    0.958
    18   9 F    1.047 --    15 C    0.915
    19   6 C    3.987 --    20 C    1.434    14 C    1.423    53 H    0.965
                            22 C    0.106
    20   6 C    3.988 --    21 C    1.444    19 C    1.434    54 H    0.968
                            13 C    0.108
    21   6 C    3.988 --    20 C    1.444    22 C    1.433    55 H    0.968
                            14 C    0.107
    22   6 C    3.988 --    21 C    1.433    13 C    1.422    56 H    0.959
                            19 C    0.106
    23   7 N    3.390 --    24 C    1.127    33 C    0.992    12 C    0.950
                            32 O    0.168
    24   6 C    3.942 --    32 O    1.757    23 N    1.127    25 C    0.976
    25   6 C    3.987 --    31 C    1.400    26 C    1.395    24 C    0.976
                            28 C    0.106
    26   6 C    3.990 --    27 C    1.443    25 C    1.395    57 H    0.964
    27   6 C    3.990 --    26 C    1.443    28 C    1.440    58 H    0.968
                            31 C    0.109
    28   6 C    3.988 --    27 C    1.440    29 C    1.392    59 H    0.965
                            25 C    0.106
    29   6 C    3.892 --    31 C    1.400    28 C    1.392    30 F    0.970
    30   9 F    1.106 --    29 C    0.970
    31   6 C    3.987 --    29 C    1.400    25 C    1.400    60 H    0.963
                            27 C    0.109
    32   8 O    2.073 --    24 C    1.757    23 N    0.168
    33   6 C    3.968 --    23 N    0.992    37 N    0.979    61 H    0.927
                            34 C    0.901
    34   6 C    3.927 --    36 O    1.803    35 O    1.158    33 C    0.901
    35   8 O    2.229 --    34 C    1.158    62 H    0.838    36 O    0.172
    36   8 O    2.095 --    34 C    1.803    35 O    0.172
    37   7 N    3.445 --    38 C    1.186    33 C    0.979    11 C    0.966
                            46 O    0.188
    38   6 C    3.947 --    46 O    1.712    37 N    1.186    39 C    0.965
    39   6 C    3.988 --    40 C    1.410    45 C    1.398    38 C    0.965
                            43 C    0.108
    40   6 C    3.986 --    39 C    1.410    41 C    1.397    63 H    0.962
                            44 C    0.109
    41   6 C    3.893 --    40 C    1.397    43 C    1.394    42 F    0.970
    42   9 F    1.106 --    41 C    0.970
    43   6 C    3.989 --    44 C    1.439    41 C    1.394    64 H    0.966
                            39 C    0.108
    44   6 C    3.991 --    45 C    1.442    43 C    1.439    65 H    0.969
                            40 C    0.109
    45   6 C    3.991 --    44 C    1.442    39 C    1.398    66 H    0.966
    46   8 O    2.035 --    38 C    1.712    37 N    0.188
    47   1 H    0.994 --     6 C    0.965
    48   1 H    0.995 --     7 C    0.968
    49   1 H    0.996 --     8 C    0.969
    50   1 H    0.998 --     9 C    0.963
    51   1 H    0.992 --    11 C    0.941
    52   1 H    0.989 --    12 C    0.942
    53   1 H    0.994 --    19 C    0.965
    54   1 H    0.995 --    20 C    0.968
    55   1 H    0.995 --    21 C    0.968
    56   1 H    0.995 --    22 C    0.959
    57   1 H    0.998 --    26 C    0.964
    58   1 H    0.996 --    27 C    0.968
    59   1 H    0.994 --    28 C    0.965
    60   1 H    0.994 --    31 C    0.963
    61   1 H    0.995 --    33 C    0.927
    62   1 H    0.883 --    35 O    0.838
    63   1 H    0.993 --    40 C    0.962
    64   1 H    0.995 --    43 C    0.966
    65   1 H    0.997 --    44 C    0.969
    66   1 H    0.999 --    45 C    0.966
 ---------------------------------------------------------------------------

molecular dipole:
                 x           y           z       tot (Debye)
 q only:       -0.776       1.297       0.125
   full:       -1.095       1.445       0.359       4.698

           -------------------------------------------------
          | TOTAL ENERGY             -138.758739627930 Eh   |
          | GRADIENT NORM               0.000265998898 Eh/Î± |
          | HOMO-LUMO GAP               3.270921498166 eV   |
           -------------------------------------------------

 * finished run on 2022/03/16 at 22:36:03.180
