   * xtb version 6.3.3 (4ae9cef) compiled by 'conda@95abc7406d43' on 2020-10-14
          program call               : xtb acid_29.xyz --opt --chrg 0 --uhf 0 --gfn 2
          number of atoms            :                    68
          number of electrons        :                   222
          charge                     :                     0
          spin                       :                   0.0

   ID    Z sym.   atoms
    1    6 C      1-22, 24-29, 33, 34, 38-43
    2    7 N      23, 30, 37, 44
    3    8 O      31, 32, 35, 36, 45, 46
    4    1 H      47-68

          :  Hamiltonian                  GFN2-xTB          :
 * total energy  :  -124.3232599 Eh     change       -0.1708273E-08 Eh
 * total energy  :  -124.3416256 Eh     change       -0.1836574E-01 Eh
 * total energy  :  -124.3470920 Eh     change       -0.5466329E-02 Eh
 * total energy  :  -124.3476540 Eh     change       -0.5619903E-03 Eh
 * total energy  :  -124.3486915 Eh     change       -0.1037518E-02 Eh
 * total energy  :  -124.3491401 Eh     change       -0.4486275E-03 Eh
 * total energy  :  -124.3493384 Eh     change       -0.1982760E-03 Eh
 * total energy  :  -124.3495674 Eh     change       -0.2290018E-03 Eh
 * total energy  :  -124.3497985 Eh     change       -0.2311364E-03 Eh
 * total energy  :  -124.3500381 Eh     change       -0.2395775E-03 Eh
 * total energy  :  -124.3586603 Eh     change       -0.2516866E-04 Eh
 * total energy  :  -124.3586895 Eh     change       -0.2917973E-04 Eh
 * total energy  :  -124.3587102 Eh     change       -0.2069333E-04 Eh
 * total energy  :  -124.3587312 Eh     change       -0.2101380E-04 Eh
 * total energy  :  -124.3587596 Eh     change       -0.2845840E-04 Eh
 * total energy  :  -124.3587758 Eh     change       -0.1613562E-04 Eh
 * total energy  :  -124.3587847 Eh     change       -0.8921393E-05 Eh
 * total energy  :  -124.3587932 Eh     change       -0.8488767E-05 Eh
 * total energy  :  -124.3587975 Eh     change       -0.4263366E-05 Eh
   *** GEOMETRY OPTIMIZATION CONVERGED AFTER 57 ITERATIONS ***

 final structure:
================
68
 xtb: 6.3.3 (4ae9cef)
C        -0.14816427536760    5.45094266863076   -1.10753020743406
C         0.14846686757827    5.19667121936573   -2.41635334985763
C         0.05525347418289    3.88825687885018   -2.91032193685487
C        -0.31248328982804    2.85783145141999   -2.08981005772502
C        -0.60155416159673    3.07872912659451   -0.72532979435663
C        -0.53268733364108    4.41130779922873   -0.23508608199401
C        -0.85465454823607    4.67537087866022    1.11247759558520
C        -1.23961709089045    3.66341725792506    1.94176469630442
C        -1.28888269265311    2.34402632901869    1.46894683414951
C        -0.96494208472568    2.03767200520486    0.17391989482632
C        -0.95906191883341    0.60806648052956   -0.32652006075737
C         0.47878820899947    0.10006450130039   -0.58816106353675
C         0.65487194346672   -0.52184682423548   -1.95434444586689
C        -0.10242075694674   -1.63033853178736   -2.24698736213063
C        -0.00846135429805   -2.27637304296668   -3.48448431311394
C         0.84808316293076   -1.79931732614082   -4.43459045090440
C         1.64473052841190   -0.66500927507398   -4.17935649864135
C         1.56397770810770   -0.00916724897964   -2.91803656278530
C         2.39065992765769    1.11687023133236   -2.70762778177053
C         3.23229794272310    1.57061652058557   -3.68379606479341
C         3.30095735180121    0.92724066201292   -4.92765368465070
C         2.52456559676508   -0.16976656244642   -5.16542482104668
N         0.68421728239743   -0.91347281798592    0.44271628108826
C         1.91146048590644   -1.44725670349350    0.65644792402434
C         1.94042791636000   -2.46500180179858    1.75544274643884
C         1.33046511232131   -3.69052137143814    1.86307745707446
C         1.75144905497521   -4.23654057838691    3.08960724540237
C         2.59279767715148   -3.29973563797254    3.64560663607408
C         3.27354903482920   -3.32473804869694    4.87277085705289
N         3.81498268691136   -3.36229973548848    5.88260517476244
O         2.70628992847871   -2.22901509163255    2.82764069711950
O         2.88459198983427   -1.15439742038041    0.00292293295903
C        -0.45197343992307   -1.06680118416500    1.30565153322587
C        -0.21833597425410   -0.45954483948131    2.71382436654574
O         0.88437652203249    0.26924173406984    2.77108205117539
O        -0.97151183656913   -0.63259965854557    3.63150423026860
N        -1.50077948112450   -0.35271795932320    0.62303347667806
C        -2.84252595611308   -0.40452449830138    0.84505674725674
C        -3.34331294793832   -1.36566468513049    1.84859853981628
C        -4.52961441162587   -1.28247335964436    2.54120921914705
C        -4.58150916591303   -2.40728191101747    3.38010944915897
C        -3.42516260001970   -3.11314279386944    3.13295749720766
C        -2.95659001442707   -4.31784301089576    3.67955639533250
N        -2.57416795023147   -5.30446752784178    4.12198894517050
O        -2.67936929586952   -2.48097776735141    2.20057359675293
O        -3.61008149527569    0.32285778264332    0.24680238731097
H        -0.09643583031186    6.45693578883128   -0.71651511191592
H         0.44442768960858    5.99738649229619   -3.07759580600311
H         0.27529410655153    3.69352758417003   -3.94950460783355
H        -0.38719168505381    1.86509832891812   -2.50246683007082
H        -0.80001905529113    5.69296256693521    1.47052285404545
H        -1.50599701536818    3.86264420618139    2.96904797856909
H        -1.60904358500336    1.57192146319785    2.15295114103668
H        -1.57891671717325    0.54912674632019   -1.22854058793631
H         1.20182439943102    0.90271388523754   -0.42659947612692
H        -0.79076911644060   -2.01665213811977   -1.50794127846242
H        -0.61795981720941   -3.14658799450472   -3.67678457815087
H         0.92973820746060   -2.28432225795910   -5.39646840984182
H         2.37243303053569    1.63695796745156   -1.76369452942882
H         3.85451232641993    2.43340173024638   -3.49767371355970
H         3.97152453317053    1.30154889215273   -5.68684226450980
H         2.56993464406634   -0.68139126683548   -6.11618892149505
H         0.68219978957908   -4.15301598830670    1.14672185212623
H         1.47443776191766   -5.18037992699409    3.51232898329657
H        -0.71902762649707   -2.12166688860629    1.44398827466605
H         1.01676809557035    0.65642778081009    3.65274349674216
H        -5.25364974796814   -0.49965829417105    2.44936472896236
H        -5.35348271552018   -2.67332699015124    4.07266593621708

          :  Hamiltonian                  GFN2-xTB          :
         :: total energy            -124.358797457794 Eh    ::
         :: gradient norm              0.000927499937 Eh/a0 ::
         :: HOMO-LUMO gap              2.290189076623 eV    ::
         :: SCC energy              -126.304780440422 Eh    ::
         :: -> dispersion             -0.102832346494 Eh    ::
         :: repulsion energy           1.943197220317 Eh    ::

    * Orbital Energies and Occupations

         #    Occupation            Energy/Eh            Energy/eV
      -------------------------------------------------------------
         1        2.0000           -0.7937791             -21.5998
       ...           ...                  ...                  ...
        99        2.0000           -0.4342283             -11.8160
       100        2.0000           -0.4317471             -11.7484
       101        2.0000           -0.4310356             -11.7291
       102        2.0000           -0.4290933             -11.6762
       103        2.0000           -0.4290066             -11.6739
       104        2.0000           -0.4267599             -11.6127
       105        2.0000           -0.4231771             -11.5152
       106        2.0000           -0.4172288             -11.3534
       107        2.0000           -0.4151468             -11.2967
       108        2.0000           -0.4138488             -11.2614
       109        2.0000           -0.4116329             -11.2011
       110        2.0000           -0.3919174             -10.6646
       111        2.0000           -0.3891063             -10.5881 (HOMO)
       112                         -0.3049434              -8.2979 (LUMO)
       113                         -0.2896961              -7.8830
       114                         -0.2830765              -7.7029
       115                         -0.2756116              -7.4998
       116                         -0.2723891              -7.4121
       117                         -0.2523902              -6.8679
       118                         -0.2489093              -6.7732
       119                         -0.2427980              -6.6069
       120                         -0.2421508              -6.5893
       121                         -0.2401157              -6.5339
       122                         -0.2338957              -6.3646
       ...                                ...                  ...
       206                          1.1647039              31.6932
      -------------------------------------------------------------
                  HL-Gap            0.0841629 Eh            2.2902 eV

     #   Z          covCN         q      C6AA      Î±(0)
     1   6 C        2.921    -0.033    28.821     8.804
     2   6 C        2.915    -0.027    28.682     8.782
     3   6 C        2.917    -0.026    28.655     8.778
     4   6 C        2.917    -0.037    28.925     8.819
     5   6 C        2.986     0.008    27.841     8.655
     6   6 C        2.988     0.017    27.630     8.622
     7   6 C        2.920    -0.035    28.861     8.810
     8   6 C        2.914    -0.030    28.743     8.791
     9   6 C        2.920    -0.030    28.747     8.792
    10   6 C        2.966    -0.002    28.069     8.690
    11   6 C        3.825     0.042    19.858     6.341
    12   6 C        3.823     0.042    19.850     6.340
    13   6 C        2.968    -0.002    28.069     8.690
    14   6 C        2.924    -0.036    28.893     8.815
    15   6 C        2.913    -0.030    28.758     8.794
    16   6 C        2.921    -0.033    28.829     8.805
    17   6 C        2.989     0.017    27.625     8.622
    18   6 C        2.982     0.016    27.645     8.625
    19   6 C        2.917    -0.028    28.698     8.785
    20   6 C        2.917    -0.026    28.640     8.776
    21   6 C        2.915    -0.027    28.673     8.781
    22   6 C        2.921    -0.033    28.819     8.803
    23   7 N        2.769    -0.106    23.328     7.173
    24   6 C        2.757     0.271    22.421     7.754
    25   6 C        3.117     0.089    25.864     8.330
    26   6 C        3.019    -0.062    29.528     8.914
    27   6 C        3.013    -0.046    29.111     8.851
    28   6 C        3.120     0.122    25.164     8.216
    29   6 C        1.894     0.112    28.346     8.599
    30   7 N        0.911    -0.197    25.277     7.271
    31   8 O        1.729    -0.159    16.690     5.516
    32   8 O        0.859    -0.388    21.440     6.208
    33   6 C        3.753     0.085    19.221     6.252
    34   6 C        2.687     0.353    21.008     7.501
    35   8 O        1.659    -0.349    19.878     6.019
    36   8 O        0.856    -0.393    21.544     6.223
    37   7 N        2.765    -0.103    23.258     7.163
    38   6 C        2.758     0.263    22.563     7.779
    39   6 C        3.109     0.098    25.689     8.304
    40   6 C        3.020    -0.039    28.949     8.826
    41   6 C        3.010    -0.041    29.008     8.835
    42   6 C        3.115     0.131    24.984     8.188
    43   6 C        1.894     0.112    28.350     8.599
    44   7 N        0.911    -0.198    25.298     7.274
    45   8 O        1.728    -0.181    17.027     5.572
    46   8 O        0.860    -0.410    21.872     6.270
    47   1 H        0.926     0.038     2.475     2.460
    48   1 H        0.926     0.037     2.489     2.467
    49   1 H        0.926     0.035     2.517     2.481
    50   1 H        0.926     0.032     2.563     2.504
    51   1 H        0.926     0.040     2.449     2.447
    52   1 H        0.926     0.037     2.494     2.469
    53   1 H        0.926     0.020     2.738     2.588
    54   1 H        0.924     0.082     1.956     2.187
    55   1 H        0.924     0.072     2.069     2.249
    56   1 H        0.925     0.025     2.656     2.548
    57   1 H        0.926     0.037     2.495     2.470
    58   1 H        0.926     0.040     2.452     2.449
    59   1 H        0.926     0.035     2.521     2.483
    60   1 H        0.926     0.036     2.499     2.472
    61   1 H        0.926     0.036     2.499     2.472
    62   1 H        0.926     0.037     2.489     2.467
    63   1 H        0.926     0.050     2.319     2.381
    64   1 H        0.926     0.067     2.124     2.279
    65   1 H        0.924     0.085     1.932     2.174
    66   1 H        0.804     0.350     0.589     1.205
    67   1 H        0.927     0.074     2.037     2.232
    68   1 H        0.926     0.065     2.142     2.289

Wiberg/Mayer (AO) data.
largest (>0.10) Wiberg bond orders for each atom

     #   Z sym  total        # sym  WBO       # sym  WBO       # sym  WBO
 ---------------------------------------------------------------------------
     1   6 C    3.991 --     2 C    1.555     6 C    1.281    47 H    0.968
                             4 C    0.119
     2   6 C    3.992 --     1 C    1.555     3 C    1.325    48 H    0.970
     3   6 C    3.992 --     4 C    1.551     2 C    1.325    49 H    0.971
     4   6 C    3.992 --     3 C    1.551     5 C    1.286    50 H    0.963
                             1 C    0.119
     5   6 C    3.989 --     4 C    1.286     6 C    1.256    10 C    1.245
     6   6 C    3.990 --     1 C    1.281     7 C    1.275     5 C    1.256
     7   6 C    3.990 --     8 C    1.560     6 C    1.275    51 H    0.968
                            10 C    0.114
     8   6 C    3.992 --     7 C    1.560     9 C    1.317    52 H    0.970
     9   6 C    3.991 --    10 C    1.535     8 C    1.317    53 H    0.964
    10   6 C    3.982 --     9 C    1.535     5 C    1.245    11 C    0.983
                             7 C    0.114
    11   6 C    3.955 --    10 C    0.983    37 N    0.961    12 C    0.955
                            54 H    0.943
    12   6 C    3.954 --    13 C    0.986    11 C    0.955    23 N    0.948
                            55 H    0.946
    13   6 C    3.982 --    14 C    1.519    18 C    1.257    12 C    0.986
                            16 C    0.115
    14   6 C    3.991 --    13 C    1.519    15 C    1.332    56 H    0.969
    15   6 C    3.992 --    16 C    1.548    14 C    1.332    57 H    0.970
    16   6 C    3.990 --    15 C    1.548    17 C    1.283    58 H    0.968
                            13 C    0.115
    17   6 C    3.990 --    16 C    1.283    22 C    1.278    18 C    1.250
    18   6 C    3.988 --    19 C    1.280    13 C    1.257    17 C    1.250
    19   6 C    3.992 --    20 C    1.557    18 C    1.280    59 H    0.959
                            22 C    0.119
    20   6 C    3.990 --    19 C    1.557    21 C    1.320    60 H    0.971
    21   6 C    3.992 --    22 C    1.559    20 C    1.320    61 H    0.970
    22   6 C    3.991 --    21 C    1.559    17 C    1.278    62 H    0.968
                            19 C    0.119
    23   7 N    3.473 --    24 C    1.215    33 C    0.995    12 C    0.948
                            32 O    0.203
    24   6 C    3.958 --    32 O    1.708    23 N    1.215    25 C    0.950
    25   6 C    3.914 --    26 C    1.523    31 O    1.152    24 C    0.950
                            28 C    0.128
    26   6 C    3.982 --    25 C    1.523    27 C    1.338    63 H    0.972
    27   6 C    3.985 --    28 C    1.481    26 C    1.338    64 H    0.972
    28   6 C    3.907 --    27 C    1.481    29 C    1.109    31 O    1.094
                            25 C    0.128
    29   6 C    3.955 --    30 N    2.799    28 C    1.109
    30   7 N    3.007 --    29 C    2.799
    31   8 O    2.466 --    25 C    1.152    28 C    1.094
    32   8 O    2.046 --    24 C    1.708    23 N    0.203
    33   6 C    3.969 --    23 N    0.995    37 N    0.985    65 H    0.931
                            34 C    0.900
    34   6 C    3.919 --    36 O    1.769    35 O    1.175    33 C    0.900
    35   8 O    2.241 --    34 C    1.175    66 H    0.851    36 O    0.187
    36   8 O    2.056 --    34 C    1.769    35 O    0.187
    37   7 N    3.473 --    38 C    1.196    33 C    0.985    11 C    0.961
                            46 O    0.191
    38   6 C    3.957 --    46 O    1.665    37 N    1.196    39 C    1.006
    39   6 C    3.913 --    40 C    1.504    45 O    1.125    38 C    1.006
                            42 C    0.124
    40   6 C    3.983 --    39 C    1.504    41 C    1.351    67 H    0.970
    41   6 C    3.985 --    42 C    1.472    40 C    1.351    68 H    0.972
    42   6 C    3.908 --    41 C    1.472    43 C    1.109    45 O    1.093
                            39 C    0.124
    43   6 C    3.955 --    44 N    2.797    42 C    1.109
    44   7 N    3.001 --    43 C    2.797
    45   8 O    2.448 --    39 C    1.125    42 C    1.093
    46   8 O    2.013 --    38 C    1.665    37 N    0.191
    47   1 H    0.998 --     1 C    0.968
    48   1 H    0.998 --     2 C    0.970
    49   1 H    0.998 --     3 C    0.971
    50   1 H    0.999 --     4 C    0.963
    51   1 H    0.997 --     7 C    0.968
    52   1 H    0.998 --     8 C    0.970
    53   1 H    0.999 --     9 C    0.964
    54   1 H    0.992 --    11 C    0.943
    55   1 H    0.994 --    12 C    0.946
    56   1 H    0.999 --    14 C    0.969
    57   1 H    0.998 --    15 C    0.970
    58   1 H    0.997 --    16 C    0.968
    59   1 H    0.998 --    19 C    0.959
    60   1 H    0.998 --    20 C    0.971
    61   1 H    0.998 --    21 C    0.970
    62   1 H    0.998 --    22 C    0.968
    63   1 H    0.996 --    26 C    0.972
    64   1 H    0.995 --    27 C    0.972
    65   1 H    0.992 --    33 C    0.931
    66   1 H    0.877 --    35 O    0.851
    67   1 H    0.993 --    40 C    0.970
    68   1 H    0.995 --    41 C    0.972
 ---------------------------------------------------------------------------

molecular dipole:
                 x           y           z       tot (Debye)
 q only:       -0.536       1.174      -1.311
   full:       -0.926       1.344      -1.447       5.543

           -------------------------------------------------
          | TOTAL ENERGY             -124.358797457794 Eh   |
          | GRADIENT NORM               0.000927499937 Eh/Î± |
          | HOMO-LUMO GAP               2.290189076623 eV   |
           -------------------------------------------------

 * finished run on 2022/03/16 at 23:25:57.947
