   * xtb version 6.3.3 (4ae9cef) compiled by 'conda@95abc7406d43' on 2020-10-14
          program call               : xtb acid_369.xyz --opt --chrg 0 --uhf 0 --gfn 2
          number of atoms            :                    66
          number of electrons        :                   190
          charge                     :                     0
          spin                       :                   0.0

   ID    Z sym.   atoms
    1    6 C      1-14, 16-23, 25, 26, 30-37
    2    7 N      15, 29
    3    8 O      24, 27, 28, 38
    4    1 H      39-66

          :  Hamiltonian                  GFN2-xTB          :
 * total energy  :  -104.9390387 Eh     change       -0.9815722E-09 Eh
 * total energy  :  -104.9512497 Eh     change       -0.1221096E-01 Eh
 * total energy  :  -104.9549344 Eh     change       -0.3684758E-02 Eh
 * total energy  :  -104.9561526 Eh     change       -0.1218153E-02 Eh
 * total energy  :  -104.9569618 Eh     change       -0.8092038E-03 Eh
 * total energy  :  -104.9574369 Eh     change       -0.4751080E-03 Eh
 * total energy  :  -104.9577926 Eh     change       -0.3557452E-03 Eh
 * total energy  :  -104.9580719 Eh     change       -0.2792074E-03 Eh
 * total energy  :  -104.9583457 Eh     change       -0.2738550E-03 Eh
 * total energy  :  -104.9586034 Eh     change       -0.2576565E-03 Eh
 * total energy  :  -104.9604480 Eh     change       -0.1044933E-04 Eh
 * total energy  :  -104.9604588 Eh     change       -0.1076247E-04 Eh
 * total energy  :  -104.9604702 Eh     change       -0.1142959E-04 Eh
 * total energy  :  -104.9604800 Eh     change       -0.9804244E-05 Eh
 * total energy  :  -104.9604864 Eh     change       -0.6417558E-05 Eh
 * total energy  :  -104.9604935 Eh     change       -0.7123234E-05 Eh
 * total energy  :  -104.9605016 Eh     change       -0.8108507E-05 Eh
 * total energy  :  -104.9605099 Eh     change       -0.8230730E-05 Eh
 * total energy  :  -104.9605121 Eh     change       -0.2256877E-05 Eh
   *** GEOMETRY OPTIMIZATION CONVERGED AFTER 44 ITERATIONS ***

 final structure:
================
66
 xtb: 6.3.3 (4ae9cef)
C         2.02339501870981   -2.23746080043188    1.84306078544515
C         2.13868924101448   -2.76164263328459    3.11783237852308
C         1.23496914497673   -2.39988384883691    4.10135424570220
C         0.20957931865222   -1.51815001464221    3.80403798075610
C         0.09528773553945   -0.99302868758270    2.53058412289730
C         1.00682757329075   -1.34256097718773    1.54211251207223
C         0.88736037255992   -0.76032354396937    0.15492992720551
C        -0.41065467959572   -1.22681637215441   -0.54188997351848
C        -0.30316513128363   -1.60623519605869   -2.00265305924864
C         0.71964224309832   -1.18061354717372   -2.83914048353997
C         0.70865662569844   -1.51755820554790   -4.18307768887016
C        -0.32393635144244   -2.27371798005554   -4.70773619385435
C        -1.35233425943932   -2.69478389823028   -3.88076787487072
C        -1.34075829178496   -2.36434481417205   -2.53873182177615
N        -1.29765207136136   -0.07243578532996   -0.41136005322559
C        -2.61496463964618   -0.20549948330310   -0.10552069462351
C        -3.35663526840091    1.07991825946648    0.06932922752535
C        -4.25225416801971    1.48952790064440   -0.91990676134652
C        -4.44630674789558    0.65693818596163   -2.14819608244932
C        -4.95026997756748    2.67360648299412   -0.72830906127169
C        -4.77768165485947    3.42779595626137    0.41934697940295
C        -3.90459737331712    3.00233132951936    1.40485511315512
C        -3.19497454951984    1.82762353725544    1.22847335628911
O        -3.13471196717498   -1.29817084725080   -0.00758554568262
C        -0.49299196630271    1.11341407128591   -0.41690749113263
C        -0.22827822366332    1.64978390949608   -1.83554846730612
O        -1.36140429852922    1.84319516624686   -2.50346016865201
O         0.85895467640002    1.88647836058317   -2.27858349606230
N         0.74657296703282    0.68943005657153    0.19071028832100
C         1.51604805610092    1.57998263720641    0.87388251543173
C         2.75128245658458    0.99841246058577    1.47959615919016
C         2.80249234895553    0.89430417037988    2.86553958777226
C         3.89927287089571    0.32937841331025    3.48527844753723
C         4.96181761546214   -0.11851705394872    2.71790445120205
C         4.93033437847583    0.02616786234797    1.34425627345313
C         3.83280907254216    0.59000353378462    0.70179216719235
C         3.86278345525313    0.77242104938664   -0.78664097541747
O         1.17903143148960    2.74021414411764    0.99133269204463
H         2.73392078111498   -2.51665152033417    1.07869591902652
H         2.93849986925049   -3.45076251489372    3.34366913110685
H         1.32752057292514   -2.80517359742332    5.09777507579783
H        -0.50220553246878   -1.23814040153225    4.56630133299339
H        -0.70421538908044   -0.30332536792153    2.30248227062863
H         1.76702655475652   -1.05037815000101   -0.42663614488239
H        -0.87304429283660   -2.05718768440249    0.00373440743701
H         1.52918106012409   -0.57363232315892   -2.46537927104405
H         1.51222629970371   -1.18000302582100   -4.82083879521878
H        -0.32878432699142   -2.53197433982317   -5.75632527905601
H        -2.16501905938146   -3.28186877198131   -4.28189701652141
H        -2.14605293996984   -2.68242690760204   -1.89368010474895
H        -4.78576806450039   -0.33945731190361   -1.86948306161597
H        -5.17983327385822    1.10798821835265   -2.81136478032347
H        -3.50395928867976    0.54670172715645   -2.68317426717125
H        -5.64255178511741    3.00653256527759   -1.48828061253315
H        -5.33126509678200    4.34607225993448    0.54789554977601
H        -3.77392279862329    3.58084128943968    2.30661676827696
H        -2.52274031499604    1.48443656021145    2.00294037765197
H        -0.94205443410866    1.94071409916290    0.15123169840504
H        -1.18381415005966    2.21243942740834   -3.38452411369139
H         1.96720603506758    1.25027632692461    3.44980832662495
H         3.92600312595573    0.23907998356604    4.56046244921815
H         5.82165176017453   -0.56782272949272    3.19263497961933
H         5.77272645322523   -0.29947454173014    0.75012398009157
H         2.95914199798211    1.24954989266883   -1.15625736337702
H         4.71020831437646    1.40119782689715   -1.05840374956920
H         3.99767893988353   -0.18673378722693   -1.28832302516904

          :  Hamiltonian                  GFN2-xTB          :
         :: total energy            -104.960512130164 Eh    ::
         :: gradient norm              0.000299867797 Eh/a0 ::
         :: HOMO-LUMO gap              3.543808581680 eV    ::
         :: SCC energy              -106.618241277332 Eh    ::
         :: -> dispersion             -0.096560216054 Eh    ::
         :: repulsion energy           1.654301830337 Eh    ::

    * Orbital Energies and Occupations

         #    Occupation            Energy/Eh            Energy/eV
      -------------------------------------------------------------
         1        2.0000           -0.7709014             -20.9773
       ...           ...                  ...                  ...
        83        2.0000           -0.4283922             -11.6571
        84        2.0000           -0.4202688             -11.4361
        85        2.0000           -0.4153751             -11.3029
        86        2.0000           -0.4142361             -11.2719
        87        2.0000           -0.4132177             -11.2442
        88        2.0000           -0.4104906             -11.1700
        89        2.0000           -0.4054516             -11.0329
        90        2.0000           -0.4040114             -10.9937
        91        2.0000           -0.4005358             -10.8991
        92        2.0000           -0.3995637             -10.8727
        93        2.0000           -0.3975832             -10.8188
        94        2.0000           -0.3939259             -10.7193
        95        2.0000           -0.3902237             -10.6185 (HOMO)
        96                         -0.2599911              -7.0747 (LUMO)
        97                         -0.2417040              -6.5771
        98                         -0.2380609              -6.4780
        99                         -0.2365554              -6.4370
       100                         -0.2339844              -6.3670
       101                         -0.2332085              -6.3459
       102                         -0.2317327              -6.3058
       103                         -0.2271821              -6.1819
       104                         -0.2260720              -6.1517
       105                         -0.2119361              -5.7671
       106                         -0.2040161              -5.5516
       ...                                ...                  ...
       180                          0.6608320              17.9822
      -------------------------------------------------------------
                  HL-Gap            0.1302326 Eh            3.5438 eV

     #   Z          covCN         q      C6AA      Î±(0)
     1   6 C        2.924    -0.034    28.856     8.809
     2   6 C        2.920    -0.026    28.661     8.779
     3   6 C        2.921    -0.028    28.706     8.786
     4   6 C        2.920    -0.026    28.653     8.778
     5   6 C        2.924    -0.029    28.715     8.788
     6   6 C        2.974    -0.002    28.062     8.689
     7   6 C        3.818     0.033    20.009     6.366
     8   6 C        3.840     0.037    19.926     6.350
     9   6 C        2.971    -0.003    28.091     8.694
    10   6 C        2.921    -0.040    28.986     8.829
    11   6 C        2.920    -0.030    28.743     8.792
    12   6 C        2.919    -0.030    28.761     8.794
    13   6 C        2.919    -0.028    28.701     8.785
    14   6 C        2.927    -0.035    28.861     8.810
    15   7 N        2.769    -0.114    23.481     7.197
    16   6 C        2.760     0.277    22.321     7.737
    17   6 C        2.982    -0.027    28.667     8.783
    18   6 C        2.969     0.027    27.389     8.584
    19   6 C        3.758    -0.113    22.711     6.794
    20   6 C        2.925    -0.037    28.916     8.818
    21   6 C        2.919    -0.029    28.713     8.787
    22   6 C        2.919    -0.032    28.790     8.799
    23   6 C        2.922    -0.030    28.744     8.792
    24   8 O        0.859    -0.428    22.240     6.323
    25   6 C        3.778     0.094    19.049     6.218
    26   6 C        2.688     0.355    20.966     7.494
    27   8 O        1.659    -0.365    20.191     6.066
    28   8 O        0.856    -0.381    21.311     6.189
    29   7 N        2.770    -0.117    23.550     7.207
    30   6 C        2.765     0.277    22.320     7.737
    31   6 C        2.981    -0.023    28.569     8.768
    32   6 C        2.925    -0.023    28.586     8.768
    33   6 C        2.919    -0.032    28.801     8.801
    34   6 C        2.919    -0.030    28.739     8.791
    35   6 C        2.927    -0.039    28.976     8.828
    36   6 C        2.967     0.019    27.583     8.615
    37   6 C        3.757    -0.112    22.698     6.793
    38   8 O        0.859    -0.433    22.345     6.338
    39   1 H        0.926     0.031     2.577     2.510
    40   1 H        0.926     0.038     2.474     2.460
    41   1 H        0.926     0.039     2.466     2.456
    42   1 H        0.926     0.040     2.453     2.449
    43   1 H        0.926     0.031     2.575     2.509
    44   1 H        0.924     0.059     2.210     2.325
    45   1 H        0.924     0.078     2.001     2.212
    46   1 H        0.926     0.042     2.427     2.436
    47   1 H        0.926     0.037     2.495     2.470
    48   1 H        0.926     0.035     2.518     2.481
    49   1 H        0.926     0.038     2.476     2.461
    50   1 H        0.926     0.056     2.247     2.344
    51   1 H        0.925     0.064     2.152     2.294
    52   1 H        0.925     0.044     2.400     2.423
    53   1 H        0.925     0.049     2.333     2.389
    54   1 H        0.926     0.038     2.482     2.464
    55   1 H        0.926     0.037     2.486     2.465
    56   1 H        0.926     0.039     2.459     2.452
    57   1 H        0.925     0.029     2.600     2.522
    58   1 H        0.923     0.094     1.843     2.123
    59   1 H        0.804     0.343     0.606     1.222
    60   1 H        0.926     0.036     2.499     2.472
    61   1 H        0.926     0.035     2.512     2.479
    62   1 H        0.926     0.035     2.514     2.480
    63   1 H        0.926     0.037     2.491     2.468
    64   1 H        0.925     0.059     2.211     2.325
    65   1 H        0.925     0.054     2.271     2.356
    66   1 H        0.924     0.041     2.433     2.439

Wiberg/Mayer (AO) data.
largest (>0.10) Wiberg bond orders for each atom

     #   Z sym  total        # sym  WBO       # sym  WBO       # sym  WBO
 ---------------------------------------------------------------------------
     1   6 C    3.990 --     2 C    1.442     6 C    1.415    39 H    0.968
                             4 C    0.110
     2   6 C    3.992 --     1 C    1.442     3 C    1.441    40 H    0.971
                             5 C    0.111
     3   6 C    3.990 --     2 C    1.441     4 C    1.435    41 H    0.971
                             6 C    0.109
     4   6 C    3.992 --     5 C    1.448     3 C    1.435    42 H    0.971
                             1 C    0.110
     5   6 C    3.992 --     4 C    1.448     6 C    1.409    43 H    0.968
                             2 C    0.111
     6   6 C    3.986 --     1 C    1.415     5 C    1.409     7 C    0.988
                             3 C    0.109
     7   6 C    3.966 --     6 C    0.988    29 N    0.963     8 C    0.962
                            44 H    0.949
     8   6 C    3.961 --     9 C    0.984     7 C    0.962    45 H    0.951
                            15 N    0.950
     9   6 C    3.985 --    10 C    1.422    14 C    1.404     8 C    0.984
                            12 C    0.109
    10   6 C    3.991 --    11 C    1.436     9 C    1.422    46 H    0.962
                            13 C    0.110
    11   6 C    3.992 --    12 C    1.445    10 C    1.436    47 H    0.971
                            14 C    0.113
    12   6 C    3.991 --    11 C    1.445    13 C    1.433    48 H    0.971
                             9 C    0.109
    13   6 C    3.992 --    14 C    1.452    12 C    1.433    49 H    0.970
                            10 C    0.110
    14   6 C    3.989 --    13 C    1.452     9 C    1.404    50 H    0.966
                            11 C    0.113
    15   7 N    3.471 --    16 C    1.205    25 C    0.993     8 C    0.950
                            24 O    0.188
    16   6 C    3.941 --    24 O    1.687    15 N    1.205    17 C    0.961
    17   6 C    3.986 --    23 C    1.412    18 C    1.371    16 C    0.961
                            21 C    0.108
    18   6 C    3.988 --    20 C    1.415    17 C    1.371    19 C    1.029
                            22 C    0.107
    19   6 C    3.995 --    18 C    1.029    52 H    0.986    53 H    0.968
                            51 H    0.968
    20   6 C    3.991 --    21 C    1.442    18 C    1.415    54 H    0.968
                            23 C    0.108
    21   6 C    3.992 --    20 C    1.442    22 C    1.438    55 H    0.971
                            17 C    0.108
    22   6 C    3.991 --    21 C    1.438    23 C    1.436    56 H    0.970
                            18 C    0.107
    23   6 C    3.991 --    22 C    1.436    17 C    1.412    57 H    0.968
                            20 C    0.108
    24   8 O    2.013 --    16 C    1.687    15 N    0.188
    25   6 C    3.970 --    15 N    0.993    29 N    0.984    58 H    0.922
                            26 C    0.914
    26   6 C    3.917 --    28 O    1.782    27 O    1.151    25 C    0.914
    27   8 O    2.216 --    26 C    1.151    59 H    0.856    28 O    0.179
    28   8 O    2.065 --    26 C    1.782    27 O    0.179
    29   7 N    3.459 --    30 C    1.200    25 C    0.984     7 C    0.963
                            38 O    0.187
    30   6 C    3.942 --    38 O    1.690    29 N    1.200    31 C    0.964
    31   6 C    3.986 --    32 C    1.399    36 C    1.385    30 C    0.964
                            34 C    0.106
    32   6 C    3.991 --    33 C    1.450    31 C    1.399    60 H    0.969
                            35 C    0.111
    33   6 C    3.992 --    32 C    1.450    34 C    1.427    61 H    0.970
                            36 C    0.107
    34   6 C    3.992 --    35 C    1.454    33 C    1.427    62 H    0.971
                            31 C    0.106
    35   6 C    3.991 --    34 C    1.454    36 C    1.405    63 H    0.969
                            32 C    0.111
    36   6 C    3.988 --    35 C    1.405    31 C    1.385    37 C    1.026
                            33 C    0.107
    37   6 C    3.994 --    36 C    1.026    64 H    0.978    66 H    0.971
                            65 H    0.969
    38   8 O    2.011 --    30 C    1.690    29 N    0.187
    39   1 H    0.999 --     1 C    0.968
    40   1 H    0.998 --     2 C    0.971
    41   1 H    0.998 --     3 C    0.971
    42   1 H    0.998 --     4 C    0.971
    43   1 H    0.999 --     5 C    0.968
    44   1 H    0.996 --     7 C    0.949
    45   1 H    0.993 --     8 C    0.951
    46   1 H    0.998 --    10 C    0.962
    47   1 H    0.998 --    11 C    0.971
    48   1 H    0.998 --    12 C    0.971
    49   1 H    0.998 --    13 C    0.970
    50   1 H    0.997 --    14 C    0.966
    51   1 H    0.996 --    19 C    0.968
    52   1 H    0.998 --    19 C    0.986
    53   1 H    0.997 --    19 C    0.968
    54   1 H    0.998 --    20 C    0.968
    55   1 H    0.998 --    21 C    0.971
    56   1 H    0.997 --    22 C    0.970
    57   1 H    0.999 --    23 C    0.968
    58   1 H    0.991 --    25 C    0.922
    59   1 H    0.882 --    27 O    0.856
    60   1 H    0.999 --    32 C    0.969
    61   1 H    0.998 --    33 C    0.970
    62   1 H    0.998 --    34 C    0.971
    63   1 H    0.998 --    35 C    0.969
    64   1 H    0.996 --    37 C    0.978
    65   1 H    0.997 --    37 C    0.969
    66   1 H    0.998 --    37 C    0.971
 ---------------------------------------------------------------------------

molecular dipole:
                 x           y           z       tot (Debye)
 q only:        0.218      -0.815      -0.720
   full:        0.251      -0.650      -0.793       2.683

           -------------------------------------------------
          | TOTAL ENERGY             -104.960512130164 Eh   |
          | GRADIENT NORM               0.000299867797 Eh/Î± |
          | HOMO-LUMO GAP               3.543808581680 eV   |
           -------------------------------------------------

 * finished run on 2022/03/17 at 00:21:07.373
