   * xtb version 6.3.3 (4ae9cef) compiled by 'conda@95abc7406d43' on 2020-10-14
          program call               : xtb alk_13.xyz --opt --chrg 0 --uhf 0 --gfn 2
          number of atoms            :                    29
          number of electrons        :                    74
          charge                     :                     0
          spin                       :                   0.0

   ID    Z sym.   atoms
    1    6 C      1-15
    2    1 H      16-29

          :  Hamiltonian                  GFN2-xTB          :
 * total energy  :   -39.2037450 Eh     change       -0.1054730E-08 Eh
 * total energy  :   -39.2070458 Eh     change       -0.3300767E-02 Eh
 * total energy  :   -39.2074720 Eh     change       -0.4262139E-03 Eh
 * total energy  :   -39.2076077 Eh     change       -0.1357529E-03 Eh
 * total energy  :   -39.2075591 Eh     change        0.4864046E-04 Eh
 * total energy  :   -39.2077178 Eh     change       -0.1586828E-03 Eh
 * total energy  :   -39.2077819 Eh     change       -0.6409045E-04 Eh
 * total energy  :   -39.2078973 Eh     change       -0.1154019E-03 Eh
 * total energy  :   -39.2079509 Eh     change       -0.5362897E-04 Eh
 * total energy  :   -39.2080241 Eh     change       -0.7318578E-04 Eh
 * total energy  :   -39.2080634 Eh     change       -0.3935339E-04 Eh
 * total energy  :   -39.2080798 Eh     change       -0.1635270E-04 Eh
 * total energy  :   -39.2080879 Eh     change       -0.8111167E-05 Eh
 * total energy  :   -39.2080902 Eh     change       -0.2326247E-05 Eh
   *** GEOMETRY OPTIMIZATION CONVERGED AFTER 14 ITERATIONS ***

 final structure:
================
29
 xtb: 6.3.3 (4ae9cef)
C        -4.99354278110871    0.02977059482903   -1.40081656106262
C        -4.20559999384430   -0.39821149371019   -0.43329510051910
C        -3.54708158013184    0.48907339166254    0.58133002929558
C        -2.05113182102975    0.34858488253268    0.48331962280070
C        -1.33493454500697   -0.40079562310116    1.40641936225205
C         0.03514813182566   -0.54272220452501    1.29210870041969
C         0.72701634722991    0.05413057315753    0.24191337054679
C         2.18488689166707   -0.09405567581500    0.12024382963438
C         2.77600608112405   -0.31960771758506   -1.12078066286524
C         4.14678685363644   -0.45927527280703   -1.23306512628787
C         4.95047545338705   -0.37127968751163   -0.10885302520246
C         4.37407285745903   -0.14544925258032    1.12977724684889
C         3.00306342233824   -0.01035753636594    1.24453151039403
C         0.00464576082165    0.79721498578334   -0.68941912228029
C        -1.36297531730647    0.94226699992940   -0.56798693108723
H        -5.23477776636034    1.07424538389927   -1.51653397343663
H        -5.43910926597347   -0.64254654580788   -2.11427358487907
H        -3.97400783959271   -1.45131781675502   -0.33816134915125
H        -3.87658209572203    0.19753132118707    1.58225305930220
H        -3.83953847312124    1.52656993943514    0.40637175017460
H        -1.85400565586753   -0.87744804210729    2.22646562176081
H         0.57352328510367   -1.13994692867325    2.01382856496160
H         2.15238737981403   -0.40539290118309   -1.99892550717365
H         4.59079000684552   -0.63938607739288   -2.20155285692206
H         6.02166623659410   -0.47821212577555   -0.19761680145715
H         4.99655170613514   -0.07219425545651    2.00995106312263
H         2.56032262118316    0.18243578128808    2.21106066741296
H         0.52524226377277    1.28182439294777   -1.50268699864980
H        -1.90929916387144    1.52454891050140   -1.29637279795239

          :  Hamiltonian                  GFN2-xTB          :
         :: total energy             -39.208090225100 Eh    ::
         :: gradient norm              0.000288546900 Eh/a0 ::
         :: HOMO-LUMO gap              3.738745224075 eV    ::
         :: SCC energy               -39.973633218968 Eh    ::
         :: -> dispersion             -0.028052590225 Eh    ::
         :: repulsion energy           0.765652982907 Eh    ::

    * Orbital Energies and Occupations

         #    Occupation            Energy/Eh            Energy/eV
      -------------------------------------------------------------
         1        2.0000           -0.6449785             -17.5508
       ...           ...                  ...                  ...
        25        2.0000           -0.4687915             -12.7565
        26        2.0000           -0.4631345             -12.6025
        27        2.0000           -0.4512155             -12.2782
        28        2.0000           -0.4372440             -11.8980
        29        2.0000           -0.4340248             -11.8104
        30        2.0000           -0.4244765             -11.5506
        31        2.0000           -0.4175305             -11.3616
        32        2.0000           -0.4151040             -11.2956
        33        2.0000           -0.4059403             -11.0462
        34        2.0000           -0.4020882             -10.9414
        35        2.0000           -0.4014793             -10.9248
        36        2.0000           -0.3993567             -10.8670
        37        2.0000           -0.3791368             -10.3168 (HOMO)
        38                         -0.2417405              -6.5781 (LUMO)
        39                         -0.2196274              -5.9764
        40                         -0.2192709              -5.9667
        41                         -0.2040704              -5.5530
        42                         -0.1915375              -5.2120
        43                         -0.1006862              -2.7398
        44                         -0.0714943              -1.9455
        45                          0.0967197               2.6319
        46                          0.1038997               2.8273
        47                          0.1230453               3.3482
        48                          0.1294160               3.5216
       ...                                ...                  ...
        74                          0.6935140              18.8715
      -------------------------------------------------------------
                  HL-Gap            0.1373964 Eh            3.7387 eV

     #   Z          covCN         q      C6AA      Î±(0)
     1   6 C        2.837    -0.094    30.356     9.029
     2   6 C        2.890    -0.022    28.550     8.760
     3   6 C        3.812    -0.063    21.695     6.630
     4   6 C        2.974     0.014    27.685     8.631
     5   6 C        2.923    -0.039    28.966     8.826
     6   6 C        2.924    -0.036    28.885     8.814
     7   6 C        2.977     0.006    27.889     8.663
     8   6 C        2.977     0.010    27.781     8.646
     9   6 C        2.925    -0.034    28.847     8.808
    10   6 C        2.918    -0.030    28.745     8.792
    11   6 C        2.920    -0.032    28.787     8.798
    12   6 C        2.918    -0.030    28.747     8.792
    13   6 C        2.925    -0.034    28.849     8.808
    14   6 C        2.924    -0.035    28.876     8.812
    15   6 C        2.923    -0.038    28.947     8.823
    16   1 H        0.926     0.036     2.505     2.475
    17   1 H        0.926     0.034     2.526     2.485
    18   1 H        0.925     0.031     2.572     2.508
    19   1 H        0.924     0.044     2.401     2.423
    20   1 H        0.924     0.044     2.393     2.419
    21   1 H        0.925     0.028     2.610     2.526
    22   1 H        0.926     0.031     2.578     2.511
    23   1 H        0.926     0.030     2.581     2.512
    24   1 H        0.926     0.028     2.608     2.525
    25   1 H        0.926     0.028     2.611     2.527
    26   1 H        0.926     0.028     2.609     2.526
    27   1 H        0.926     0.030     2.583     2.513
    28   1 H        0.926     0.031     2.575     2.510
    29   1 H        0.926     0.031     2.575     2.509

Wiberg/Mayer (AO) data.
largest (>0.10) Wiberg bond orders for each atom

     #   Z sym  total        # sym  WBO       # sym  WBO       # sym  WBO
 ---------------------------------------------------------------------------
     1   6 C    3.989 --     2 C    1.977    17 H    0.976    16 H    0.975
     2   6 C    3.989 --     1 C    1.977     3 C    1.009    18 H    0.967
     3   6 C    3.997 --     2 C    1.009     4 C    0.996    20 H    0.967
                            19 H    0.960
     4   6 C    3.983 --     5 C    1.410    15 C    1.402     3 C    0.996
                             7 C    0.102
     5   6 C    3.991 --     6 C    1.451     4 C    1.410    21 H    0.969
                            14 C    0.105
     6   6 C    3.991 --     5 C    1.451     7 C    1.390    22 H    0.969
                            15 C    0.107
     7   6 C    3.988 --     6 C    1.390    14 C    1.383     8 C    1.047
                             4 C    0.102
     8   6 C    3.989 --     9 C    1.389    13 C    1.389     7 C    1.047
                            11 C    0.106
     9   6 C    3.991 --    10 C    1.452     8 C    1.389    23 H    0.969
                            12 C    0.109
    10   6 C    3.992 --     9 C    1.452    11 C    1.435    24 H    0.971
                            13 C    0.109
    11   6 C    3.987 --    12 C    1.435    10 C    1.435    25 H    0.972
                             8 C    0.106
    12   6 C    3.992 --    13 C    1.452    11 C    1.435    26 H    0.971
                             9 C    0.109
    13   6 C    3.991 --    12 C    1.452     8 C    1.389    27 H    0.969
                            10 C    0.109
    14   6 C    3.992 --    15 C    1.461     7 C    1.383    28 H    0.968
                             5 C    0.105
    15   6 C    3.992 --    14 C    1.461     4 C    1.402    29 H    0.969
                             6 C    0.107
    16   1 H    0.999 --     1 C    0.975
    17   1 H    0.998 --     1 C    0.976
    18   1 H    0.999 --     2 C    0.967
    19   1 H    0.998 --     3 C    0.960
    20   1 H    0.997 --     3 C    0.967
    21   1 H    0.999 --     5 C    0.969
    22   1 H    0.999 --     6 C    0.969
    23   1 H    0.999 --     9 C    0.969
    24   1 H    0.999 --    10 C    0.971
    25   1 H    0.999 --    11 C    0.972
    26   1 H    0.999 --    12 C    0.971
    27   1 H    0.999 --    13 C    0.969
    28   1 H    0.999 --    14 C    0.968
    29   1 H    0.999 --    15 C    0.969
 ---------------------------------------------------------------------------

molecular dipole:
                 x           y           z       tot (Debye)
 q only:       -0.099       0.048       0.085
   full:       -0.089       0.033       0.084       0.322

           -------------------------------------------------
          | TOTAL ENERGY              -39.208090225100 Eh   |
          | GRADIENT NORM               0.000288546900 Eh/Î± |
          | HOMO-LUMO GAP               3.738745224075 eV   |
           -------------------------------------------------

 * finished run on 2022/03/17 at 02:19:27.342
