   * xtb version 6.3.3 (4ae9cef) compiled by 'conda@95abc7406d43' on 2020-10-14
          program call               : xtb acid_186.xyz --opt --chrg 0 --uhf 0 --gfn 2
          number of atoms            :                    84
          number of electrons        :                   250
          charge                     :                     0
          spin                       :                   0.0

   ID    Z sym.   atoms
    1    6 C      1-22, 24-34, 36, 37, 41-51
    2    7 N      23, 40
    3    8 O      35, 38, 39, 52
    4    1 H      53-84

          :  Hamiltonian                  GFN2-xTB          :
 * total energy  :  -136.9545812 Eh     change       -0.5255146E-08 Eh
 * total energy  :  -136.9736428 Eh     change       -0.1906157E-01 Eh
 * total energy  :  -136.9786401 Eh     change       -0.4997296E-02 Eh
 * total energy  :  -136.9799009 Eh     change       -0.1260869E-02 Eh
 * total energy  :  -136.9808167 Eh     change       -0.9157237E-03 Eh
 * total energy  :  -136.9812332 Eh     change       -0.4165845E-03 Eh
 * total energy  :  -136.9815975 Eh     change       -0.3642911E-03 Eh
 * total energy  :  -136.9819149 Eh     change       -0.3173861E-03 Eh
 * total energy  :  -136.9822005 Eh     change       -0.2855962E-03 Eh
 * total energy  :  -136.9825391 Eh     change       -0.3385640E-03 Eh
 * total energy  :  -136.9912920 Eh     change       -0.7236787E-05 Eh
 * total energy  :  -136.9912992 Eh     change       -0.7250119E-05 Eh
 * total energy  :  -136.9913059 Eh     change       -0.6700623E-05 Eh
 * total energy  :  -136.9913123 Eh     change       -0.6374342E-05 Eh
 * total energy  :  -136.9913188 Eh     change       -0.6499477E-05 Eh
 * total energy  :  -136.9913253 Eh     change       -0.6483783E-05 Eh
 * total energy  :  -136.9913311 Eh     change       -0.5828335E-05 Eh
 * total energy  :  -136.9913362 Eh     change       -0.5085232E-05 Eh
 * total energy  :  -136.9913406 Eh     change       -0.4437535E-05 Eh
   *** GEOMETRY OPTIMIZATION CONVERGED AFTER 138 ITERATIONS ***

 final structure:
================
84
 xtb: 6.3.3 (4ae9cef)
C         3.61653208228985   -1.68080325822879   -1.11345134616422
C         4.77962792335116   -2.39415646641866   -1.18228783682097
C         4.78005086099029   -3.79851455223785   -1.06542947648898
C         5.96410458535903   -4.56225753330411   -1.13043460615963
C         5.92174374854540   -5.92431563565995   -1.02999793615706
C         4.69437237528415   -6.58573611001740   -0.86142939839385
C         3.53001469608450   -5.87444416975948   -0.79312589733924
C         3.54026031535421   -4.46681075851418   -0.89058040827776
C         2.35849332896464   -3.70447174335931   -0.82078110367083
C         2.38810415768463   -2.33562156258784   -0.91220183618422
C         1.09257558204596   -1.56131066994568   -0.84297067298078
C         0.22541342373874   -1.94298264949559    0.39734434804558
C        -1.15817626148857   -2.37756694116618   -0.00445173367887
C        -1.61123481994665   -3.63643901644206    0.28172983424031
C        -2.89957436001121   -4.05226881488329   -0.10900329546322
C        -3.38902184806625   -5.34236414438463    0.18185392255607
C        -4.64704942756604   -5.71369592670154   -0.20204187388104
C        -5.47160676267863   -4.81399879984339   -0.89544418123288
C        -5.02517696177904   -3.55662271571255   -1.19248859308223
C        -3.73340040555508   -3.14269372934886   -0.80905704699951
C        -3.24028652416155   -1.85239941260583   -1.09563204997043
C        -1.98690361136191   -1.48021775733930   -0.70811504750597
N         0.20688365558125   -0.71098552170870    1.20221342762680
C        -0.87778592206450   -0.34051099438020    1.96193177970870
C        -0.97649323468397    1.13263019251554    2.20631234011029
C        -0.04704095419657    1.83515280831883    3.00102521676047
C        -0.14644713185075    3.19095748928779    3.13251185092345
C        -1.17162338236771    3.91189416921109    2.48451506684017
C        -1.29082363068183    5.31213630932124    2.59596858500756
C        -2.31190619633807    5.97569708144157    1.97645347264928
C        -3.25762203818818    5.27226684523116    1.21458845024917
C        -3.16425002394298    3.91639420277333    1.07814139592069
C        -2.12381101174692    3.20239562401515    1.70697446628237
C        -1.99996428957546    1.80432496106276    1.58728326981659
O        -1.68065117303256   -1.14760102369084    2.36832925489415
C         1.18817911928246    0.21098087544706    0.67124896400203
C         2.55861908181565    0.03791720782448    1.38593809600703
O         2.54901206140373   -0.79412962750011    2.42001870563877
O         3.53130840752899    0.64254930910620    1.04558763057911
N         1.27788053356427   -0.12316865639969   -0.72328981362572
C         0.87675744252654    0.70738336934404   -1.74267750743866
C         0.79106104803007    2.15321367926348   -1.39454110760248
C        -0.33834810987606    2.84138371047552   -1.76540310551791
C        -0.49560027609401    4.20387462396164   -1.44658101462582
C        -1.63966828523625    4.93532187468362   -1.82739077631218
C        -1.75382540636891    6.26055238192091   -1.51615626229478
C        -0.73757029736759    6.91144847457498   -0.79953027440403
C         0.38115259222927    6.22895760319437   -0.41274122427211
C         0.53713692666992    4.86474416348547   -0.73101634751590
C         1.69747771477641    4.14035536202966   -0.38513490457746
C         1.83090042135864    2.82114618758217   -0.71087319273599
O         0.60424301717761    0.27014467780988   -2.83960939612953
H         3.63398755536779   -0.60751108984935   -1.21785388914290
H         5.71931117185729   -1.88332898938384   -1.33191974341336
H         6.90538337153188   -4.04829008839080   -1.26245323359245
H         6.83170129046204   -6.50402307466343   -1.08110046191182
H         4.68020081494243   -7.66327470531581   -0.78657343107935
H         2.58283695060144   -6.37904650406742   -0.66448283131533
H         1.41612709491669   -4.22313081686304   -0.70788410158691
H         0.53482164827615   -1.73944458804676   -1.77212957451845
H         0.70990334429854   -2.74650795312215    0.96587060457111
H        -0.98718399087805   -4.33017890349409    0.82804510745071
H        -2.75170936277695   -6.03109996460094    0.71791972982364
H        -5.01717039548122   -6.70254729686369    0.02590553753104
H        -6.46296987917055   -5.12486617040576   -1.19101617985200
H        -5.65674591712869   -2.86040139445630   -1.72583764418285
H        -3.87496402856355   -1.16038915130291   -1.63057655022069
H        -1.62031884768364   -0.48840440927525   -0.93647782686509
H         0.73889500097425    1.29376106111271    3.50822982589944
H         0.56590678497522    3.73115662883331    3.73853804086515
H        -0.56216713758093    5.84918288249350    3.18568881375981
H        -2.40107204484959    7.04760472099415    2.07084923197123
H        -4.06016488305187    5.81370950989400    0.73652710342393
H        -3.88758765715453    3.36890938518410    0.49167400013841
H        -2.71943528952607    1.25810343919733    0.99381297825567
H         0.88713657072082    1.25583664589354    0.80594476021678
H         1.66833725937576   -1.19320418707481    2.54518855139740
H        -1.11974267904405    2.33139081151033   -2.31070672419655
H        -2.41912314430374    4.42882914839822   -2.37781767683523
H        -2.62729548847402    6.81850428747788   -1.81968475012659
H        -0.84613610043810    7.95913747936029   -0.56070230797289
H         1.16864495809052    6.72639719392253    0.13488251106119
H         2.49215095705658    4.65107980329366    0.13881733313099
H         2.73239931723085    2.28431029734512   -0.45678001259518

          :  Hamiltonian                  GFN2-xTB          :
         :: total energy            -136.991340626079 Eh    ::
         :: gradient norm              0.000290359118 Eh/a0 ::
         :: HOMO-LUMO gap              2.709390501032 eV    ::
         :: SCC energy              -139.311039173190 Eh    ::
         :: -> dispersion             -0.131840587465 Eh    ::
         :: repulsion energy           2.315507773790 Eh    ::

    * Orbital Energies and Occupations

         #    Occupation            Energy/Eh            Energy/eV
      -------------------------------------------------------------
         1        2.0000           -0.7707494             -20.9732
       ...           ...                  ...                  ...
       113        2.0000           -0.4201902             -11.4340
       114        2.0000           -0.4198841             -11.4256
       115        2.0000           -0.4182598             -11.3814
       116        2.0000           -0.4155250             -11.3070
       117        2.0000           -0.4115274             -11.1982
       118        2.0000           -0.4078704             -11.0987
       119        2.0000           -0.4022070             -10.9446
       120        2.0000           -0.4008532             -10.9078
       121        2.0000           -0.3988849             -10.8542
       122        2.0000           -0.3988008             -10.8519
       123        2.0000           -0.3908899             -10.6367
       124        2.0000           -0.3832764             -10.4295
       125        2.0000           -0.3813751             -10.3777 (HOMO)
       126                         -0.2818068              -7.6684 (LUMO)
       127                         -0.2759883              -7.5100
       128                         -0.2653118              -7.2195
       129                         -0.2643636              -7.1937
       130                         -0.2592397              -7.0543
       131                         -0.2562267              -6.9723
       132                         -0.2516018              -6.8464
       133                         -0.2385147              -6.4903
       134                         -0.2329652              -6.3393
       135                         -0.2290910              -6.2339
       136                         -0.2177878              -5.9263
       ...                                ...                  ...
       240                          0.6945090              18.8986
      -------------------------------------------------------------
                  HL-Gap            0.0995683 Eh            2.7094 eV

     #   Z          covCN         q      C6AA      Î±(0)
     1   6 C        2.918    -0.033    28.811     8.802
     2   6 C        2.918    -0.030    28.761     8.794
     3   6 C        2.987     0.014    27.696     8.633
     4   6 C        2.918    -0.033    28.822     8.804
     5   6 C        2.916    -0.029    28.726     8.789
     6   6 C        2.916    -0.029    28.718     8.788
     7   6 C        2.918    -0.035    28.876     8.812
     8   6 C        2.987     0.015    27.679     8.630
     9   6 C        2.924    -0.047    29.171     8.857
    10   6 C        2.967    -0.004    28.122     8.698
    11   6 C        3.841     0.037    19.928     6.351
    12   6 C        3.821     0.043    19.836     6.338
    13   6 C        2.969     0.008    27.828     8.653
    14   6 C        2.923    -0.034    28.856     8.809
    15   6 C        2.987     0.018    27.594     8.617
    16   6 C        2.919    -0.033    28.816     8.803
    17   6 C        2.916    -0.028    28.702     8.785
    18   6 C        2.916    -0.028    28.709     8.786
    19   6 C        2.918    -0.033    28.818     8.803
    20   6 C        2.988     0.016    27.651     8.626
    21   6 C        2.917    -0.031    28.766     8.795
    22   6 C        2.919    -0.028    28.696     8.785
    23   7 N        2.757    -0.160    24.456     7.345
    24   6 C        2.761     0.273    22.380     7.747
    25   6 C        2.972    -0.025    28.619     8.775
    26   6 C        2.915    -0.037    28.924     8.819
    27   6 C        2.918    -0.033    28.812     8.802
    28   6 C        2.987     0.015    27.674     8.629
    29   6 C        2.918    -0.033    28.817     8.803
    30   6 C        2.916    -0.026    28.646     8.777
    31   6 C        2.916    -0.026    28.642     8.776
    32   6 C        2.919    -0.032    28.799     8.800
    33   6 C        2.987     0.015    27.658     8.627
    34   6 C        2.926    -0.029    28.722     8.789
    35   8 O        0.858    -0.406    21.798     6.260
    36   6 C        3.782     0.074    19.369     6.269
    37   6 C        2.686     0.348    21.083     7.514
    38   8 O        1.659    -0.351    19.928     6.026
    39   8 O        0.856    -0.352    20.746     6.107
    40   7 N        2.758    -0.124    23.699     7.230
    41   6 C        2.766     0.272    22.396     7.750
    42   6 C        2.971    -0.023    28.580     8.769
    43   6 C        2.925    -0.027    28.679     8.782
    44   6 C        2.987     0.014    27.691     8.632
    45   6 C        2.918    -0.032    28.809     8.802
    46   6 C        2.916    -0.028    28.693     8.784
    47   6 C        2.916    -0.027    28.679     8.782
    48   6 C        2.918    -0.034    28.841     8.807
    49   6 C        2.987     0.015    27.676     8.630
    50   6 C        2.918    -0.034    28.840     8.806
    51   6 C        2.915    -0.040    29.005     8.831
    52   8 O        0.859    -0.413    21.940     6.280
    53   1 H        0.926     0.044     2.391     2.418
    54   1 H        0.926     0.042     2.416     2.431
    55   1 H        0.926     0.035     2.512     2.478
    56   1 H        0.926     0.033     2.548     2.496
    57   1 H        0.926     0.032     2.553     2.499
    58   1 H        0.926     0.032     2.563     2.503
    59   1 H        0.925     0.030     2.587     2.515
    60   1 H        0.923     0.084     1.938     2.177
    61   1 H        0.924     0.045     2.380     2.413
    62   1 H        0.925     0.034     2.535     2.490
    63   1 H        0.926     0.034     2.528     2.487
    64   1 H        0.926     0.033     2.541     2.493
    65   1 H        0.926     0.033     2.544     2.494
    66   1 H        0.926     0.034     2.532     2.489
    67   1 H        0.926     0.036     2.500     2.472
    68   1 H        0.925     0.022     2.704     2.572
    69   1 H        0.926     0.031     2.578     2.511
    70   1 H        0.926     0.043     2.405     2.425
    71   1 H        0.926     0.038     2.480     2.462
    72   1 H        0.926     0.037     2.488     2.467
    73   1 H        0.926     0.038     2.482     2.464
    74   1 H        0.926     0.038     2.469     2.457
    75   1 H        0.926     0.043     2.406     2.426
    76   1 H        0.924     0.071     2.072     2.251
    77   1 H        0.804     0.337     0.620     1.237
    78   1 H        0.926     0.047     2.359     2.402
    79   1 H        0.926     0.037     2.486     2.466
    80   1 H        0.926     0.035     2.515     2.480
    81   1 H        0.926     0.035     2.517     2.481
    82   1 H        0.926     0.036     2.504     2.474
    83   1 H        0.926     0.042     2.424     2.435
    84   1 H        0.926     0.057     2.235     2.338

Wiberg/Mayer (AO) data.
largest (>0.10) Wiberg bond orders for each atom

     #   Z sym  total        # sym  WBO       # sym  WBO       # sym  WBO
 ---------------------------------------------------------------------------
     1   6 C    3.990 --     2 C    1.554    10 C    1.303    53 H    0.966
     2   6 C    3.991 --     1 C    1.554     3 C    1.282    54 H    0.967
                             9 C    0.117
     3   6 C    3.990 --     2 C    1.282     4 C    1.279     8 C    1.249
     4   6 C    3.992 --     5 C    1.559     3 C    1.279    55 H    0.968
                             7 C    0.119
     5   6 C    3.990 --     4 C    1.559     6 C    1.318    56 H    0.971
     6   6 C    3.992 --     7 C    1.560     5 C    1.318    57 H    0.971
     7   6 C    3.992 --     6 C    1.560     8 C    1.276    58 H    0.968
                             4 C    0.119
     8   6 C    3.990 --     9 C    1.287     7 C    1.276     3 C    1.249
     9   6 C    3.990 --    10 C    1.517     8 C    1.287    59 H    0.965
                             2 C    0.117
    10   6 C    3.984 --     9 C    1.517     1 C    1.303    11 C    0.988
    11   6 C    3.958 --    10 C    0.988    40 N    0.969    12 C    0.946
                            60 H    0.939
    12   6 C    3.960 --    13 C    0.996    61 H    0.956    11 C    0.946
                            23 N    0.945
    13   6 C    3.985 --    14 C    1.529    22 C    1.288    12 C    0.996
    14   6 C    3.989 --    13 C    1.529    15 C    1.279    62 H    0.965
                            21 C    0.112
    15   6 C    3.990 --    16 C    1.280    14 C    1.279    20 C    1.252
    16   6 C    3.989 --    17 C    1.556    15 C    1.280    63 H    0.968
                            19 C    0.118
    17   6 C    3.992 --    16 C    1.556    18 C    1.322    64 H    0.971
    18   6 C    3.990 --    19 C    1.555    17 C    1.322    65 H    0.971
    19   6 C    3.992 --    18 C    1.555    20 C    1.283    66 H    0.968
                            16 C    0.118
    20   6 C    3.990 --    19 C    1.283    21 C    1.273    15 C    1.252
    21   6 C    3.992 --    22 C    1.569    20 C    1.273    67 H    0.968
                            14 C    0.112
    22   6 C    3.992 --    21 C    1.569    13 C    1.288    68 H    0.968
    23   7 N    3.428 --    24 C    1.165    36 C    0.980    12 C    0.945
                            35 O    0.179
    24   6 C    3.942 --    35 O    1.725    23 N    1.165    25 C    0.963
    25   6 C    3.987 --    34 C    1.514    26 C    1.283    24 C    0.963
    26   6 C    3.991 --    27 C    1.560    25 C    1.283    69 H    0.969
    27   6 C    3.991 --    26 C    1.560    28 C    1.278    70 H    0.967
                            34 C    0.114
    28   6 C    3.990 --    29 C    1.281    27 C    1.278    33 C    1.250
    29   6 C    3.991 --    30 C    1.557    28 C    1.281    71 H    0.968
                            32 C    0.118
    30   6 C    3.990 --    29 C    1.557    31 C    1.320    72 H    0.970
    31   6 C    3.992 --    32 C    1.558    30 C    1.320    73 H    0.970
    32   6 C    3.989 --    31 C    1.558    33 C    1.277    74 H    0.968
                            29 C    0.118
    33   6 C    3.990 --    34 C    1.282    32 C    1.277    28 C    1.250
    34   6 C    3.989 --    25 C    1.514    33 C    1.282    75 H    0.966
                            27 C    0.114
    35   8 O    2.039 --    24 C    1.725    23 N    0.179
    36   6 C    3.966 --    40 N    0.992    23 N    0.980    76 H    0.922
                            37 C    0.901
    37   6 C    3.925 --    39 O    1.795    38 O    1.165    36 C    0.901
    38   8 O    2.237 --    37 C    1.165    77 H    0.841    39 O    0.174
    39   8 O    2.088 --    37 C    1.795    38 O    0.174
    40   7 N    3.436 --    41 C    1.165    36 C    0.992    11 C    0.969
                            52 O    0.177
    41   6 C    3.942 --    52 O    1.706    40 N    1.165    42 C    0.985
    42   6 C    3.987 --    43 C    1.507    51 C    1.276    41 C    0.985
    43   6 C    3.989 --    42 C    1.507    44 C    1.286    78 H    0.966
                            50 C    0.112
    44   6 C    3.990 --    43 C    1.286    45 C    1.277    49 C    1.249
    45   6 C    3.990 --    46 C    1.558    44 C    1.277    79 H    0.968
                            48 C    0.118
    46   6 C    3.992 --    45 C    1.558    47 C    1.320    80 H    0.971
    47   6 C    3.988 --    48 C    1.556    46 C    1.320    81 H    0.971
    48   6 C    3.991 --    47 C    1.556    49 C    1.282    82 H    0.968
                            45 C    0.118
    49   6 C    3.990 --    48 C    1.282    50 C    1.276    44 C    1.249
    50   6 C    3.991 --    51 C    1.564    49 C    1.276    83 H    0.967
                            43 C    0.112
    51   6 C    3.989 --    50 C    1.564    42 C    1.276    84 H    0.963
    52   8 O    2.030 --    41 C    1.706    40 N    0.177
    53   1 H    0.998 --     1 C    0.966
    54   1 H    0.997 --     2 C    0.967
    55   1 H    0.998 --     4 C    0.968
    56   1 H    0.998 --     5 C    0.971
    57   1 H    0.998 --     6 C    0.971
    58   1 H    0.999 --     7 C    0.968
    59   1 H    0.999 --     9 C    0.965
    60   1 H    0.992 --    11 C    0.939
    61   1 H    0.997 --    12 C    0.956
    62   1 H    0.998 --    14 C    0.965
    63   1 H    0.998 --    16 C    0.968
    64   1 H    0.998 --    17 C    0.971
    65   1 H    0.998 --    18 C    0.971
    66   1 H    0.998 --    19 C    0.968
    67   1 H    0.998 --    21 C    0.968
    68   1 H    0.999 --    22 C    0.968
    69   1 H    0.998 --    26 C    0.969
    70   1 H    0.997 --    27 C    0.967
    71   1 H    0.998 --    29 C    0.968
    72   1 H    0.998 --    30 C    0.970
    73   1 H    0.998 --    31 C    0.970
    74   1 H    0.998 --    32 C    0.968
    75   1 H    0.998 --    34 C    0.966
    76   1 H    0.994 --    36 C    0.922
    77   1 H    0.887 --    38 O    0.841
    78   1 H    0.997 --    43 C    0.966
    79   1 H    0.998 --    45 C    0.968
    80   1 H    0.998 --    46 C    0.971
    81   1 H    0.998 --    47 C    0.971
    82   1 H    0.998 --    48 C    0.968
    83   1 H    0.997 --    50 C    0.967
    84   1 H    0.996 --    51 C    0.963
 ---------------------------------------------------------------------------

molecular dipole:
                 x           y           z       tot (Debye)
 q only:       -0.546       0.598       0.440
   full:       -0.838       0.786       0.561       3.250

           -------------------------------------------------
          | TOTAL ENERGY             -136.991340626079 Eh   |
          | GRADIENT NORM               0.000290359118 Eh/Î± |
          | HOMO-LUMO GAP               2.709390501032 eV   |
           -------------------------------------------------

 * finished run on 2022/03/16 at 22:16:52.855
