   * xtb version 6.3.3 (4ae9cef) compiled by 'conda@95abc7406d43' on 2020-10-14
          program call               : xtb acid_374.xyz --opt --chrg 0 --uhf 0 --gfn 2
          number of atoms            :                    66
          number of electrons        :                   206
          charge                     :                     0
          spin                       :                   0.0

   ID    Z sym.   atoms
    1    6 C      1-14, 16-24, 27, 28, 32-40
    2    7 N      15, 31
    3   16 S      25, 41
    4    8 O      26, 29, 30, 42
    5    1 H      43-66

          :  Hamiltonian                  GFN2-xTB          :
 * total energy  :  -113.6412197 Eh     change       -0.2091937E-08 Eh
 * total energy  :  -113.6570535 Eh     change       -0.1583387E-01 Eh
 * total energy  :  -113.6610541 Eh     change       -0.4000558E-02 Eh
 * total energy  :  -113.6623058 Eh     change       -0.1251726E-02 Eh
 * total energy  :  -113.6631251 Eh     change       -0.8192522E-03 Eh
 * total energy  :  -113.6636086 Eh     change       -0.4834989E-03 Eh
 * total energy  :  -113.6640943 Eh     change       -0.4857723E-03 Eh
 * total energy  :  -113.6645597 Eh     change       -0.4653637E-03 Eh
 * total energy  :  -113.6649060 Eh     change       -0.3463528E-03 Eh
 * total energy  :  -113.6652899 Eh     change       -0.3838469E-03 Eh
 * total energy  :  -113.7020857 Eh     change       -0.1031924E-04 Eh
 * total energy  :  -113.7020944 Eh     change       -0.8663976E-05 Eh
 * total energy  :  -113.7021020 Eh     change       -0.7609455E-05 Eh
 * total energy  :  -113.7021097 Eh     change       -0.7691802E-05 Eh
 * total energy  :  -113.7021175 Eh     change       -0.7837527E-05 Eh
 * total energy  :  -113.7021251 Eh     change       -0.7537061E-05 Eh
 * total energy  :  -113.7021316 Eh     change       -0.6490030E-05 Eh
 * total energy  :  -113.7021366 Eh     change       -0.5054902E-05 Eh
 * total energy  :  -113.7021383 Eh     change       -0.1658783E-05 Eh
   *** GEOMETRY OPTIMIZATION CONVERGED AFTER 152 ITERATIONS ***

 final structure:
================
66
 xtb: 6.3.3 (4ae9cef)
C        -1.24927117401031   -3.50551112240855   -0.73719733196362
C        -1.60506060570458   -4.45258616385798   -1.68097687733732
C        -1.96694020642542   -4.05987213373197   -2.95801151166333
C        -1.96809769805025   -2.71588088509926   -3.29072431077763
C        -1.60562237851426   -1.76871105308671   -2.35074860123785
C        -1.25220462115335   -2.15821969344934   -1.06550636714957
C        -0.82188930212090   -1.13014186091142   -0.05265937417959
C         0.61888584178116   -0.65551447537789   -0.31910856354462
C         1.62828350358911   -1.28844637110035    0.60235439611728
C         1.68271894620597   -0.91535821542028    1.94005883111658
C         2.64113039228049   -1.45968949895895    2.77485599400148
C         3.54740394455108   -2.38411356191698    2.28272828794518
C         3.47852157500458   -2.77983111252956    0.95821189541110
C         2.51954634505498   -2.23758237894192    0.12137715966525
N         0.55086086340817    0.78756923336174   -0.13614598698260
C         1.58795124780045    1.63725838586540   -0.21631312667518
C         2.90660990475864    1.03996652520359   -0.50856871732773
C         3.96928536896918    1.05930048430315    0.33170679511371
C         5.10324228877083    0.37352417620559   -0.18826296212342
C         6.34756665937989    0.15128570545813    0.40438615657780
C         7.30680388855498   -0.55396271970619   -0.28619119827989
C         7.05284062465882   -1.04443853315835   -1.56750032919580
C         5.83246761847520   -0.83793515310857   -2.17681964269130
C         4.86378220882564   -0.13349636899181   -1.47895952957067
S         3.25121499506874    0.23641537753675   -2.01898053435558
O         1.45959100892510    2.84225413776553   -0.00471646045819
C        -0.80765125295574    1.25043353620575    0.08895046126718
C        -1.00805607898453    1.79155229895678    1.54726197680245
O        -0.37031845511427    2.90455816864821    1.82100772553368
O        -1.71416789608204    1.21233909140256    2.32313756073862
N        -1.62022589715620    0.08876554707278   -0.13875101147927
C        -2.94735567939835   -0.03302692348180    0.19039088076531
C        -3.77529108232619    1.17937169972084    0.28642894667993
C        -4.93875848088520    1.20403191590305    0.98902302379249
C        -5.60548198645095    2.45781927825839    0.94779480998736
C        -4.91140724042224    3.39535448169928    0.15910581540370
C        -5.38223499619667    4.68572010124253   -0.02718390126420
C        -6.56414643750524    5.04155511690607    0.58922952921457
C        -7.26661288961404    4.12776992933261    1.37633890746130
C        -6.80006722006918    2.84612135057663    1.55957034976618
S        -3.45135744371518    2.71187296988084   -0.49414556509912
O        -3.44361312753560   -1.12993598543876    0.35313038128125
H        -0.97505629965386   -3.81076602311446    0.26181828642644
H        -1.60558235470689   -5.49954400580450   -1.41635637796277
H        -2.25183452630893   -4.79899843237778   -3.69201992056205
H        -2.25297885330313   -2.40406896298630   -4.28477279334590
H        -1.61113429033405   -0.71941015785671   -2.60958609626396
H        -0.91123494571082   -1.55332592669895    0.95749153037960
H         0.87945369484647   -0.87548116129768   -1.36307162370202
H         0.97906309910079   -0.19249342507151    2.32818002369200
H         2.68117879062789   -1.15855650002310    3.81076108632213
H         4.30292225556123   -2.79914626499983    2.93254144654537
H         4.17716659246827   -3.50663790807564    0.57209440497406
H         2.46588123549558   -2.54467558651491   -0.91297167893738
H         3.94293431805752    1.51798844714450    1.30373710041854
H         6.54106054110749    0.53405405114138    1.39471666995394
H         8.27118572102714   -0.73146432772125    0.16526530172659
H         7.82166608036528   -1.59414700490050   -2.08875707598713
H         5.62916529486447   -1.21461359137531   -3.16697796900257
H        -1.03351020546725    2.06547709001710   -0.61737242174816
H         0.28307095942514    3.15718004035780    1.10383242890868
H        -5.29525306594158    0.34624814827176    1.52964628041900
H        -4.83278670261913    5.38729955576034   -0.63519040502426
H        -6.95019010024088    6.04168846643298    0.46255133962382
H        -8.18821545142108    4.43608835318186    1.84683848615021
H        -7.33984586293876    2.13672282568473    2.16802699575214

          :  Hamiltonian                  GFN2-xTB          :
         :: total energy            -113.702138285213 Eh    ::
         :: gradient norm              0.000217714946 Eh/a0 ::
         :: HOMO-LUMO gap              2.646190528320 eV    ::
         :: SCC energy              -115.437657768051 Eh    ::
         :: -> dispersion             -0.102719880080 Eh    ::
         :: repulsion energy           1.733433310901 Eh    ::

    * Orbital Energies and Occupations

         #    Occupation            Energy/Eh            Energy/eV
      -------------------------------------------------------------
         1        2.0000           -0.7539932             -20.5172
       ...           ...                  ...                  ...
        91        2.0000           -0.4303122             -11.7094
        92        2.0000           -0.4281171             -11.6497
        93        2.0000           -0.4254998             -11.5784
        94        2.0000           -0.4243339             -11.5467
        95        2.0000           -0.4211593             -11.4603
        96        2.0000           -0.4126330             -11.2283
        97        2.0000           -0.4102575             -11.1637
        98        2.0000           -0.4087754             -11.1233
        99        2.0000           -0.4030132             -10.9665
       100        2.0000           -0.3979306             -10.8282
       101        2.0000           -0.3972396             -10.8094
       102        2.0000           -0.3927721             -10.6879
       103        2.0000           -0.3827896             -10.4162 (HOMO)
       104                         -0.2855439              -7.7700 (LUMO)
       105                         -0.2764771              -7.5233
       106                         -0.2543453              -6.9211
       107                         -0.2482830              -6.7561
       108                         -0.2467118              -6.7134
       109                         -0.2446469              -6.6572
       110                         -0.2434148              -6.6237
       111                         -0.2335881              -6.3563
       112                         -0.2290986              -6.2341
       113                         -0.2270924              -6.1795
       114                         -0.2244359              -6.1072
       ...                                ...                  ...
       202                          0.7050763              19.1861
      -------------------------------------------------------------
                  HL-Gap            0.0972457 Eh            2.6462 eV

     #   Z          covCN         q      C6AA      Î±(0)
     1   6 C        2.924    -0.028    28.708     8.787
     2   6 C        2.920    -0.025    28.633     8.775
     3   6 C        2.920    -0.028    28.708     8.786
     4   6 C        2.920    -0.026    28.662     8.779
     5   6 C        2.924    -0.031    28.764     8.795
     6   6 C        2.975     0.013    27.716     8.636
     7   6 C        3.836     0.051    19.699     6.314
     8   6 C        3.819     0.036    19.957     6.358
     9   6 C        2.974    -0.002    28.083     8.693
    10   6 C        2.923    -0.032    28.809     8.802
    11   6 C        2.920    -0.026    28.641     8.776
    12   6 C        2.920    -0.028    28.692     8.784
    13   6 C        2.920    -0.026    28.656     8.778
    14   6 C        2.923    -0.034    28.842     8.807
    15   7 N        2.763    -0.103    23.254     7.162
    16   6 C        2.778     0.269    22.459     7.762
    17   6 C        2.990    -0.001    28.051     8.688
    18   6 C        3.069    -0.040    28.911     8.817
    19   6 C        3.143     0.004    27.678     8.609
    20   6 C        2.916    -0.031    28.765     8.795
    21   6 C        2.918    -0.031    28.781     8.798
    22   6 C        2.924    -0.029    28.715     8.788
    23   6 C        2.933    -0.036    28.900     8.816
    24   6 C        3.010     0.036    27.182     8.552
    25  16 S        2.264    -0.045   142.922    20.121
    26   8 O        0.860    -0.454    22.792     6.401
    27   6 C        3.756     0.078    19.333     6.269
    28   6 C        2.683     0.353    21.010     7.501
    29   8 O        1.654    -0.367    20.228     6.071
    30   8 O        0.856    -0.372    21.127     6.163
    31   7 N        2.759    -0.123    23.675     7.227
    32   6 C        2.779     0.279    22.281     7.731
    33   6 C        2.981     0.001    28.001     8.680
    34   6 C        3.079    -0.029    28.624     8.771
    35   6 C        3.140     0.007    27.625     8.601
    36   6 C        3.010     0.043    27.023     8.527
    37   6 C        2.933    -0.036    28.904     8.817
    38   6 C        2.924    -0.029    28.715     8.788
    39   6 C        2.918    -0.032    28.791     8.799
    40   6 C        2.916    -0.030    28.739     8.791
    41  16 S        2.266    -0.088   144.717    20.247
    42   8 O        0.860    -0.416    21.995     6.288
    43   1 H        0.926     0.036     2.499     2.472
    44   1 H        0.926     0.039     2.467     2.456
    45   1 H        0.926     0.037     2.488     2.467
    46   1 H        0.926     0.037     2.486     2.466
    47   1 H        0.926     0.033     2.549     2.497
    48   1 H        0.923     0.061     2.182     2.310
    49   1 H        0.923     0.060     2.205     2.322
    50   1 H        0.926     0.036     2.500     2.473
    51   1 H        0.926     0.044     2.396     2.421
    52   1 H        0.926     0.041     2.438     2.442
    53   1 H        0.926     0.039     2.459     2.452
    54   1 H        0.926     0.036     2.497     2.471
    55   1 H        0.926     0.052     2.293     2.368
    56   1 H        0.926     0.044     2.401     2.423
    57   1 H        0.926     0.042     2.420     2.433
    58   1 H        0.926     0.044     2.398     2.421
    59   1 H        0.926     0.046     2.370     2.407
    60   1 H        0.923     0.075     2.032     2.229
    61   1 H        0.799     0.369     0.547     1.162
    62   1 H        0.926     0.069     2.100     2.266
    63   1 H        0.926     0.044     2.394     2.419
    64   1 H        0.926     0.041     2.440     2.443
    65   1 H        0.926     0.039     2.460     2.452
    66   1 H        0.926     0.044     2.391     2.418

Wiberg/Mayer (AO) data.
largest (>0.10) Wiberg bond orders for each atom

     #   Z sym  total        # sym  WBO       # sym  WBO       # sym  WBO
 ---------------------------------------------------------------------------
     1   6 C    3.990 --     2 C    1.443     6 C    1.415    43 H    0.969
                             4 C    0.111
     2   6 C    3.992 --     1 C    1.443     3 C    1.440    44 H    0.971
                             5 C    0.112
     3   6 C    3.991 --     2 C    1.440     4 C    1.437    45 H    0.971
                             6 C    0.109
     4   6 C    3.992 --     5 C    1.447     3 C    1.437    46 H    0.971
                             1 C    0.111
     5   6 C    3.991 --     4 C    1.447     6 C    1.411    47 H    0.969
                             2 C    0.112
     6   6 C    3.984 --     1 C    1.415     5 C    1.411     7 C    0.989
                             3 C    0.109
     7   6 C    3.963 --     6 C    0.989    31 N    0.958     8 C    0.954
                            48 H    0.952
     8   6 C    3.959 --     9 C    0.989    15 N    0.954     7 C    0.954
                            49 H    0.949
     9   6 C    3.985 --    14 C    1.413    10 C    1.409     8 C    0.989
                            12 C    0.109
    10   6 C    3.991 --    11 C    1.448     9 C    1.409    50 H    0.968
                            13 C    0.112
    11   6 C    3.992 --    10 C    1.448    12 C    1.436    51 H    0.970
                            14 C    0.110
    12   6 C    3.990 --    13 C    1.441    11 C    1.436    52 H    0.971
                             9 C    0.109
    13   6 C    3.992 --    14 C    1.442    12 C    1.441    53 H    0.970
                            10 C    0.112
    14   6 C    3.991 --    13 C    1.442     9 C    1.413    54 H    0.968
                            11 C    0.110
    15   7 N    3.510 --    16 C    1.275    27 C    0.967     8 C    0.954
                            26 O    0.188
    16   6 C    3.949 --    26 O    1.580    15 N    1.275    17 C    0.993
    17   6 C    3.954 --    18 C    1.635    25 S    1.107    16 C    0.993
    18   6 C    3.986 --    17 C    1.635    19 C    1.194    55 H    0.961
                            25 S    0.100
    19   6 C    3.987 --    20 C    1.327    24 C    1.288    18 C    1.194
    20   6 C    3.988 --    21 C    1.498    19 C    1.327    56 H    0.967
                            23 C    0.111
    21   6 C    3.991 --    20 C    1.498    22 C    1.382    57 H    0.970
    22   6 C    3.987 --    23 C    1.474    21 C    1.382    58 H    0.970
    23   6 C    3.990 --    22 C    1.474    24 C    1.379    59 H    0.968
                            20 C    0.111
    24   6 C    3.954 --    23 C    1.379    19 C    1.288    25 S    1.101
    25  16 S    2.540 --    17 C    1.107    24 C    1.101    18 C    0.100
    26   8 O    2.016 --    16 C    1.580    15 N    0.188
    27   6 C    3.957 --    31 N    1.002    15 N    0.967    60 H    0.932
                            28 C    0.880
    28   6 C    3.929 --    30 O    1.772    29 O    1.215    27 C    0.880
    29   8 O    2.242 --    28 C    1.215    61 H    0.756    30 O    0.183
    30   8 O    2.084 --    28 C    1.772    29 O    0.183
    31   7 N    3.415 --    32 C    1.161    27 C    1.002     7 C    0.958
                            42 O    0.170
    32   6 C    3.949 --    42 O    1.675    31 N    1.161    33 C    1.023
    33   6 C    3.949 --    34 C    1.612    41 S    1.097    32 C    1.023
    34   6 C    3.986 --    33 C    1.612    35 C    1.206    62 H    0.958
    35   6 C    3.988 --    40 C    1.323    36 C    1.283    34 C    1.206
    36   6 C    3.954 --    37 C    1.380    35 C    1.283    41 S    1.100
    37   6 C    3.990 --    38 C    1.474    36 C    1.380    63 H    0.968
                            40 C    0.110
    38   6 C    3.983 --    37 C    1.474    39 C    1.380    64 H    0.970
    39   6 C    3.991 --    40 C    1.501    38 C    1.380    65 H    0.971
    40   6 C    3.984 --    39 C    1.501    35 C    1.323    66 H    0.967
                            37 C    0.110
    41  16 S    2.530 --    36 C    1.100    33 C    1.097
    42   8 O    2.017 --    32 C    1.675    31 N    0.170
    43   1 H    0.999 --     1 C    0.969
    44   1 H    0.998 --     2 C    0.971
    45   1 H    0.998 --     3 C    0.971
    46   1 H    0.998 --     4 C    0.971
    47   1 H    0.999 --     5 C    0.969
    48   1 H    0.995 --     7 C    0.952
    49   1 H    0.996 --     8 C    0.949
    50   1 H    0.999 --    10 C    0.968
    51   1 H    0.998 --    11 C    0.970
    52   1 H    0.998 --    12 C    0.971
    53   1 H    0.998 --    13 C    0.970
    54   1 H    0.999 --    14 C    0.968
    55   1 H    0.997 --    18 C    0.961
    56   1 H    0.998 --    20 C    0.967
    57   1 H    0.997 --    21 C    0.970
    58   1 H    0.998 --    22 C    0.970
    59   1 H    0.998 --    23 C    0.968
    60   1 H    0.994 --    27 C    0.932
    61   1 H    0.864 --    29 O    0.756
    62   1 H    0.995 --    34 C    0.958
    63   1 H    0.998 --    37 C    0.968
    64   1 H    0.998 --    38 C    0.970
    65   1 H    0.997 --    39 C    0.971
    66   1 H    0.998 --    40 C    0.967
 ---------------------------------------------------------------------------

molecular dipole:
                 x           y           z       tot (Debye)
 q only:        1.794      -0.787      -1.030
   full:        1.909      -0.607      -0.817       5.500

           -------------------------------------------------
          | TOTAL ENERGY             -113.702138285213 Eh   |
          | GRADIENT NORM               0.000217714946 Eh/Î± |
          | HOMO-LUMO GAP               2.646190528320 eV   |
           -------------------------------------------------

 * finished run on 2022/03/17 at 00:25:16.639
