   * xtb version 6.3.3 (4ae9cef) compiled by 'conda@95abc7406d43' on 2020-10-14
          program call               : xtb acid_71.xyz --opt --chrg 0 --uhf 0 --gfn 2
          number of atoms            :                    78
          number of electrons        :                   230
          charge                     :                     0
          spin                       :                   0.0

   ID    Z sym.   atoms
    1    6 C      1-22, 24-27, 29-31, 33, 34, 38-41, 43-45
    2    7 N      23, 37
    3    8 O      28, 32, 35, 36, 42, 46
    4    1 H      47-78

          :  Hamiltonian                  GFN2-xTB          :
 * total energy  :  -127.9967510 Eh     change       -0.3110358E-08 Eh
 * total energy  :  -128.0119920 Eh     change       -0.1524101E-01 Eh
 * total energy  :  -128.0166114 Eh     change       -0.4619433E-02 Eh
 * total energy  :  -128.0180317 Eh     change       -0.1420294E-02 Eh
 * total energy  :  -128.0191437 Eh     change       -0.1111996E-02 Eh
 * total energy  :  -128.0196611 Eh     change       -0.5174310E-03 Eh
 * total energy  :  -128.0200102 Eh     change       -0.3490613E-03 Eh
 * total energy  :  -128.0203130 Eh     change       -0.3027889E-03 Eh
 * total energy  :  -128.0206194 Eh     change       -0.3064494E-03 Eh
 * total energy  :  -128.0209225 Eh     change       -0.3030418E-03 Eh
 * total energy  :  -128.0263017 Eh     change       -0.2114684E-04 Eh
 * total energy  :  -128.0263197 Eh     change       -0.1794679E-04 Eh
 * total energy  :  -128.0263364 Eh     change       -0.1671856E-04 Eh
 * total energy  :  -128.0263549 Eh     change       -0.1857345E-04 Eh
 * total energy  :  -128.0263773 Eh     change       -0.2230619E-04 Eh
 * total energy  :  -128.0264000 Eh     change       -0.2275785E-04 Eh
 * total energy  :  -128.0264197 Eh     change       -0.1965249E-04 Eh
 * total energy  :  -128.0264362 Eh     change       -0.1655891E-04 Eh
 * total energy  :  -128.0264411 Eh     change       -0.4871934E-05 Eh
   *** GEOMETRY OPTIMIZATION CONVERGED AFTER 94 ITERATIONS ***

 final structure:
================
78
 xtb: 6.3.3 (4ae9cef)
C        -1.86880945142328   -1.74414400990493    2.15349348840100
C        -2.69774584888308   -1.98599601399153    3.21297357488521
C        -3.40672456015136   -0.93869434070571    3.83545752059761
C        -4.27649201469942   -1.15757680331655    4.92409160560821
C        -4.96021584102803   -0.11831693178326    5.48946387647066
C        -4.80494762321868    1.18653361416213    4.99382755298254
C        -3.96813119833836    1.43143632721093    3.94201680154128
C        -3.24791418248842    0.38035191506876    3.33560279515648
C        -2.38325871953085    0.59795943452140    2.24557114879536
C        -1.69317722481545   -0.43561469561011    1.66500397463472
C        -0.80280217015449   -0.15927371651968    0.47567814291128
C         0.27150342605568    0.93334908069908    0.75276336810115
C         0.32235352578441    1.94725183447138   -0.36198986499599
C         0.72552104976278    1.56730287930924   -1.61665865179839
C         0.76830044252932    2.49028673197611   -2.67855550290298
C         1.19325033396542    2.12091498588943   -3.97219753710165
C         1.22159115929857    3.03854262838095   -4.98418105594972
C         0.82867763807779    4.36614377926957   -4.74935316918441
C         0.41663475510533    4.75507439275505   -3.50567481764812
C         0.37531061294310    3.83289185811122   -2.43941996879295
C        -0.03620102488572    4.19717906446433   -1.14078870876472
C        -0.06072729837422    3.27975614995431   -0.12936847905983
N         1.51407060843937    0.17883596571471    0.81470943198633
C         2.71354233270092    0.78202376395496    1.02027314458785
C         3.86846911099223   -0.14689651238962    0.95170664389573
C         4.39479847058126   -0.71795192950999   -0.17542055950136
C         3.99109474221467   -0.62820549657547   -1.60420575492854
O         5.46547342483363   -1.47159638543515    0.15332701595411
C         5.63837539553501   -1.39116057737858    1.49245922152563
C         6.76053711658314   -2.14799654373837    2.10648179131687
C         4.68547764263969   -0.58335274480777    2.03317521400563
O         2.80768055511968    1.97514389435793    1.21480861698730
C         1.26071736744773   -1.23427631853966    0.72344077251154
C         1.20259440940159   -1.90552780372970    2.10560397622654
O         1.15415074136872   -1.01699329952713    3.09483767541152
O         1.21118851773603   -3.09188497395656    2.27654029242890
N        -0.02191137601708   -1.31120496794593    0.05977840712301
C        -0.05477938236495   -1.83409949041820   -1.21255848886263
C        -1.34585295289068   -1.75611364372414   -1.90098705539743
C        -1.51311563384879   -1.66456477381780   -3.26256189641709
C        -0.52438936629084   -1.52527921976859   -4.35887616741921
O        -2.82356487912255   -1.65888467789645   -3.56167180974417
C        -3.52091215575150   -1.77375743787650   -2.40381511549957
C        -5.00399238055820   -1.82232104870678   -2.47490967272755
C        -2.66416423714648   -1.82920727148338   -1.35128180176203
O         0.92821153039985   -2.35870821054109   -1.70498345341612
H        -1.34650476979340   -2.56074195950069    1.67788592578450
H        -2.82504772222816   -2.99335644002850    3.58245576343904
H        -4.39336894182180   -2.16386615504879    5.30039066824639
H        -5.62667649415442   -0.29216362991212    6.32140712284117
H        -5.35458254409618    1.99510640330808    5.45284051289013
H        -3.84525658350405    2.43374797434317    3.55733060726057
H        -2.28041066619439    1.60284108087178    1.86042560395819
H        -1.43614870011553    0.16317192174089   -0.35841026790788
H         0.09662687412080    1.43354592519174    1.71151115947952
H         1.02713840095004    0.54755661847478   -1.81129822276061
H         1.50172989717124    1.09915673860190   -4.14389304238715
H         1.54928816146759    2.75091694056211   -5.97259997944748
H         0.85887887164404    5.07779248268369   -5.56143397454611
H         0.11812073737331    5.77694369595570   -3.31942431762851
H        -0.32579999436495    5.22183134815948   -0.95673457908233
H        -0.36103450050607    3.57232019849919    0.86594898689207
H         3.59303946885414    0.36236290127698   -1.81322071807487
H         4.85483194869545   -0.81288042473545   -2.23801148729469
H         3.22732198452578   -1.37100669139466   -1.84486701943419
H         7.69938906982121   -1.89400176863890    1.61683517906127
H         6.83009699652926   -1.90664980768684    3.16258155536977
H         6.60283711399054   -3.22051887923341    1.99516946690193
H         4.56595190430842   -0.31836417612205    3.06333058003752
H         2.00078496441192   -1.77528382382502    0.12005067011815
H         1.12748815828954   -1.46142650295374    3.95743230996107
H        -0.78706336089373   -2.18506294686022   -5.18316675161913
H        -0.51392095229031   -0.50115308035956   -4.73424113009805
H         0.46028938021337   -1.78718332148494   -3.98421106808418
H        -5.32770270506039   -2.69294581665630   -3.04402915677071
H        -5.39005385617166   -0.93402382440322   -2.97292153697547
H        -5.41543937252136   -1.87881554888664   -1.47189495102870
H        -2.92449815619326   -1.93922589259280   -0.31886443124239

          :  Hamiltonian                  GFN2-xTB          :
         :: total energy            -128.026441096798 Eh    ::
         :: gradient norm              0.000313037926 Eh/a0 ::
         :: HOMO-LUMO gap              2.689980536153 eV    ::
         :: SCC energy              -129.949224886238 Eh    ::
         :: -> dispersion             -0.108202746527 Eh    ::
         :: repulsion energy           1.919296791706 Eh    ::

    * Orbital Energies and Occupations

         #    Occupation            Energy/Eh            Energy/eV
      -------------------------------------------------------------
         1        2.0000           -0.7648507             -20.8126
       ...           ...                  ...                  ...
       103        2.0000           -0.4239960             -11.5375
       104        2.0000           -0.4179522             -11.3731
       105        2.0000           -0.4165117             -11.3339
       106        2.0000           -0.4138223             -11.2607
       107        2.0000           -0.4092953             -11.1375
       108        2.0000           -0.4054557             -11.0330
       109        2.0000           -0.3999162             -10.8823
       110        2.0000           -0.3922132             -10.6727
       111        2.0000           -0.3895970             -10.6015
       112        2.0000           -0.3875790             -10.5466
       113        2.0000           -0.3864045             -10.5146
       114        2.0000           -0.3799957             -10.3402
       115        2.0000           -0.3703673             -10.0782 (HOMO)
       116                         -0.2715123              -7.3882 (LUMO)
       117                         -0.2633140              -7.1651
       118                         -0.2565122              -6.9801
       119                         -0.2506593              -6.8208
       120                         -0.2394112              -6.5147
       121                         -0.2314194              -6.2972
       122                         -0.2140319              -5.8241
       123                         -0.2087548              -5.6805
       124                         -0.1999337              -5.4405
       125                         -0.1979085              -5.3854
       126                         -0.1918868              -5.2215
       ...                                ...                  ...
       216                          0.6964567              18.9516
      -------------------------------------------------------------
                  HL-Gap            0.0988550 Eh            2.6900 eV

     #   Z          covCN         q      C6AA      Î±(0)
     1   6 C        2.918    -0.038    28.948     8.823
     2   6 C        2.917    -0.036    28.885     8.813
     3   6 C        2.987     0.012    27.751     8.641
     4   6 C        2.918    -0.034    28.858     8.809
     5   6 C        2.916    -0.029    28.724     8.789
     6   6 C        2.916    -0.028    28.708     8.786
     7   6 C        2.918    -0.035    28.866     8.810
     8   6 C        2.986     0.015    27.681     8.630
     9   6 C        2.924    -0.045    29.122     8.850
    10   6 C        2.966    -0.000    28.034     8.685
    11   6 C        3.837     0.036    19.948     6.354
    12   6 C        3.825     0.042    19.844     6.339
    13   6 C        2.970     0.008    27.847     8.656
    14   6 C        2.924    -0.042    29.047     8.838
    15   6 C        2.987     0.013    27.704     8.634
    16   6 C        2.918    -0.037    28.919     8.819
    17   6 C        2.916    -0.030    28.746     8.792
    18   6 C        2.916    -0.030    28.742     8.791
    19   6 C        2.918    -0.034    28.837     8.806
    20   6 C        2.987     0.014    27.703     8.634
    21   6 C        2.918    -0.033    28.811     8.802
    22   6 C        2.919    -0.030    28.745     8.792
    23   7 N        2.769    -0.117    23.551     7.208
    24   6 C        2.756     0.276    22.327     7.738
    25   6 C        3.068    -0.071    29.703     8.937
    26   6 C        3.079     0.109    25.513     8.281
    27   6 C        3.752    -0.118    22.827     6.813
    28   8 O        1.731    -0.198    17.289     5.614
    29   6 C        3.079     0.110    25.488     8.277
    30   6 C        3.753    -0.116    22.781     6.806
    31   6 C        3.008    -0.077    29.902     8.970
    32   8 O        0.859    -0.425    22.176     6.314
    33   6 C        3.787     0.087    19.156     6.234
    34   6 C        2.688     0.353    20.999     7.499
    35   8 O        1.659    -0.358    20.055     6.046
    36   8 O        0.856    -0.386    21.404     6.203
    37   7 N        2.764    -0.122    23.651     7.223
    38   6 C        2.765     0.276    22.328     7.738
    39   6 C        3.064    -0.065    29.556     8.915
    40   6 C        3.075     0.130    25.090     8.212
    41   6 C        3.753    -0.121    22.869     6.819
    42   8 O        1.731    -0.194    17.231     5.605
    43   6 C        3.077     0.112    25.464     8.273
    44   6 C        3.753    -0.118    22.813     6.811
    45   6 C        3.002    -0.083    30.061     8.994
    46   8 O        0.859    -0.441    22.525     6.363
    47   1 H        0.926     0.043     2.415     2.430
    48   1 H        0.926     0.039     2.461     2.453
    49   1 H        0.926     0.034     2.525     2.485
    50   1 H        0.926     0.034     2.536     2.491
    51   1 H        0.926     0.034     2.531     2.488
    52   1 H        0.926     0.034     2.526     2.486
    53   1 H        0.926     0.034     2.537     2.491
    54   1 H        0.924     0.060     2.201     2.320
    55   1 H        0.924     0.063     2.167     2.302
    56   1 H        0.926     0.031     2.569     2.506
    57   1 H        0.926     0.033     2.544     2.494
    58   1 H        0.926     0.031     2.566     2.505
    59   1 H        0.926     0.032     2.562     2.503
    60   1 H        0.926     0.033     2.538     2.491
    61   1 H        0.926     0.038     2.474     2.460
    62   1 H        0.926     0.036     2.498     2.472
    63   1 H        0.925     0.055     2.262     2.352
    64   1 H        0.925     0.065     2.146     2.291
    65   1 H        0.924     0.074     2.045     2.237
    66   1 H        0.925     0.063     2.166     2.301
    67   1 H        0.925     0.055     2.258     2.350
    68   1 H        0.925     0.062     2.176     2.307
    69   1 H        0.926     0.036     2.498     2.472
    70   1 H        0.924     0.101     1.773     2.082
    71   1 H        0.804     0.339     0.614     1.231
    72   1 H        0.925     0.068     2.104     2.268
    73   1 H        0.924     0.064     2.152     2.294
    74   1 H        0.925     0.081     1.973     2.196
    75   1 H        0.925     0.065     2.136     2.285
    76   1 H        0.925     0.064     2.158     2.297
    77   1 H        0.925     0.057     2.234     2.337
    78   1 H        0.926     0.041     2.440     2.443

Wiberg/Mayer (AO) data.
largest (>0.10) Wiberg bond orders for each atom

     #   Z sym  total        # sym  WBO       # sym  WBO       # sym  WBO
 ---------------------------------------------------------------------------
     1   6 C    3.990 --     2 C    1.554    10 C    1.300    47 H    0.964
     2   6 C    3.991 --     1 C    1.554     3 C    1.282    48 H    0.968
                             9 C    0.117
     3   6 C    3.990 --     2 C    1.282     4 C    1.279     8 C    1.249
     4   6 C    3.992 --     5 C    1.559     3 C    1.279    49 H    0.968
                             7 C    0.119
     5   6 C    3.990 --     4 C    1.559     6 C    1.318    50 H    0.971
     6   6 C    3.992 --     7 C    1.561     5 C    1.318    51 H    0.971
     7   6 C    3.991 --     6 C    1.561     8 C    1.276    52 H    0.968
                             4 C    0.119
     8   6 C    3.990 --     9 C    1.288     7 C    1.276     3 C    1.249
     9   6 C    3.990 --    10 C    1.519     8 C    1.288    53 H    0.965
                             2 C    0.117
    10   6 C    3.986 --     9 C    1.519     1 C    1.300    11 C    0.989
    11   6 C    3.963 --    10 C    0.989    37 N    0.973    54 H    0.944
                            12 C    0.944
    12   6 C    3.964 --    13 C    0.990    23 N    0.962    55 H    0.954
                            11 C    0.944
    13   6 C    3.986 --    14 C    1.521    22 C    1.299    12 C    0.990
    14   6 C    3.991 --    13 C    1.521    15 C    1.286    56 H    0.963
                            21 C    0.116
    15   6 C    3.991 --    14 C    1.286    16 C    1.277    20 C    1.249
    16   6 C    3.990 --    17 C    1.559    15 C    1.277    57 H    0.967
                            19 C    0.118
    17   6 C    3.992 --    16 C    1.559    18 C    1.319    58 H    0.971
    18   6 C    3.990 --    19 C    1.558    17 C    1.319    59 H    0.971
    19   6 C    3.992 --    18 C    1.558    20 C    1.280    60 H    0.968
                            16 C    0.118
    20   6 C    3.989 --    19 C    1.280    21 C    1.279    15 C    1.249
    21   6 C    3.991 --    22 C    1.559    20 C    1.279    61 H    0.968
                            14 C    0.116
    22   6 C    3.990 --    21 C    1.559    13 C    1.299    62 H    0.968
    23   7 N    3.463 --    24 C    1.202    33 C    0.986    12 C    0.962
                            32 O    0.190
    24   6 C    3.946 --    32 O    1.693    23 N    1.202    25 C    0.972
    25   6 C    3.973 --    26 C    1.541    31 C    1.245    24 C    0.972
    26   6 C    3.913 --    25 C    1.541    28 O    1.116    27 C    1.029
                            29 C    0.130
    27   6 C    3.992 --    26 C    1.029    64 H    0.979    63 H    0.977
                            65 H    0.957
    28   8 O    2.425 --    26 C    1.116    29 C    1.107
    29   6 C    3.910 --    31 C    1.589    28 O    1.107    30 C    1.028
                            26 C    0.130
    30   6 C    3.993 --    29 C    1.028    67 H    0.984    66 H    0.971
                            68 H    0.968
    31   6 C    3.977 --    29 C    1.589    25 C    1.245    69 H    0.975
    32   8 O    2.015 --    24 C    1.693    23 N    0.190
    33   6 C    3.966 --    23 N    0.986    37 N    0.980    70 H    0.927
                            34 C    0.917
    34   6 C    3.918 --    36 O    1.779    35 O    1.154    33 C    0.917
    35   8 O    2.223 --    34 C    1.154    71 H    0.859    36 O    0.183
    36   8 O    2.059 --    34 C    1.779    35 O    0.183
    37   7 N    3.425 --    38 C    1.161    33 C    0.980    11 C    0.973
                            46 O    0.166
    38   6 C    3.944 --    46 O    1.664    37 N    1.161    39 C    1.029
    39   6 C    3.972 --    40 C    1.505    45 C    1.222    38 C    1.029
    40   6 C    3.915 --    39 C    1.505    42 O    1.136    41 C    1.035
                            43 C    0.117
    41   6 C    3.990 --    40 C    1.035    74 H    0.975    72 H    0.969
                            73 H    0.961
    42   8 O    2.431 --    40 C    1.136    43 C    1.094
    43   6 C    3.910 --    45 C    1.609    42 O    1.094    44 C    1.030
                            40 C    0.117
    44   6 C    3.993 --    43 C    1.030    77 H    0.984    76 H    0.970
                            75 H    0.968
    45   6 C    3.979 --    43 C    1.609    39 C    1.222    78 H    0.970
    46   8 O    2.007 --    38 C    1.664    37 N    0.166
    47   1 H    0.998 --     1 C    0.964
    48   1 H    0.998 --     2 C    0.968
    49   1 H    0.998 --     4 C    0.968
    50   1 H    0.998 --     5 C    0.971
    51   1 H    0.998 --     6 C    0.971
    52   1 H    0.998 --     7 C    0.968
    53   1 H    0.998 --     9 C    0.965
    54   1 H    0.995 --    11 C    0.944
    55   1 H    0.995 --    12 C    0.954
    56   1 H    0.999 --    14 C    0.963
    57   1 H    0.998 --    16 C    0.967
    58   1 H    0.999 --    17 C    0.971
    59   1 H    0.999 --    18 C    0.971
    60   1 H    0.998 --    19 C    0.968
    61   1 H    0.998 --    21 C    0.968
    62   1 H    0.998 --    22 C    0.968
    63   1 H    0.997 --    27 C    0.977
    64   1 H    0.996 --    27 C    0.979
    65   1 H    0.994 --    27 C    0.957
    66   1 H    0.996 --    30 C    0.971
    67   1 H    0.996 --    30 C    0.984
    68   1 H    0.996 --    30 C    0.968
    69   1 H    0.998 --    31 C    0.975
    70   1 H    0.989 --    33 C    0.927
    71   1 H    0.884 --    35 O    0.859
    72   1 H    0.994 --    41 C    0.969
    73   1 H    0.996 --    41 C    0.961
    74   1 H    0.993 --    41 C    0.975
    75   1 H    0.995 --    44 C    0.968
    76   1 H    0.995 --    44 C    0.970
    77   1 H    0.996 --    44 C    0.984
    78   1 H    0.998 --    45 C    0.970
 ---------------------------------------------------------------------------

molecular dipole:
                 x           y           z       tot (Debye)
 q only:       -1.842       0.198       0.048
   full:       -1.879       0.132       0.217       4.819

           -------------------------------------------------
          | TOTAL ENERGY             -128.026441096798 Eh   |
          | GRADIENT NORM               0.000313037926 Eh/Î± |
          | HOMO-LUMO GAP               2.689980536153 eV   |
           -------------------------------------------------

 * finished run on 2022/03/17 at 02:00:55.125
