   * xtb version 6.3.3 (4ae9cef) compiled by 'conda@95abc7406d43' on 2020-10-14
          program call               : xtb sub_7.xyz --opt --chrg 0 --uhf 0 --gfn 2
          number of atoms            :                    28
          number of electrons        :                    84
          charge                     :                     0
          spin                       :                   0.0

   ID    Z sym.   atoms
    1    9 F      1
    2    6 C      2-5, 7-9, 11-17
    3    7 N      6, 10
    4    1 H      18-28

          :  Hamiltonian                  GFN2-xTB          :
 * total energy  :   -46.1782083 Eh     change       -0.2752998E-09 Eh
 * total energy  :   -46.1848576 Eh     change       -0.6649287E-02 Eh
 * total energy  :   -46.1862545 Eh     change       -0.1396954E-02 Eh
 * total energy  :   -46.1864273 Eh     change       -0.1727793E-03 Eh
 * total energy  :   -46.1865614 Eh     change       -0.1340914E-03 Eh
 * total energy  :   -46.1866374 Eh     change       -0.7602327E-04 Eh
 * total energy  :   -46.1867337 Eh     change       -0.9623864E-04 Eh
 * total energy  :   -46.1868138 Eh     change       -0.8012289E-04 Eh
 * total energy  :   -46.1868510 Eh     change       -0.3719361E-04 Eh
 * total energy  :   -46.1868768 Eh     change       -0.2579444E-04 Eh
 * total energy  :   -46.1868897 Eh     change       -0.1288228E-04 Eh
 * total energy  :   -46.1869031 Eh     change       -0.1345013E-04 Eh
 * total energy  :   -46.1869171 Eh     change       -0.1401383E-04 Eh
 * total energy  :   -46.1869308 Eh     change       -0.1362555E-04 Eh
 * total energy  :   -46.1869426 Eh     change       -0.1179203E-04 Eh
 * total energy  :   -46.1869495 Eh     change       -0.6941002E-05 Eh
 * total energy  :   -46.1869532 Eh     change       -0.3675675E-05 Eh
   *** GEOMETRY OPTIMIZATION CONVERGED AFTER 17 ITERATIONS ***

 final structure:
================
28
 xtb: 6.3.3 (4ae9cef)
F        -5.52850871229174    1.40838305487945   -0.09740845180232
C        -4.27773675783398    0.89338157508000   -0.16923173620386
C        -4.12262277111136   -0.46905688981411   -0.26624177245013
C        -2.81970316080611   -0.95744712013405   -0.33288723809912
C        -1.71718830759364   -0.06610775652869   -0.27594516146999
N        -0.56814411902875   -0.82194459816933   -0.36664638114537
C        -0.93236732220253   -2.14114280726790   -0.51052607599294
C        -2.28222440147859   -2.26819500340021   -0.47916349789616
C         0.75911171825106   -0.40948255488759   -0.29954731109921
N         1.62453541664547   -1.15853723342469   -0.97318419087989
C         2.90267774889059   -0.83536194372115   -0.94537469419669
C         3.41502105836407    0.25431416869230   -0.25090917798480
C         4.87618504841691    0.57130832739426   -0.25022123145621
C         2.50339023275441    1.01454845185338    0.47768587215213
C         1.16225494264406    0.68523154612697    0.46727084072371
C        -1.91144192255706    1.30920716577636   -0.22389686396471
C        -3.20537930801678    1.78324528180533   -0.16368171432942
H        -4.97805319817105   -1.12413906829581   -0.29923925393656
H        -0.16696515566575   -2.88488351202649   -0.61123226251853
H        -2.84280027489461   -3.17833610876459   -0.55108218759191
H         3.55349870589736   -1.48704720253682   -1.51465109888667
H         5.36590158178542    0.13851496073542   -1.11891725892974
H         5.03696380945809    1.64734778815377   -0.24984826880883
H         5.34595134658307    0.16161830162367    0.64465050709143
H         2.84818857799698    1.85571346229924    1.06276514859444
H         0.45291186443596    1.23384917480024    1.06445643130735
H        -1.08705092775251    2.00334946673466   -0.25718627711307
H        -3.40640371271952    2.84167007301671   -0.11936769311321

          :  Hamiltonian                  GFN2-xTB          :
         :: total energy             -46.186953173208 Eh    ::
         :: gradient norm              0.000317746534 Eh/a0 ::
         :: HOMO-LUMO gap              3.102780136018 eV    ::
         :: SCC energy               -46.930223450252 Eh    ::
         :: -> dispersion             -0.029715853136 Eh    ::
         :: repulsion energy           0.743386461515 Eh    ::

    * Orbital Energies and Occupations

         #    Occupation            Energy/Eh            Energy/eV
      -------------------------------------------------------------
         1        2.0000           -0.8026146             -21.8403
       ...           ...                  ...                  ...
        30        2.0000           -0.4754608             -12.9379
        31        2.0000           -0.4690512             -12.7635
        32        2.0000           -0.4662445             -12.6872
        33        2.0000           -0.4588767             -12.4867
        34        2.0000           -0.4578536             -12.4588
        35        2.0000           -0.4514241             -12.2839
        36        2.0000           -0.4422659             -12.0347
        37        2.0000           -0.4349613             -11.8359
        38        2.0000           -0.4260225             -11.5927
        39        2.0000           -0.4152117             -11.2985
        40        2.0000           -0.3881895             -10.5632
        41        2.0000           -0.3823748             -10.4049
        42        2.0000           -0.3732008             -10.1553 (HOMO)
        43                         -0.2591758              -7.0525 (LUMO)
        44                         -0.2502815              -6.8105
        45                         -0.2383430              -6.4856
        46                         -0.2029356              -5.5222
        47                         -0.1649513              -4.4886
        48                         -0.1146237              -3.1191
        49                         -0.0820276              -2.2321
        50                          0.0137855               0.3751
        51                          0.0563724               1.5340
        52                          0.0923487               2.5129
        53                          0.1124428               3.0597
       ...                                ...                  ...
        79                          0.7228175              19.6689
      -------------------------------------------------------------
                  HL-Gap            0.1140251 Eh            3.1028 eV

     #   Z          covCN         q      C6AA      Î±(0)
     1   9 F        0.787    -0.236    11.611     4.025
     2   6 C        2.787     0.159    24.544     8.115
     3   6 C        2.909    -0.057    29.406     8.892
     4   6 C        3.122    -0.006    27.979     8.662
     5   6 C        3.080     0.033    27.185     8.548
     6   7 N        2.833    -0.012    21.492     6.885
     7   6 C        3.040     0.003    27.912     8.665
     8   6 C        3.001    -0.067    29.667     8.935
     9   6 C        2.904     0.142    24.914     8.184
    10   7 N        1.846    -0.243    27.200     7.729
    11   6 C        2.912     0.052    26.840     8.495
    12   6 C        2.961     0.003    27.960     8.673
    13   6 C        3.757    -0.111    22.671     6.789
    14   6 C        2.935    -0.022    28.556     8.764
    15   6 C        2.913    -0.058    29.452     8.899
    16   6 C        2.912    -0.048    29.194     8.860
    17   6 C        2.921    -0.056    29.403     8.892
    18   1 H        0.926     0.056     2.243     2.342
    19   1 H        0.926     0.058     2.216     2.328
    20   1 H        0.926     0.041     2.434     2.440
    21   1 H        0.925     0.042     2.418     2.432
    22   1 H        0.925     0.048     2.351     2.398
    23   1 H        0.925     0.049     2.330     2.387
    24   1 H        0.924     0.053     2.281     2.362
    25   1 H        0.926     0.039     2.458     2.452
    26   1 H        0.926     0.045     2.385     2.415
    27   1 H        0.926     0.039     2.458     2.452
    28   1 H        0.926     0.054     2.271     2.356

Wiberg/Mayer (AO) data.
largest (>0.10) Wiberg bond orders for each atom

     #   Z sym  total        # sym  WBO       # sym  WBO       # sym  WBO
 ---------------------------------------------------------------------------
     1   9 F    1.072 --     2 C    0.949
     2   6 C    3.876 --     3 C    1.451    17 C    1.344     1 F    0.949
     3   6 C    3.987 --     2 C    1.451     4 C    1.336    18 H    0.966
                            16 C    0.109
     4   6 C    3.982 --     3 C    1.336     5 C    1.248     8 C    1.212
     5   6 C    3.957 --    16 C    1.355     4 C    1.248     6 N    1.133
     6   7 N    3.626 --     7 C    1.159     5 C    1.133     9 C    1.068
     7   6 C    3.952 --     8 C    1.632     6 N    1.159    19 H    0.966
     8   6 C    3.972 --     7 C    1.632     4 C    1.212    20 H    0.972
     9   6 C    3.968 --    10 N    1.376    15 C    1.346     6 N    1.068
    10   7 N    3.057 --    11 C    1.442     9 C    1.376
    11   6 C    3.981 --    10 N    1.442    12 C    1.397    21 H    0.961
                            15 C    0.109
    12   6 C    3.974 --    11 C    1.397    14 C    1.394    13 C    1.028
    13   6 C    3.995 --    12 C    1.028    22 H    0.983    23 H    0.979
                            24 H    0.966
    14   6 C    3.990 --    15 C    1.469    12 C    1.394    25 H    0.968
    15   6 C    3.987 --    14 C    1.469     9 C    1.346    26 H    0.964
                            11 C    0.109
    16   6 C    3.988 --    17 C    1.479     5 C    1.355    27 H    0.964
                             3 C    0.109
    17   6 C    3.986 --    16 C    1.479     2 C    1.344    28 H    0.968
    18   1 H    0.996 --     3 C    0.966
    19   1 H    0.996 --     7 C    0.966
    20   1 H    0.997 --     8 C    0.972
    21   1 H    0.998 --    11 C    0.961
    22   1 H    0.997 --    13 C    0.983
    23   1 H    0.997 --    13 C    0.979
    24   1 H    0.995 --    13 C    0.966
    25   1 H    0.998 --    14 C    0.968
    26   1 H    0.998 --    15 C    0.964
    27   1 H    0.998 --    16 C    0.964
    28   1 H    0.997 --    17 C    0.968
 ---------------------------------------------------------------------------

molecular dipole:
                 x           y           z       tot (Debye)
 q only:        1.685      -0.152       0.182
   full:        1.948       0.163       0.379       5.062

           -------------------------------------------------
          | TOTAL ENERGY              -46.186953173208 Eh   |
          | GRADIENT NORM               0.000317746534 Eh/Î± |
          | HOMO-LUMO GAP               3.102780136018 eV   |
           -------------------------------------------------

 * finished run on 2022/03/17 at 02:20:36.327
