   * xtb version 6.3.3 (4ae9cef) compiled by 'conda@95abc7406d43' on 2020-10-14
          program call               : xtb acid_370.xyz --opt --chrg 0 --uhf 0 --gfn 2
          number of atoms            :                    72
          number of electrons        :                   226
          charge                     :                     0
          spin                       :                   0.0

   ID    Z sym.   atoms
    1    6 C      1-22, 24-26, 28-31, 33, 34, 38-44
    2    7 N      23, 37
    3   53 I      27, 45
    4    8 O      32, 35, 36, 46
    5    1 H      47-72

          :  Hamiltonian                  GFN2-xTB          :
 * total energy  :  -124.3801946 Eh     change       -0.2901146E-08 Eh
 * total energy  :  -124.4004018 Eh     change       -0.2020721E-01 Eh
 * total energy  :  -124.4067185 Eh     change       -0.6316741E-02 Eh
 * total energy  :  -124.4087698 Eh     change       -0.2051205E-02 Eh
 * total energy  :  -124.4099430 Eh     change       -0.1173211E-02 Eh
 * total energy  :  -124.4103356 Eh     change       -0.3926327E-03 Eh
 * total energy  :  -124.4106472 Eh     change       -0.3116157E-03 Eh
 * total energy  :  -124.4110441 Eh     change       -0.3968468E-03 Eh
 * total energy  :  -124.4115804 Eh     change       -0.5363440E-03 Eh
 * total energy  :  -124.4121839 Eh     change       -0.6034549E-03 Eh
 * total energy  :  -124.4197999 Eh     change       -0.1177305E-04 Eh
 * total energy  :  -124.4197993 Eh     change        0.5762585E-06 Eh
 * total energy  :  -124.4198094 Eh     change       -0.1011143E-04 Eh
 * total energy  :  -124.4198153 Eh     change       -0.5860148E-05 Eh
 * total energy  :  -124.4198156 Eh     change       -0.2876811E-06 Eh
 * total energy  :  -124.4198208 Eh     change       -0.5175296E-05 Eh
 * total energy  :  -124.4198209 Eh     change       -0.9837630E-07 Eh
 * total energy  :  -124.4198260 Eh     change       -0.5087864E-05 Eh
 * total energy  :  -124.4198264 Eh     change       -0.4320518E-06 Eh
   *** GEOMETRY OPTIMIZATION CONVERGED AFTER 82 ITERATIONS ***

 final structure:
================
72
 xtb: 6.3.3 (4ae9cef)
C        -3.68989134581433   -4.07791188546357   -1.61531166987312
C        -3.26348604814999   -4.91925925664566   -0.62883832612999
C        -2.34287859350234   -4.46232433177617    0.32408172896197
C        -1.86544695731185   -3.18288673698169    0.27564376401771
C        -2.27348041141097   -2.28594158336943   -0.73637480981676
C        -3.20893961796145   -2.75434818093707   -1.70063775383798
C        -3.63148491232377   -1.90185833829972   -2.74096830274094
C        -3.12918624969727   -0.63753419299360   -2.85065034786313
C        -2.18998645624274   -0.17825560358866   -1.92058304251850
C        -1.77944919285496   -0.96019644214531   -0.87034699069403
C        -0.73738058957864   -0.41883989258125    0.07047676652701
C         0.68266599772640   -0.49623423255978   -0.53725881671285
C         1.42844565920547   -1.70360085690106   -0.02810929399365
C         2.18359095887988   -1.60805030965604    1.11165522452378
C         2.83368277782132   -2.72337149327447    1.65444209661435
C         2.69184296253797   -3.94648031024565    1.06690986329088
C         1.91096052455474   -4.09638996381967   -0.09777414555463
C         1.28153140937514   -2.96028381048996   -0.67769353637077
C         0.53006595277657   -3.15428057449860   -1.85776015313461
C         0.37853456777649   -4.39704517791864   -2.40621342708539
C         0.97794496915738   -5.51732772909706   -1.81532657136891
C         1.73722916261291   -5.36433995188658   -0.69120464798062
N         1.28834455057512    0.78367151917260   -0.17799328546695
C         2.39648691930900    1.21089441214276   -0.84239912731364
C         2.75323989704411    2.65199761693287   -0.62436828150102
C         3.70650595324297    3.04883970236863    0.29836229822878
I         4.63742740854173    1.60525793494813    1.52969487210091
C         4.04996070392230    4.38174181500104    0.43943910818091
C         3.43572277100380    5.33196389272241   -0.35711834342022
C         2.49021797527210    4.95041535729179   -1.29427117961033
C         2.15569958379265    3.61555767441834   -1.43090375988696
O         3.02814469989266    0.48455978008216   -1.57408732106951
C         0.38164120308010    1.61133151590855    0.57694996858892
C         0.74748246781090    1.59455853810905    2.07845457727210
O         1.51824103013238    2.63249895384443    2.39493449066830
O         0.38578898180184    0.76163175049585    2.85794763149321
N        -0.90652439903940    1.00370864762700    0.36328946754508
C        -2.06117685920567    1.47280264846693    0.91461701161793
C        -1.94519306733082    2.85402764778341    1.49840180266319
C        -1.97451733413796    2.96880191253438    2.88441638479621
C        -1.88725469876936    4.20922689444846    3.49034839333399
C        -1.78675519349912    5.35171031046622    2.71439848005343
C        -1.78136427097261    5.25559427524782    1.33388310136603
C        -1.86167405349259    4.00989828748356    0.73739680466509
I        -1.85815901908606    3.89723881116921   -1.37442062787209
O        -3.08930330046374    0.84027861400272    0.94716246577744
H        -4.40175021931142   -4.41407186034760   -2.35590853796765
H        -3.63046074149304   -5.93352840890085   -0.57389273758995
H        -2.00851444781634   -5.13167029033204    1.10289334191508
H        -1.15421948375428   -2.87189319707735    1.02447089740863
H        -4.35269986397854   -2.27310364632861   -3.45482914174965
H        -3.44205653449640    0.01585287574041   -3.65117861853753
H        -1.78868160179119    0.81774238694152   -2.03600110893943
H        -0.75786771544262   -0.95570464483272    1.02514223891780
H         0.63669238292170   -0.52487918005021   -1.63201274315875
H         2.28527372347669   -0.65896526514172    1.61435508979102
H         3.43280473922193   -2.60103339602325    2.54404203336690
H         3.17152604256140   -4.81943800088704    1.48548113091795
H         0.05897417781834   -2.31645682587900   -2.34584895299575
H        -0.20950823155360   -4.51965164737000   -3.30362402725919
H         0.84152936284627   -6.49268967746815   -2.25851235812240
H         2.21844731472508   -6.21611264210110   -0.23185701943902
H         4.79432862859580    4.67581766215205    1.16327326997628
H         3.70421342931631    6.37156903410627   -0.24687204056986
H         2.01487291681442    5.68796914382153   -1.92200966647618
H         1.43001440455473    3.30880920300137   -2.17023503695908
H         0.42380002165008    2.65421475136392    0.23641145600293
H         1.79636864630971    2.59348523729354    3.32651925012530
H        -2.06436630773789    2.06994035752745    3.47582732169038
H        -1.90473670632195    4.28353051859856    4.56670960504988
H        -1.72193777839179    6.32352995840704    3.17925083439142
H        -1.71991367572299    6.14529089625444    0.72610897969257

          :  Hamiltonian                  GFN2-xTB          :
         :: total energy            -124.419826384147 Eh    ::
         :: gradient norm              0.000772634077 Eh/a0 ::
         :: HOMO-LUMO gap              2.528271129366 eV    ::
         :: SCC energy              -126.346226745392 Eh    ::
         :: -> dispersion             -0.125339646868 Eh    ::
         :: repulsion energy           1.921574582036 Eh    ::

    * Orbital Energies and Occupations

         #    Occupation            Energy/Eh            Energy/eV
      -------------------------------------------------------------
         1        2.0000           -0.7894470             -21.4819
       ...           ...                  ...                  ...
       101        2.0000           -0.4199463             -11.4273
       102        2.0000           -0.4173294             -11.3561
       103        2.0000           -0.4167202             -11.3395
       104        2.0000           -0.4147496             -11.2859
       105        2.0000           -0.4128534             -11.2343
       106        2.0000           -0.4118228             -11.2063
       107        2.0000           -0.4091323             -11.1331
       108        2.0000           -0.4064164             -11.0592
       109        2.0000           -0.4045156             -11.0074
       110        2.0000           -0.4004781             -10.8976
       111        2.0000           -0.3998592             -10.8807
       112        2.0000           -0.3784319             -10.2977
       113        2.0000           -0.3754181             -10.2156 (HOMO)
       114                         -0.2825059              -7.6874 (LUMO)
       115                         -0.2683168              -7.3013
       116                         -0.2638665              -7.1802
       117                         -0.2623526              -7.1390
       118                         -0.2610514              -7.1036
       119                         -0.2593430              -7.0571
       120                         -0.2586768              -7.0390
       121                         -0.2476372              -6.7386
       122                         -0.2426338              -6.6024
       123                         -0.2284391              -6.2161
       124                         -0.2280177              -6.2047
       ...                                ...                  ...
       220                          0.6966935              18.9580
      -------------------------------------------------------------
                  HL-Gap            0.0929123 Eh            2.5283 eV

     #   Z          covCN         q      C6AA      α(0)
     1   6 C        2.921    -0.034    28.836     8.806
     2   6 C        2.915    -0.029    28.716     8.787
     3   6 C        2.917    -0.028    28.694     8.784
     4   6 C        2.917    -0.032    28.798     8.800
     5   6 C        2.983     0.014    27.700     8.633
     6   6 C        2.989     0.017    27.616     8.620
     7   6 C        2.921    -0.034    28.844     8.807
     8   6 C        2.914    -0.028    28.697     8.784
     9   6 C        2.923    -0.031    28.762     8.795
    10   6 C        2.968     0.007    27.858     8.658
    11   6 C        3.831     0.049    19.738     6.321
    12   6 C        3.825     0.048    19.756     6.325
    13   6 C        2.967     0.002    27.984     8.677
    14   6 C        2.922    -0.028    28.694     8.784
    15   6 C        2.914    -0.027    28.688     8.783
    16   6 C        2.921    -0.034    28.858     8.809
    17   6 C        2.989     0.017    27.633     8.623
    18   6 C        2.984     0.011    27.757     8.642
    19   6 C        2.917    -0.033    28.823     8.804
    20   6 C        2.917    -0.028    28.693     8.784
    21   6 C        2.915    -0.029    28.714     8.787
    22   6 C        2.921    -0.034    28.841     8.807
    23   7 N        2.762    -0.118    23.559     7.209
    24   6 C        2.784     0.280    22.265     7.729
    25   6 C        3.103    -0.022    28.410     8.734
    26   6 C        2.959     0.058    26.695     8.475
    27  53 I        1.246    -0.122   381.020    33.696
    28   6 C        3.053    -0.031    28.713     8.788
    29   6 C        2.923    -0.026    28.649     8.778
    30   6 C        2.918    -0.027    28.676     8.781
    31   6 C        2.927    -0.027    28.680     8.782
    32   8 O        0.859    -0.400    21.670     6.241
    33   6 C        3.763     0.095    19.046     6.221
    34   6 C        2.688     0.349    21.072     7.513
    35   8 O        1.660    -0.370    20.273     6.078
    36   8 O        0.856    -0.373    21.152     6.166
    37   7 N        2.764    -0.119    23.578     7.212
    38   6 C        2.776     0.282    22.233     7.723
    39   6 C        3.094    -0.026    28.528     8.754
    40   6 C        2.929    -0.024    28.603     8.771
    41   6 C        2.918    -0.027    28.684     8.783
    42   6 C        2.923    -0.026    28.657     8.779
    43   6 C        3.061    -0.032    28.729     8.790
    44   6 C        2.959     0.048    26.924     8.511
    45  53 I        1.237    -0.122   381.004    33.695
    46   8 O        0.858    -0.396    21.603     6.232
    47   1 H        0.926     0.035     2.515     2.480
    48   1 H        0.926     0.033     2.541     2.493
    49   1 H        0.926     0.032     2.554     2.499
    50   1 H        0.926     0.028     2.608     2.525
    51   1 H        0.926     0.037     2.490     2.468
    52   1 H        0.926     0.038     2.474     2.460
    53   1 H        0.926     0.036     2.500     2.472
    54   1 H        0.924     0.062     2.180     2.309
    55   1 H        0.924     0.065     2.142     2.289
    56   1 H        0.926     0.031     2.571     2.508
    57   1 H        0.926     0.039     2.460     2.453
    58   1 H        0.926     0.037     2.483     2.464
    59   1 H        0.926     0.028     2.618     2.530
    60   1 H        0.926     0.032     2.560     2.502
    61   1 H        0.926     0.033     2.538     2.491
    62   1 H        0.926     0.035     2.510     2.477
    63   1 H        0.926     0.057     2.240     2.340
    64   1 H        0.926     0.049     2.334     2.389
    65   1 H        0.926     0.052     2.292     2.367
    66   1 H        0.926     0.051     2.302     2.373
    67   1 H        0.924     0.062     2.178     2.308
    68   1 H        0.804     0.350     0.588     1.205
    69   1 H        0.926     0.057     2.231     2.336
    70   1 H        0.926     0.050     2.318     2.381
    71   1 H        0.926     0.050     2.322     2.383
    72   1 H        0.926     0.056     2.243     2.342

Wiberg/Mayer (AO) data.
largest (>0.10) Wiberg bond orders for each atom

     #   Z sym  total        # sym  WBO       # sym  WBO       # sym  WBO
 ---------------------------------------------------------------------------
     1   6 C    3.991 --     2 C    1.558     6 C    1.279    47 H    0.968
                             4 C    0.118
     2   6 C    3.992 --     1 C    1.558     3 C    1.322    48 H    0.971
     3   6 C    3.991 --     4 C    1.555     2 C    1.322    49 H    0.971
     4   6 C    3.992 --     3 C    1.555     5 C    1.282    50 H    0.961
                             1 C    0.118
     5   6 C    3.988 --     4 C    1.282     6 C    1.252    10 C    1.251
     6   6 C    3.990 --     7 C    1.280     1 C    1.279     5 C    1.252
     7   6 C    3.990 --     8 C    1.551     6 C    1.280    51 H    0.968
                            10 C    0.114
     8   6 C    3.992 --     7 C    1.551     9 C    1.328    52 H    0.970
     9   6 C    3.990 --    10 C    1.522     8 C    1.328    53 H    0.963
    10   6 C    3.983 --     9 C    1.522     5 C    1.251    11 C    0.994
                             7 C    0.114
    11   6 C    3.956 --    10 C    0.994    12 C    0.948    37 N    0.947
                            54 H    0.946
    12   6 C    3.955 --    13 C    0.990    23 N    0.951    11 C    0.948
                            55 H    0.946
    13   6 C    3.983 --    14 C    1.529    18 C    1.249    12 C    0.990
                            16 C    0.114
    14   6 C    3.991 --    13 C    1.529    15 C    1.323    56 H    0.964
    15   6 C    3.992 --    16 C    1.556    14 C    1.323    57 H    0.970
    16   6 C    3.990 --    15 C    1.556    17 C    1.278    58 H    0.968
                            13 C    0.114
    17   6 C    3.990 --    22 C    1.280    16 C    1.278    18 C    1.254
    18   6 C    3.988 --    19 C    1.284    17 C    1.254    13 C    1.249
    19   6 C    3.992 --    20 C    1.553    18 C    1.284    59 H    0.962
                            22 C    0.118
    20   6 C    3.992 --    19 C    1.553    21 C    1.323    60 H    0.971
    21   6 C    3.992 --    22 C    1.556    20 C    1.323    61 H    0.971
    22   6 C    3.991 --    21 C    1.556    17 C    1.280    62 H    0.968
                            19 C    0.118
    23   7 N    3.460 --    24 C    1.200    33 C    0.985    12 C    0.951
                            32 O    0.191
    24   6 C    3.947 --    32 O    1.713    23 N    1.200    25 C    0.951
    25   6 C    3.987 --    26 C    1.403    31 C    1.396    24 C    0.951
                            29 C    0.108
    26   6 C    3.956 --    28 C    1.420    25 C    1.403    27 I    0.969
                            30 C    0.102
    27  53 I    1.113 --    26 C    0.969
    28   6 C    3.989 --    29 C    1.439    26 C    1.420    63 H    0.967
                            31 C    0.110
    29   6 C    3.991 --    28 C    1.439    30 C    1.433    64 H    0.968
                            25 C    0.108
    30   6 C    3.991 --    31 C    1.443    29 C    1.433    65 H    0.968
                            26 C    0.102
    31   6 C    3.990 --    30 C    1.443    25 C    1.396    66 H    0.965
                            28 C    0.110
    32   8 O    2.047 --    24 C    1.713    23 N    0.191
    33   6 C    3.974 --    37 N    0.991    23 N    0.985    67 H    0.941
                            34 C    0.903
    34   6 C    3.918 --    36 O    1.791    35 O    1.149    33 C    0.903
    35   8 O    2.219 --    34 C    1.149    68 H    0.851    36 O    0.182
    36   8 O    2.076 --    34 C    1.791    35 O    0.182
    37   7 N    3.446 --    38 C    1.194    33 C    0.991    11 C    0.947
                            46 O    0.188
    38   6 C    3.949 --    46 O    1.723    37 N    1.194    39 C    0.950
    39   6 C    3.986 --    44 C    1.400    40 C    1.398    38 C    0.950
                            42 C    0.108
    40   6 C    3.989 --    41 C    1.443    39 C    1.398    69 H    0.966
                            43 C    0.110
    41   6 C    3.991 --    40 C    1.443    42 C    1.435    70 H    0.969
                            44 C    0.102
    42   6 C    3.991 --    43 C    1.436    41 C    1.435    71 H    0.968
                            39 C    0.108
    43   6 C    3.989 --    42 C    1.436    44 C    1.423    72 H    0.968
                            40 C    0.110
    44   6 C    3.954 --    43 C    1.423    39 C    1.400    45 I    0.965
                            41 C    0.102
    45  53 I    1.111 --    44 C    0.965
    46   8 O    2.051 --    38 C    1.723    37 N    0.188
    47   1 H    0.998 --     1 C    0.968
    48   1 H    0.998 --     2 C    0.971
    49   1 H    0.998 --     3 C    0.971
    50   1 H    0.999 --     4 C    0.961
    51   1 H    0.998 --     7 C    0.968
    52   1 H    0.998 --     8 C    0.970
    53   1 H    0.998 --     9 C    0.963
    54   1 H    0.995 --    11 C    0.946
    55   1 H    0.995 --    12 C    0.946
    56   1 H    0.999 --    14 C    0.964
    57   1 H    0.997 --    15 C    0.970
    58   1 H    0.998 --    16 C    0.968
    59   1 H    0.999 --    19 C    0.962
    60   1 H    0.999 --    20 C    0.971
    61   1 H    0.998 --    21 C    0.971
    62   1 H    0.998 --    22 C    0.968
    63   1 H    0.996 --    28 C    0.967
    64   1 H    0.997 --    29 C    0.968
    65   1 H    0.995 --    30 C    0.968
    66   1 H    0.997 --    31 C    0.965
    67   1 H    0.996 --    33 C    0.941
    68   1 H    0.877 --    35 O    0.851
    69   1 H    0.997 --    40 C    0.966
    70   1 H    0.996 --    41 C    0.969
    71   1 H    0.997 --    42 C    0.968
    72   1 H    0.996 --    43 C    0.968
 ---------------------------------------------------------------------------

molecular dipole:
                 x           y           z       tot (Debye)
 q only:        0.173       1.187       0.677
   full:       -0.088       1.942       1.114       5.695

           -------------------------------------------------
          | TOTAL ENERGY             -124.419826384147 Eh   |
          | GRADIENT NORM               0.000772634077 Eh/α |
          | HOMO-LUMO GAP               2.528271129366 eV   |
           -------------------------------------------------

 * finished run on 2022/03/17 at 00:22:09.955
