   * xtb version 6.3.3 (4ae9cef) compiled by 'conda@95abc7406d43' on 2020-10-14
          program call               : xtb acid_176.xyz --opt --chrg 0 --uhf 0 --gfn 2
          number of atoms            :                    74
          number of electrons        :                   250
          charge                     :                     0
          spin                       :                   0.0

   ID    Z sym.   atoms
    1    6 C      1, 3-16, 18, 20-23, 27-30, 32, 33, 37-44
    2    8 O      2, 17, 31, 34, 35, 48
    3    7 N      19, 36
    4    9 F      24-26, 45-47
    5    1 H      49-74

          :  Hamiltonian                  GFN2-xTB          :
 * total energy  :  -144.7360520 Eh     change       -0.2021267E-08 Eh
 * total energy  :  -144.7537132 Eh     change       -0.1766122E-01 Eh
 * total energy  :  -144.7603006 Eh     change       -0.6587456E-02 Eh
 * total energy  :  -144.7625865 Eh     change       -0.2285892E-02 Eh
 * total energy  :  -144.7641643 Eh     change       -0.1577813E-02 Eh
 * total energy  :  -144.7650311 Eh     change       -0.8668027E-03 Eh
 * total energy  :  -144.7656173 Eh     change       -0.5861601E-03 Eh
 * total energy  :  -144.7661160 Eh     change       -0.4986886E-03 Eh
 * total energy  :  -144.7666728 Eh     change       -0.5567804E-03 Eh
 * total energy  :  -144.7673391 Eh     change       -0.6663004E-03 Eh
 * total energy  :  -144.7800189 Eh     change       -0.1013670E-04 Eh
 * total energy  :  -144.7800279 Eh     change       -0.9035699E-05 Eh
 * total energy  :  -144.7800372 Eh     change       -0.9265179E-05 Eh
 * total energy  :  -144.7800489 Eh     change       -0.1177847E-04 Eh
 * total energy  :  -144.7800629 Eh     change       -0.1390366E-04 Eh
 * total energy  :  -144.7800751 Eh     change       -0.1224690E-04 Eh
 * total energy  :  -144.7800849 Eh     change       -0.9755546E-05 Eh
 * total energy  :  -144.7800915 Eh     change       -0.6655211E-05 Eh
 * total energy  :  -144.7800956 Eh     change       -0.4123807E-05 Eh
   *** GEOMETRY OPTIMIZATION CONVERGED AFTER 122 ITERATIONS ***

 final structure:
================
74
 xtb: 6.3.3 (4ae9cef)
C        -2.47119377553759   -0.79066970116570   -1.64656249876905
O        -1.85976139727954    0.15761568024203   -2.41337050101887
C        -2.55192293646661    0.66630409072694   -3.53142092037561
C        -3.64102765344467   -1.44608082168019   -2.01263169276322
C        -4.20661817648426   -2.39269010032793   -1.17612904694615
C        -3.61175948094070   -2.70320537898325    0.03099615097863
C        -2.44595880523745   -2.05530901257965    0.39855161783003
C        -1.86757134751569   -1.09643721657355   -0.41760697270066
C        -0.59702314993617   -0.43103361782277    0.03039069361044
C         0.64332533573182   -0.93175282248305   -0.74712809153089
C         1.22331686871548   -2.20288224704423   -0.19946911514358
C         1.29360739617977   -3.31981786491318   -1.01472357129885
C         1.80643556762823   -4.51802689570387   -0.55076481216613
C         2.26291099210687   -4.59845800489809    0.75023067293098
C         2.19715687596057   -3.49756691499007    1.58543770125485
C         1.67561032526138   -2.29287904159121    1.12744573671359
O         1.55478792329607   -1.17664133785755    1.88915916851019
C         1.94504338427043   -1.22838153217367    3.24233668430943
N         1.52468928188380    0.23111512044078   -0.69766547918380
C         2.87363902623211    0.19320806065370   -0.75210906488700
C         3.52975314690251    1.55218197125054   -0.82705220337479
C         3.91587067593233    2.27112678355884    0.30335285880163
C         3.60521443975128    1.72760124340195    1.67053823272970
F         4.14624890375043    0.52092947110884    1.89141341026804
F         4.05931258163147    2.51701440495093    2.65900144112257
F         2.28324965037462    1.60359876388557    1.87662706746428
C         4.57632728288455    3.48611845808912    0.17663833375504
C         4.86364479839966    3.98639763682685   -1.08041456231544
C         4.50490593492168    3.26843286724286   -2.20855427663766
C         3.84825238773001    2.05713692266417   -2.08157949878977
O         3.53108503049599   -0.82130647620261   -0.79068628248268
C         0.70026688119639    1.39969952727460   -0.80124286909214
C         0.41253529335301    1.78572225916407   -2.26756668984000
O         1.05720427575828    0.99704158758657   -3.12988906515229
O        -0.29444194493451    2.68695215297177   -2.61301578050041
N        -0.54345664422126    1.01082352809742   -0.16694707989553
C        -1.33099992445436    1.93918059344977    0.42391504146575
C        -2.63209779697791    1.38902865532911    0.94552128926985
C        -3.73276908720866    1.50031539264025    0.10183662879501
C        -4.97056133471280    1.02190484847483    0.48557927144731
C        -5.13327669629912    0.43797703216911    1.73160900057451
C        -4.05960494366252    0.35518177979266    2.59587902318837
C        -2.81215929052279    0.83383710857104    2.20666012584740
C        -1.69786389305145    0.70630697544226    3.20644572549759
F        -1.37917919186834   -0.59313636291769    3.42439421104717
F        -0.56233416136003    1.31403701722854    2.86721038635400
F        -2.04973326767636    1.18975150324709    4.41128488603091
O        -1.07301741917738    3.12066556975770    0.43755446277120
H        -3.58001559318877    0.93755125637311   -3.27752020185787
H        -2.55825713402509   -0.05183359734625   -4.35825965881999
H        -2.01516381390172    1.56735459932647   -3.82598056145921
H        -4.11634406942133   -1.23195529104437   -2.95649344321221
H        -5.11620214374636   -2.88873676009463   -1.47924038242105
H        -4.04902106803596   -3.44234360427139    0.68323437002954
H        -1.97347178868655   -2.29137491679314    1.34012417875129
H        -0.43881743316429   -0.64741533262280    1.09128988052606
H         0.35949940923065   -1.09730373946194   -1.79573677184353
H         0.94446439808169   -3.24572677114470   -2.03447125979124
H         1.85604496456770   -5.37582814671036   -1.20336558220901
H         2.67681231916347   -5.52256413055644    1.12558321569701
H         2.56467056185815   -3.58287011899165    2.59521366963387
H         1.37018352351317   -1.98042799274269    3.79231112419403
H         1.72234259205344   -0.24151674656037    3.64372029420419
H         3.01502464347481   -1.42938758871359    3.34169744489796
H         4.86410456982025    4.03313719784803    1.06094277902911
H         5.37480659799431    4.93161466432432   -1.17548029924486
H         4.74156065656338    3.65045402036921   -3.19000420439655
H         3.58175975881364    1.48347718148811   -2.95566320202829
H         1.10726094787215    2.28402130668276   -0.29228579065020
H         0.84197794237590    1.24385675528633   -4.04417038542552
H        -3.59647810926583    1.97387134009249   -0.85819896437369
H        -5.81242592674020    1.10731656641034   -0.18457323248894
H        -6.09715967223804    0.06033019585743    2.03469775497315
H        -4.17721507435487   -0.07462900338598    3.57915248060745

          :  Hamiltonian                  GFN2-xTB          :
         :: total energy            -144.780095632664 Eh    ::
         :: gradient norm              0.000246992183 Eh/a0 ::
         :: HOMO-LUMO gap              2.826676030743 eV    ::
         :: SCC energy              -146.497962809993 Eh    ::
         :: -> dispersion             -0.114341847652 Eh    ::
         :: repulsion energy           1.712148898428 Eh    ::

    * Orbital Energies and Occupations

         #    Occupation            Energy/Eh            Energy/eV
      -------------------------------------------------------------
         1        2.0000           -0.8753734             -23.8201
       ...           ...                  ...                  ...
       113        2.0000           -0.4404260             -11.9846
       114        2.0000           -0.4389062             -11.9432
       115        2.0000           -0.4347809             -11.8310
       116        2.0000           -0.4322609             -11.7624
       117        2.0000           -0.4239008             -11.5349
       118        2.0000           -0.4201778             -11.4336
       119        2.0000           -0.4098625             -11.1529
       120        2.0000           -0.4042875             -11.0012
       121        2.0000           -0.4021505             -10.9431
       122        2.0000           -0.3986241             -10.8471
       123        2.0000           -0.3965508             -10.7907
       124        2.0000           -0.3926030             -10.6833
       125        2.0000           -0.3721611             -10.1270 (HOMO)
       126                         -0.2682826              -7.3003 (LUMO)
       127                         -0.2645030              -7.1975
       128                         -0.2614993              -7.1158
       129                         -0.2585761              -7.0362
       130                         -0.2551201              -6.9422
       131                         -0.2438534              -6.6356
       132                         -0.2331896              -6.3454
       133                         -0.2235278              -6.0825
       134                         -0.2189166              -5.9570
       135                         -0.2159901              -5.8774
       136                         -0.2096367              -5.7045
       ...                                ...                  ...
       218                          0.6687432              18.1974
      -------------------------------------------------------------
                  HL-Gap            0.1038784 Eh            2.8267 eV

     #   Z          covCN         q      C6AA      Î±(0)
     1   6 C        2.867     0.140    24.954     8.188
     2   8 O        1.705    -0.280    18.647     5.830
     3   6 C        3.643     0.036    20.303     6.478
     4   6 C        2.918    -0.067    29.679     8.934
     5   6 C        2.921    -0.032    28.806     8.801
     6   6 C        2.917    -0.041    29.008     8.832
     7   6 C        2.927    -0.039    28.958     8.825
     8   6 C        2.970    -0.025    28.632     8.777
     9   6 C        3.825     0.034    19.976     6.360
    10   6 C        3.844     0.051    19.696     6.313
    11   6 C        2.970    -0.011    28.292     8.725
    12   6 C        2.926    -0.031    28.780     8.798
    13   6 C        2.917    -0.040    28.991     8.829
    14   6 C        2.921    -0.029    28.715     8.788
    15   6 C        2.918    -0.063    29.561     8.916
    16   6 C        2.867     0.150    24.737     8.153
    17   8 O        1.705    -0.265    18.386     5.789
    18   6 C        3.644     0.037    20.294     6.476
    19   7 N        2.767    -0.091    23.005     7.124
    20   6 C        2.757     0.278    22.301     7.733
    21   6 C        2.975    -0.010    28.257     8.720
    22   6 C        2.977    -0.024    28.604     8.773
    23   6 C        3.336     0.487    17.272     6.583
    24   9 F        0.791    -0.200    11.237     3.960
    25   9 F        0.792    -0.208    11.316     3.974
    26   9 F        0.791    -0.206    11.300     3.971
    27   6 C        2.921    -0.022    28.552     8.763
    28   6 C        2.920    -0.022    28.565     8.765
    29   6 C        2.919    -0.020    28.502     8.755
    30   6 C        2.926    -0.024    28.602     8.770
    31   8 O        0.858    -0.402    21.729     6.250
    32   6 C        3.785     0.089    19.121     6.228
    33   6 C        2.689     0.356    20.958     7.492
    34   8 O        1.659    -0.364    20.169     6.063
    35   8 O        0.856    -0.375    21.194     6.172
    36   7 N        2.767    -0.098    23.162     7.148
    37   6 C        2.764     0.277    22.314     7.736
    38   6 C        2.974    -0.001    28.043     8.686
    39   6 C        2.929    -0.018    28.459     8.749
    40   6 C        2.919    -0.020    28.509     8.756
    41   6 C        2.920    -0.023    28.586     8.768
    42   6 C        2.925    -0.021    28.539     8.761
    43   6 C        2.977    -0.025    28.619     8.775
    44   6 C        3.337     0.487    17.257     6.577
    45   9 F        0.791    -0.218    11.421     3.992
    46   9 F        0.791    -0.194    11.171     3.948
    47   9 F        0.791    -0.205    11.285     3.968
    48   8 O        0.859    -0.402    21.716     6.248
    49   1 H        0.924     0.043     2.412     2.429
    50   1 H        0.924     0.040     2.449     2.447
    51   1 H        0.925     0.074     2.045     2.236
    52   1 H        0.926     0.044     2.398     2.421
    53   1 H        0.926     0.043     2.405     2.425
    54   1 H        0.926     0.044     2.390     2.418
    55   1 H        0.926     0.046     2.364     2.404
    56   1 H        0.924     0.075     2.037     2.232
    57   1 H        0.923     0.058     2.227     2.334
    58   1 H        0.926     0.034     2.527     2.486
    59   1 H        0.926     0.038     2.475     2.460
    60   1 H        0.926     0.040     2.453     2.449
    61   1 H        0.926     0.045     2.384     2.415
    62   1 H        0.924     0.040     2.452     2.449
    63   1 H        0.925     0.073     2.054     2.241
    64   1 H        0.924     0.050     2.321     2.382
    65   1 H        0.926     0.069     2.099     2.265
    66   1 H        0.926     0.057     2.229     2.335
    67   1 H        0.926     0.055     2.257     2.349
    68   1 H        0.926     0.057     2.236     2.338
    69   1 H        0.923     0.096     1.822     2.111
    70   1 H        0.804     0.339     0.614     1.231
    71   1 H        0.926     0.060     2.201     2.320
    72   1 H        0.926     0.054     2.266     2.354
    73   1 H        0.926     0.057     2.236     2.338
    74   1 H        0.926     0.063     2.163     2.300

Wiberg/Mayer (AO) data.
largest (>0.10) Wiberg bond orders for each atom

     #   Z sym  total        # sym  WBO       # sym  WBO       # sym  WBO
 ---------------------------------------------------------------------------
     1   6 C    3.935 --     4 C    1.381     8 C    1.324     2 O    1.058
     2   8 O    2.227 --     1 C    1.058     3 C    0.978
     3   6 C    3.940 --     2 O    0.978    50 H    0.977    49 H    0.976
                            51 H    0.973
     4   6 C    3.987 --     5 C    1.435     1 C    1.381    52 H    0.965
                             7 C    0.102
     5   6 C    3.990 --     6 C    1.442     4 C    1.435    53 H    0.970
                             8 C    0.106
     6   6 C    3.991 --     5 C    1.442     7 C    1.428    54 H    0.970
     7   6 C    3.988 --     8 C    1.432     6 C    1.428    55 H    0.967
                             4 C    0.102
     8   6 C    3.983 --     7 C    1.432     1 C    1.324     9 C    0.997
                             5 C    0.106
     9   6 C    3.962 --     8 C    0.997    36 N    0.957    10 C    0.947
                            56 H    0.945
    10   6 C    3.962 --    11 C    1.001    57 H    0.951    19 N    0.949
                             9 C    0.947
    11   6 C    3.980 --    12 C    1.435    16 C    1.318    10 C    1.001
                            14 C    0.105
    12   6 C    3.989 --    11 C    1.435    13 C    1.427    58 H    0.968
                            15 C    0.102
    13   6 C    3.991 --    14 C    1.441    12 C    1.427    59 H    0.971
    14   6 C    3.990 --    13 C    1.441    15 C    1.439    60 H    0.971
                            11 C    0.105
    15   6 C    3.987 --    14 C    1.439    16 C    1.376    61 H    0.965
                            12 C    0.102
    16   6 C    3.938 --    15 C    1.376    11 C    1.318    17 O    1.076
    17   8 O    2.252 --    16 C    1.076    18 C    0.976
    18   6 C    3.938 --    63 H    0.978    62 H    0.977    17 O    0.976
                            64 H    0.976
    19   7 N    3.490 --    20 C    1.229    32 C    1.000    10 C    0.949
                            31 O    0.199
    20   6 C    3.953 --    31 O    1.701    19 N    1.229    21 C    0.940
    21   6 C    3.984 --    30 C    1.410    22 C    1.385    20 C    0.940
                            28 C    0.111
    22   6 C    3.975 --    27 C    1.416    21 C    1.385    23 C    0.950
                            29 C    0.107
    23   6 C    3.827 --    24 F    0.950    22 C    0.950    25 F    0.946
                            26 F    0.944
    24   9 F    1.080 --    23 C    0.950
    25   9 F    1.069 --    23 C    0.946
    26   9 F    1.074 --    23 C    0.944
    27   6 C    3.987 --    28 C    1.441    22 C    1.416    65 H    0.965
                            30 C    0.111
    28   6 C    3.990 --    27 C    1.441    29 C    1.437    66 H    0.969
                            21 C    0.111
    29   6 C    3.990 --    30 C    1.442    28 C    1.437    67 H    0.968
                            22 C    0.107
    30   6 C    3.989 --    29 C    1.442    21 C    1.410    68 H    0.967
                            27 C    0.111
    31   8 O    2.041 --    20 C    1.701    19 N    0.199
    32   6 C    3.967 --    19 N    1.000    36 N    0.971    69 H    0.930
                            33 C    0.913
    33   6 C    3.920 --    35 O    1.789    34 O    1.143    32 C    0.913
    34   8 O    2.213 --    33 C    1.143    70 H    0.859    35 O    0.180
    35   8 O    2.072 --    33 C    1.789    34 O    0.180
    36   7 N    3.475 --    37 C    1.220    32 C    0.971     9 C    0.957
                            48 O    0.196
    37   6 C    3.953 --    48 O    1.703    36 N    1.220    38 C    0.945
    38   6 C    3.986 --    43 C    1.399    39 C    1.396    37 C    0.945
                            41 C    0.109
    39   6 C    3.988 --    40 C    1.453    38 C    1.396    71 H    0.966
                            42 C    0.112
    40   6 C    3.990 --    39 C    1.453    41 C    1.427    72 H    0.968
                            43 C    0.105
    41   6 C    3.990 --    42 C    1.452    40 C    1.427    73 H    0.969
                            38 C    0.109
    42   6 C    3.988 --    41 C    1.452    43 C    1.402    74 H    0.966
                            39 C    0.112
    43   6 C    3.973 --    42 C    1.402    38 C    1.399    44 C    0.951
                            40 C    0.105
    44   6 C    3.826 --    46 F    0.963    43 C    0.951    47 F    0.946
                            45 F    0.928
    45   9 F    1.058 --    44 C    0.928
    46   9 F    1.093 --    44 C    0.963
    47   9 F    1.072 --    44 C    0.946
    48   8 O    2.041 --    37 C    1.703    36 N    0.196
    49   1 H    0.998 --     3 C    0.976
    50   1 H    0.998 --     3 C    0.977
    51   1 H    0.994 --     3 C    0.973
    52   1 H    0.998 --     4 C    0.965
    53   1 H    0.998 --     5 C    0.970
    54   1 H    0.998 --     6 C    0.970
    55   1 H    0.997 --     7 C    0.967
    56   1 H    0.994 --     9 C    0.945
    57   1 H    0.996 --    10 C    0.951
    58   1 H    0.998 --    12 C    0.968
    59   1 H    0.998 --    13 C    0.971
    60   1 H    0.998 --    14 C    0.971
    61   1 H    0.998 --    15 C    0.965
    62   1 H    0.998 --    18 C    0.977
    63   1 H    0.994 --    18 C    0.978
    64   1 H    0.997 --    18 C    0.976
    65   1 H    0.994 --    27 C    0.965
    66   1 H    0.996 --    28 C    0.969
    67   1 H    0.996 --    29 C    0.968
    68   1 H    0.996 --    30 C    0.967
    69   1 H    0.990 --    32 C    0.930
    70   1 H    0.885 --    34 O    0.859
    71   1 H    0.996 --    39 C    0.966
    72   1 H    0.996 --    40 C    0.968
    73   1 H    0.996 --    41 C    0.969
    74   1 H    0.995 --    42 C    0.966
 ---------------------------------------------------------------------------

molecular dipole:
                 x           y           z       tot (Debye)
 q only:       -1.698      -0.863      -2.269
   full:       -1.754      -0.799      -2.375       7.774

           -------------------------------------------------
          | TOTAL ENERGY             -144.780095632664 Eh   |
          | GRADIENT NORM               0.000246992183 Eh/Î± |
          | HOMO-LUMO GAP               2.826676030743 eV   |
           -------------------------------------------------

 * finished run on 2022/03/16 at 22:06:46.687
