   * xtb version 6.3.3 (4ae9cef) compiled by 'conda@95abc7406d43' on 2020-10-14
          program call               : xtb acid_144.xyz --opt --chrg 0 --uhf 0 --gfn 2
          number of atoms            :                    60
          number of electrons        :                   182
          charge                     :                     0
          spin                       :                   0.0

   ID    Z sym.   atoms
    1    6 C      1-14, 16-21, 24, 25, 29-34
    2    7 N      15, 28
    3    8 O      22, 23, 26, 27, 35, 36
    4    1 H      37-60

          :  Hamiltonian                  GFN2-xTB          :
 * total energy  :  -102.4690487 Eh     change       -0.3729838E-08 Eh
 * total energy  :  -102.4788411 Eh     change       -0.9792360E-02 Eh
 * total energy  :  -102.4814708 Eh     change       -0.2629697E-02 Eh
 * total energy  :  -102.4824149 Eh     change       -0.9440990E-03 Eh
 * total energy  :  -102.4828497 Eh     change       -0.4348402E-03 Eh
 * total energy  :  -102.4831191 Eh     change       -0.2693568E-03 Eh
 * total energy  :  -102.4833543 Eh     change       -0.2351990E-03 Eh
 * total energy  :  -102.4835175 Eh     change       -0.1632732E-03 Eh
 * total energy  :  -102.4836875 Eh     change       -0.1699952E-03 Eh
 * total energy  :  -102.4838741 Eh     change       -0.1865388E-03 Eh
 * total energy  :  -102.4972406 Eh     change       -0.3650084E-05 Eh
 * total energy  :  -102.4972555 Eh     change       -0.1496466E-04 Eh
 * total energy  :  -102.4972679 Eh     change       -0.1232667E-04 Eh
 * total energy  :  -102.4972762 Eh     change       -0.8293979E-05 Eh
 * total energy  :  -102.4972638 Eh     change        0.1237139E-04 Eh
 * total energy  :  -102.4972812 Eh     change       -0.1736051E-04 Eh
 * total energy  :  -102.4972704 Eh     change        0.1073787E-04 Eh
 * total energy  :  -102.4972832 Eh     change       -0.1280367E-04 Eh
 * total energy  :  -102.4972860 Eh     change       -0.2733376E-05 Eh
   *** GEOMETRY OPTIMIZATION CONVERGED AFTER 86 ITERATIONS ***

 final structure:
================
60
 xtb: 6.3.3 (4ae9cef)
C        -1.06336600006067   -3.37972864073484   -0.69168880418409
C        -1.33793015844650   -4.33160742378523   -1.65673915587979
C        -1.61577812635247   -3.94136109093198   -2.95569163226765
C        -1.61664854556809   -2.59669849503104   -3.28398702807201
C        -1.33432617629900   -1.64174047305849   -2.32289690235295
C        -1.06130250952398   -2.03047972417693   -1.01877195415303
C        -0.70347330330547   -1.01844650962151    0.04247244866001
C         0.79161560030390   -0.62471632169072   -0.03479333155589
C         1.52014917565702   -1.15239758323809    1.17728933001131
C         2.14440055255439   -2.39102067952408    1.10845523579929
C         2.78692883630756   -2.91227706421927    2.21671653603117
C         2.81302567642606   -2.20001663615317    3.40395574445534
C         2.18201396695646   -0.97060477052304    3.48145077112312
C         1.53166553247629   -0.45168952998673    2.37579825576649
N         0.78622287192066    0.82414109724114   -0.12382757843015
C         1.81992848852383    1.66591650317211    0.09665643728095
C         3.16865103226417    1.12789325632320    0.19400669300233
C         4.28846570917056    1.73963274965612    0.72480158745631
C         4.36987407299143    3.07151503655427    1.37288006192815
C         5.34481253670532    0.81838375566967    0.53447417922220
C         4.80602139158878   -0.25911474241928   -0.10113035974629
O         3.49925410718358   -0.08762869793859   -0.31199410665791
O         1.62098660775277    2.88353496894175    0.19686661056283
C        -0.55892488765386    1.37003019996822   -0.21012739035222
C        -0.77254387719316    2.11457923283842   -1.56950559049443
O        -0.17162525573897    3.28165914098618   -1.64742269801880
O        -1.43046413841315    1.64341418156768   -2.45223418460185
N        -1.42242476390718    0.23816883539148   -0.07300427516591
C        -2.78628319221841    0.21744287735802   -0.03386840108925
C        -3.49716267319434    1.48790652093503   -0.18345239914969
C        -4.83753046676428    1.68545486294880   -0.44077235623574
C        -5.90391585732161    0.66380426170303   -0.58375643351393
C        -5.00358811253845    3.09011848775288   -0.54618860156549
C        -3.77697323075878    3.63890759285879   -0.34405250660225
O        -2.85822765330568    2.68995724408369   -0.12100321346747
O        -3.37556291914353   -0.83912615287481    0.12265185388770
H        -0.85541846086413   -3.68342309203192    0.32458796468558
H        -1.34157867992366   -5.37897665255038   -1.39241488579350
H        -1.83677278194169   -4.68394151060866   -3.70835714739818
H        -1.83912245489386   -2.28573507492638   -4.29382100288806
H        -1.34956077116753   -0.59502733469156   -2.58553037439533
H        -0.93076580695684   -1.45605599445669    1.02521436260326
H         1.23753177681501   -1.04504416674121   -0.94502122673408
H         2.12640299037719   -2.94221693264723    0.17967069583147
H         3.27186326033610   -3.87484291492048    2.15226702104782
H         3.32112924103081   -2.60288663422735    4.26703176280916
H         2.19289350793608   -0.41309915247234    4.40608290910216
H         1.03792740844302    0.50693650285924    2.44860433836629
H         5.39659994714834    3.29718094120675    1.64717174597984
H         3.99317455041894    3.83805948079729    0.69911964314349
H         3.74762298846519    3.09450029893749    2.26619129019481
H         6.36623703539680    0.95038838024883    0.82639403410622
H         5.24080935365938   -1.17568097605185   -0.44857710668763
H        -0.70620759427537    2.10503696012178    0.60236610500691
H         0.46365610779841    3.41847102669410   -0.88995605865393
H        -5.46618509867587   -0.32890171475960   -0.60363804345438
H        -6.59288039784936    0.72623817570941    0.25759614609346
H        -6.46963254651481    0.83907731072123   -1.49647858378269
H        -5.91728812578361    3.61032010888777   -0.74838591766489
H        -3.43639876004046    4.65581569484516   -0.33168351313827

          :  Hamiltonian                  GFN2-xTB          :
         :: total energy            -102.497285955228 Eh    ::
         :: gradient norm              0.000602488498 Eh/a0 ::
         :: HOMO-LUMO gap              2.863840392271 eV    ::
         :: SCC energy              -103.934895484538 Eh    ::
         :: -> dispersion             -0.081704555391 Eh    ::
         :: repulsion energy           1.435738165556 Eh    ::

    * Orbital Energies and Occupations

         #    Occupation            Energy/Eh            Energy/eV
      -------------------------------------------------------------
         1        2.0000           -0.7635528             -20.7773
       ...           ...                  ...                  ...
        79        2.0000           -0.4299369             -11.6992
        80        2.0000           -0.4284163             -11.6578
        81        2.0000           -0.4243949             -11.5484
        82        2.0000           -0.4187211             -11.3940
        83        2.0000           -0.4180995             -11.3771
        84        2.0000           -0.4166469             -11.3375
        85        2.0000           -0.4145526             -11.2805
        86        2.0000           -0.4072791             -11.0826
        87        2.0000           -0.4007897             -10.9060
        88        2.0000           -0.3998696             -10.8810
        89        2.0000           -0.3954108             -10.7597
        90        2.0000           -0.3900479             -10.6137
        91        2.0000           -0.3846210             -10.4661 (HOMO)
        92                         -0.2793768              -7.6022 (LUMO)
        93                         -0.2553910              -6.9495
        94                         -0.2440344              -6.6405
        95                         -0.2411918              -6.5632
        96                         -0.2378358              -6.4718
        97                         -0.2208190              -6.0088
        98                         -0.2182739              -5.9395
        99                         -0.2055895              -5.5944
       100                         -0.1837520              -5.0001
       101                         -0.1618791              -4.4050
       102                         -0.1355555              -3.6887
       ...                                ...                  ...
       168                          0.7027355              19.1224
      -------------------------------------------------------------
                  HL-Gap            0.1052442 Eh            2.8638 eV

     #   Z          covCN         q      C6AA      Î±(0)
     1   6 C        2.924    -0.033    28.812     8.803
     2   6 C        2.920    -0.028    28.699     8.785
     3   6 C        2.920    -0.030    28.741     8.792
     4   6 C        2.921    -0.026    28.645     8.777
     5   6 C        2.922    -0.034    28.843     8.807
     6   6 C        2.973     0.011    27.777     8.645
     7   6 C        3.827     0.049    19.742     6.322
     8   6 C        3.814     0.038    19.917     6.352
     9   6 C        2.974     0.005    27.915     8.667
    10   6 C        2.924    -0.033    28.830     8.805
    11   6 C        2.920    -0.027    28.674     8.781
    12   6 C        2.920    -0.030    28.742     8.792
    13   6 C        2.920    -0.027    28.688     8.783
    14   6 C        2.923    -0.034    28.853     8.809
    15   7 N        2.758    -0.104    23.280     7.166
    16   6 C        2.763     0.259    22.646     7.793
    17   6 C        3.120     0.070    26.268     8.394
    18   6 C        3.064     0.010    27.721     8.634
    19   6 C        3.754    -0.111    22.680     6.791
    20   6 C        3.014    -0.070    29.726     8.944
    21   6 C        3.062     0.081    26.145     8.385
    22   8 O        1.728    -0.185    17.088     5.581
    23   8 O        0.860    -0.480    23.348     6.478
    24   6 C        3.754     0.081    19.279     6.261
    25   6 C        2.684     0.358    20.919     7.485
    26   8 O        1.655    -0.369    20.261     6.076
    27   8 O        0.856    -0.371    21.109     6.160
    28   7 N        2.758    -0.107    23.333     7.174
    29   6 C        2.761     0.265    22.521     7.772
    30   6 C        3.102     0.070    26.320     8.407
    31   6 C        3.063     0.013    27.666     8.625
    32   6 C        3.754    -0.116    22.776     6.805
    33   6 C        3.010    -0.069    29.701     8.940
    34   6 C        3.048     0.082    26.138     8.385
    35   8 O        1.727    -0.206    17.426     5.636
    36   8 O        0.860    -0.437    22.436     6.351
    37   1 H        0.926     0.029     2.599     2.521
    38   1 H        0.926     0.034     2.535     2.490
    39   1 H        0.926     0.034     2.535     2.490
    40   1 H        0.926     0.039     2.466     2.456
    41   1 H        0.926     0.060     2.204     2.322
    42   1 H        0.923     0.058     2.219     2.330
    43   1 H        0.924     0.062     2.180     2.309
    44   1 H        0.926     0.037     2.486     2.466
    45   1 H        0.926     0.040     2.452     2.449
    46   1 H        0.926     0.039     2.461     2.453
    47   1 H        0.926     0.039     2.465     2.455
    48   1 H        0.926     0.030     2.588     2.516
    49   1 H        0.925     0.053     2.277     2.360
    50   1 H        0.925     0.076     2.017     2.221
    51   1 H        0.925     0.062     2.179     2.309
    52   1 H        0.926     0.052     2.289     2.366
    53   1 H        0.926     0.059     2.207     2.323
    54   1 H        0.922     0.068     2.105     2.269
    55   1 H        0.800     0.366     0.553     1.168
    56   1 H        0.925     0.080     1.981     2.201
    57   1 H        0.925     0.058     2.227     2.334
    58   1 H        0.925     0.055     2.257     2.349
    59   1 H        0.926     0.050     2.324     2.384
    60   1 H        0.926     0.057     2.239     2.340

Wiberg/Mayer (AO) data.
largest (>0.10) Wiberg bond orders for each atom

     #   Z sym  total        # sym  WBO       # sym  WBO       # sym  WBO
 ---------------------------------------------------------------------------
     1   6 C    3.990 --     2 C    1.446     6 C    1.411    37 H    0.969
                             4 C    0.111
     2   6 C    3.992 --     1 C    1.446     3 C    1.437    38 H    0.971
                             5 C    0.112
     3   6 C    3.991 --     4 C    1.441     2 C    1.437    39 H    0.971
                             6 C    0.109
     4   6 C    3.992 --     5 C    1.442     3 C    1.441    40 H    0.971
                             1 C    0.111
     5   6 C    3.988 --     4 C    1.442     6 C    1.415    41 H    0.960
                             2 C    0.112
     6   6 C    3.983 --     5 C    1.415     1 C    1.411     7 C    0.984
                             3 C    0.109
     7   6 C    3.963 --     6 C    0.984    28 N    0.965    42 H    0.953
                             8 C    0.948
     8   6 C    3.962 --     9 C    0.987    15 N    0.965    43 H    0.952
                             7 C    0.948
     9   6 C    3.985 --    14 C    1.415    10 C    1.408     8 C    0.987
                            12 C    0.110
    10   6 C    3.990 --    11 C    1.447     9 C    1.408    44 H    0.968
                            13 C    0.111
    11   6 C    3.992 --    10 C    1.447    12 C    1.437    45 H    0.970
                            14 C    0.110
    12   6 C    3.990 --    13 C    1.440    11 C    1.437    46 H    0.971
                             9 C    0.110
    13   6 C    3.992 --    14 C    1.442    12 C    1.440    47 H    0.971
                            10 C    0.111
    14   6 C    3.992 --    13 C    1.442     9 C    1.415    48 H    0.968
                            11 C    0.110
    15   7 N    3.498 --    16 C    1.246    24 C    0.968     8 C    0.965
                            23 O    0.174
    16   6 C    3.958 --    23 O    1.536    15 N    1.246    17 C    1.060
    17   6 C    3.896 --    18 C    1.470    22 O    1.084    16 C    1.060
                            21 C    0.133
    18   6 C    3.983 --    17 C    1.470    20 C    1.297    19 C    1.042
    19   6 C    3.993 --    18 C    1.042    49 H    0.984    51 H    0.964
                            50 H    0.964
    20   6 C    3.981 --    21 C    1.577    18 C    1.297    52 H    0.973
    21   6 C    3.909 --    20 C    1.577    22 O    1.157    53 H    0.964
                            17 C    0.133
    22   8 O    2.443 --    21 C    1.157    17 C    1.084
    23   8 O    1.970 --    16 C    1.536    15 N    0.174
    24   6 C    3.957 --    28 N    1.005    15 N    0.968    54 H    0.935
                            25 C    0.884
    25   6 C    3.928 --    27 O    1.772    26 O    1.204    24 C    0.884
    26   8 O    2.234 --    25 C    1.204    55 H    0.768    27 O    0.179
    27   8 O    2.079 --    25 C    1.772    26 O    0.179
    28   7 N    3.463 --    29 C    1.183    24 C    1.005     7 C    0.965
                            36 O    0.179
    29   6 C    3.959 --    36 O    1.635    28 N    1.183    30 C    1.043
    30   6 C    3.894 --    31 C    1.493    35 O    1.075    29 C    1.043
                            34 C    0.133
    31   6 C    3.983 --    30 C    1.493    33 C    1.282    32 C    1.041
    32   6 C    3.991 --    31 C    1.041    56 H    0.975    58 H    0.971
                            57 H    0.963
    33   6 C    3.982 --    34 C    1.596    31 C    1.282    59 H    0.973
    34   6 C    3.907 --    33 C    1.596    35 O    1.140    60 H    0.965
                            30 C    0.133
    35   8 O    2.425 --    34 C    1.140    30 C    1.075
    36   8 O    1.992 --    29 C    1.635    28 N    0.179
    37   1 H    0.999 --     1 C    0.969
    38   1 H    0.998 --     2 C    0.971
    39   1 H    0.998 --     3 C    0.971
    40   1 H    0.998 --     4 C    0.971
    41   1 H    0.996 --     5 C    0.960
    42   1 H    0.996 --     7 C    0.953
    43   1 H    0.996 --     8 C    0.952
    44   1 H    0.999 --    10 C    0.968
    45   1 H    0.998 --    11 C    0.970
    46   1 H    0.998 --    12 C    0.971
    47   1 H    0.998 --    13 C    0.971
    48   1 H    0.999 --    14 C    0.968
    49   1 H    0.997 --    19 C    0.984
    50   1 H    0.994 --    19 C    0.964
    51   1 H    0.996 --    19 C    0.964
    52   1 H    0.997 --    20 C    0.973
    53   1 H    0.996 --    21 C    0.964
    54   1 H    0.994 --    24 C    0.935
    55   1 H    0.866 --    26 O    0.768
    56   1 H    0.993 --    32 C    0.975
    57   1 H    0.996 --    32 C    0.963
    58   1 H    0.997 --    32 C    0.971
    59   1 H    0.997 --    33 C    0.973
    60   1 H    0.996 --    34 C    0.965
 ---------------------------------------------------------------------------

molecular dipole:
                 x           y           z       tot (Debye)
 q only:        1.708      -0.436       1.126
   full:        2.020      -0.299       1.415       6.314

           -------------------------------------------------
          | TOTAL ENERGY             -102.497285955228 Eh   |
          | GRADIENT NORM               0.000602488498 Eh/Î± |
          | HOMO-LUMO GAP               2.863840392271 eV   |
           -------------------------------------------------

 * finished run on 2022/03/16 at 21:49:48.950
