   * xtb version 6.3.3 (4ae9cef) compiled by 'conda@95abc7406d43' on 2020-10-14
          program call               : xtb acid_297.xyz --opt --chrg 0 --uhf 0 --gfn 2
          number of atoms            :                    66
          number of electrons        :                   218
          charge                     :                     0
          spin                       :                   0.0

   ID    Z sym.   atoms
    1    6 C      1-22, 24-28, 32, 33, 37-41
    2    7 N      23, 36
    3   35 Br     29, 42
    4   16 S      30, 43
    5    8 O      31, 34, 35, 44
    6    1 H      45-66

          :  Hamiltonian                  GFN2-xTB          :
 * total energy  :  -120.7808145 Eh     change       -0.6976421E-08 Eh
 * total energy  :  -120.7973775 Eh     change       -0.1656304E-01 Eh
 * total energy  :  -120.8025438 Eh     change       -0.5166298E-02 Eh
 * total energy  :  -120.8039219 Eh     change       -0.1378096E-02 Eh
 * total energy  :  -120.8048341 Eh     change       -0.9121334E-03 Eh
 * total energy  :  -120.8053253 Eh     change       -0.4912432E-03 Eh
 * total energy  :  -120.8059474 Eh     change       -0.6220867E-03 Eh
 * total energy  :  -120.8066348 Eh     change       -0.6874268E-03 Eh
 * total energy  :  -120.8073994 Eh     change       -0.7646061E-03 Eh
 * total energy  :  -120.8081362 Eh     change       -0.7367867E-03 Eh
 * total energy  :  -120.8247044 Eh     change       -0.3341740E-04 Eh
 * total energy  :  -120.8247275 Eh     change       -0.2314229E-04 Eh
 * total energy  :  -120.8247450 Eh     change       -0.1744046E-04 Eh
 * total energy  :  -120.8247570 Eh     change       -0.1199708E-04 Eh
 * total energy  :  -120.8247639 Eh     change       -0.6955351E-05 Eh
 * total energy  :  -120.8247653 Eh     change       -0.1418080E-05 Eh
 * total energy  :  -120.8247727 Eh     change       -0.7386747E-05 Eh
 * total energy  :  -120.8247801 Eh     change       -0.7424046E-05 Eh
 * total energy  :  -120.8247835 Eh     change       -0.3391292E-05 Eh
   *** GEOMETRY OPTIMIZATION CONVERGED AFTER 185 ITERATIONS ***

 final structure:
================
66
 xtb: 6.3.3 (4ae9cef)
C         1.60928234891618   -2.72274535652932   -0.32375311417018
C         2.42770961487341   -3.66349555868210    0.22965850014600
C         3.43100646287629   -3.29839905921018    1.15248096686263
C         4.29364345994358   -4.24259369268256    1.74535763827733
C         5.26126723723312   -3.84585006452621    2.62604359434764
C         5.41038352376040   -2.48894248370735    2.95303632634581
C         4.58823046228397   -1.54946737947738    2.39592390970859
C         3.58099160427543   -1.92777885590047    1.48458768905865
C         2.71910763777041   -0.97952252465932    0.89483383622864
C         1.74244340272481   -1.36032516970671    0.01625579362554
C         0.79239865871986   -0.38122705143507   -0.63667058459055
C        -0.68816066465110   -0.69214206382479   -0.32424423247696
C        -1.54226067020689   -0.70693263342868   -1.56645128758777
C        -2.15787643186796   -1.85275481341922   -1.99048305561565
C        -2.95292428136171   -1.86197433165320   -3.15410024474984
C        -3.60233643886474   -3.02920192834206   -3.60686989944020
C        -4.37572990397116   -3.00448474782220   -4.73343389134395
C        -4.53471262656088   -1.81355933253374   -5.45940622378085
C        -3.91713529230712   -0.66606142607365   -5.04701297570557
C        -3.11288689476350   -0.65857047260244   -3.88908986427014
C        -2.46273573867304    0.50718418566914   -3.43282971958512
C        -1.69614760355466    0.48335356133575   -2.30444314485196
N        -1.09270927087735    0.39491471874177    0.56653252294631
C        -2.37579222341165    0.45247587050017    1.00504837786263
C        -2.80941478347729    1.59846199854850    1.82006589472242
C        -2.21475616472821    2.50518866320967    2.65821417636161
C        -3.12960415632399    3.39673768259657    3.24704168846295
C        -4.40945806138626    3.14548394018591    2.84734408610908
Br       -5.93542288433431    4.09667656485456    3.37019307549477
S        -4.53082822595093    1.80914432623238    1.76503242724614
O        -3.18967809370735   -0.39874920486343    0.69381331665173
C        -0.00807547113311    1.28169355876624    0.85823788174636
C         0.63934973886555    1.00109917917652    2.23714708125199
O         0.30478684789774   -0.18474749695336    2.71765316729360
O         1.38105002628699    1.77459513105387    2.77836846105809
N         0.95613449091121    0.98481539807872   -0.17257430074838
C         1.97102073610939    1.77174609853744   -0.62356477646933
C         2.07158543375856    3.10362216327460    0.02746473338297
C         1.22136029761481    4.16965960065947   -0.03194432150432
C         1.67964358373964    5.28614980579402    0.69582910632424
C         2.87571283423202    5.03700970576579    1.29534836799384
Br        3.84720028829933    6.21605812134971    2.37938747542522
S         3.47557150438691    3.45050553703048    0.97012274172891
O         2.74024362291412    1.39595434608900   -1.47909595278382
H         0.85401541078346   -3.00816644488464   -1.04146657935773
H         2.32224674735962   -4.70485069601486   -0.03798162463456
H         4.17725183600728   -5.28555981326360    1.48798985597054
H         5.92131213216843   -4.57348672984279    3.07465477845276
H         6.18228434569481   -2.19349541571152    3.64818039841753
H         4.69981958234411   -0.50278804589289    2.64167171607183
H         2.87016490762184    0.06019850321247    1.14997899129946
H         0.97522658713211   -0.39246336273124   -1.71831116998531
H        -0.79182403388873   -1.64426080400507    0.20773650482275
H        -2.05548638604277   -2.76718463296477   -1.42402727441121
H        -3.47985659449797   -3.94280273656385   -3.04314503335426
H        -4.87231970877810   -3.90129422694300   -5.07371518324455
H        -5.15106113827698   -1.81251879202360   -6.34640355468227
H        -4.03716305755911    0.25361266282916   -5.60179842548465
H        -2.58364134960766    1.42325634131030   -3.99316484185511
H        -1.20115301887728    1.38227755497433   -1.96332249673510
H        -1.16749108629846    2.53977980844036    2.89308842377485
H        -2.85697224953041    4.18066218814537    3.92987781891624
H        -0.30738601020153    2.33696191667113    0.82585319407419
H         0.75997144207953   -0.37439630027140    3.55518127080671
H         0.30688937042534    4.17358271676560   -0.59916660541466
H         1.15369233576208    6.21993279923792    0.77323658954288

          :  Hamiltonian                  GFN2-xTB          :
         :: total energy            -120.824783531141 Eh    ::
         :: gradient norm              0.000357470848 Eh/a0 ::
         :: HOMO-LUMO gap              2.404685974706 eV    ::
         :: SCC energy              -122.538673710356 Eh    ::
         :: -> dispersion             -0.104057262920 Eh    ::
         :: repulsion energy           1.712288064376 Eh    ::

    * Orbital Energies and Occupations

         #    Occupation            Energy/Eh            Energy/eV
      -------------------------------------------------------------
         1        2.0000           -0.8566619             -23.3110
       ...           ...                  ...                  ...
        97        2.0000           -0.4291439             -11.6776
        98        2.0000           -0.4259020             -11.5894
        99        2.0000           -0.4246086             -11.5542
       100        2.0000           -0.4237411             -11.5306
       101        2.0000           -0.4232226             -11.5165
       102        2.0000           -0.4192672             -11.4088
       103        2.0000           -0.4179326             -11.3725
       104        2.0000           -0.4125537             -11.2262
       105        2.0000           -0.4110313             -11.1847
       106        2.0000           -0.4066403             -11.0652
       107        2.0000           -0.4041941             -10.9987
       108        2.0000           -0.3938114             -10.7162
       109        2.0000           -0.3871510             -10.5349 (HOMO)
       110                         -0.2987805              -8.1302 (LUMO)
       111                         -0.2866013              -7.7988
       112                         -0.2821028              -7.6764
       113                         -0.2740391              -7.4570
       114                         -0.2686403              -7.3101
       115                         -0.2470636              -6.7229
       116                         -0.2450069              -6.6670
       117                         -0.2404071              -6.5418
       118                         -0.2383848              -6.4868
       119                         -0.2375648              -6.4645
       120                         -0.2319320              -6.3112
       ...                                ...                  ...
       218                          0.6885980              18.7377
      -------------------------------------------------------------
                  HL-Gap            0.0883706 Eh            2.4047 eV

     #   Z          covCN         q      C6AA      Î±(0)
     1   6 C        2.921    -0.038    28.946     8.823
     2   6 C        2.917    -0.032    28.802     8.801
     3   6 C        2.987     0.013    27.709     8.635
     4   6 C        2.918    -0.033    28.833     8.805
     5   6 C        2.916    -0.028    28.704     8.786
     6   6 C        2.916    -0.028    28.694     8.784
     7   6 C        2.918    -0.035    28.863     8.810
     8   6 C        2.988     0.014    27.694     8.632
     9   6 C        2.922    -0.037    28.912     8.818
    10   6 C        2.967     0.001    27.991     8.678
    11   6 C        3.829     0.042    19.856     6.340
    12   6 C        3.828     0.044    19.823     6.335
    13   6 C        2.970     0.007    27.863     8.658
    14   6 C        2.922    -0.033    28.812     8.802
    15   6 C        2.987     0.018    27.597     8.617
    16   6 C        2.918    -0.032    28.806     8.801
    17   6 C        2.916    -0.028    28.690     8.783
    18   6 C        2.916    -0.028    28.696     8.784
    19   6 C        2.918    -0.033    28.825     8.804
    20   6 C        2.988     0.015    27.668     8.628
    21   6 C        2.917    -0.033    28.814     8.802
    22   6 C        2.919    -0.034    28.840     8.806
    23   7 N        2.766    -0.108    23.365     7.179
    24   6 C        2.846     0.268    22.487     7.772
    25   6 C        2.991    -0.030    28.732     8.793
    26   6 C        3.105    -0.049    29.066     8.834
    27   6 C        3.137    -0.053    29.075     8.825
    28   6 C        2.940     0.078    26.262     8.405
    29  35 Br       1.139    -0.111   188.092    22.113
    30  16 S        2.518     0.086   137.581    19.742
    31   8 O        0.862    -0.424    22.154     6.311
    32   6 C        3.759     0.089    19.157     6.240
    33   6 C        2.688     0.352    21.025     7.504
    34   8 O        1.659    -0.348    19.866     6.017
    35   8 O        0.856    -0.394    21.568     6.226
    36   7 N        2.772    -0.113    23.462     7.194
    37   6 C        2.790     0.274    22.368     7.747
    38   6 C        2.994    -0.022    28.552     8.765
    39   6 C        3.116    -0.048    29.013     8.823
    40   6 C        3.139    -0.053    29.066     8.823
    41   6 C        2.942     0.081    26.190     8.393
    42  35 Br       1.139    -0.117   188.268    22.123
    43  16 S        2.476     0.072   138.161    19.783
    44   8 O        0.859    -0.403    21.732     6.250
    45   1 H        0.926     0.035     2.515     2.480
    46   1 H        0.926     0.041     2.434     2.440
    47   1 H        0.926     0.036     2.502     2.473
    48   1 H        0.926     0.036     2.509     2.477
    49   1 H        0.926     0.036     2.500     2.473
    50   1 H        0.926     0.036     2.507     2.476
    51   1 H        0.926     0.024     2.680     2.560
    52   1 H        0.924     0.081     1.964     2.192
    53   1 H        0.924     0.068     2.105     2.269
    54   1 H        0.926     0.040     2.450     2.448
    55   1 H        0.926     0.036     2.499     2.472
    56   1 H        0.926     0.035     2.520     2.482
    57   1 H        0.926     0.034     2.524     2.485
    58   1 H        0.926     0.035     2.521     2.483
    59   1 H        0.926     0.037     2.487     2.466
    60   1 H        0.925     0.021     2.718     2.578
    61   1 H        0.926     0.044     2.396     2.421
    62   1 H        0.926     0.066     2.126     2.280
    63   1 H        0.924     0.071     2.078     2.255
    64   1 H        0.804     0.348     0.593     1.209
    65   1 H        0.926     0.045     2.381     2.413
    66   1 H        0.926     0.063     2.159     2.298

Wiberg/Mayer (AO) data.
largest (>0.10) Wiberg bond orders for each atom

     #   Z sym  total        # sym  WBO       # sym  WBO       # sym  WBO
 ---------------------------------------------------------------------------
     1   6 C    3.991 --     2 C    1.571    10 C    1.285    45 H    0.968
     2   6 C    3.991 --     1 C    1.571     3 C    1.272    46 H    0.967
                             9 C    0.112
     3   6 C    3.990 --     4 C    1.283     2 C    1.272     8 C    1.254
     4   6 C    3.992 --     5 C    1.554     3 C    1.283    47 H    0.968
                             7 C    0.118
     5   6 C    3.990 --     4 C    1.554     6 C    1.323    48 H    0.971
     6   6 C    3.992 --     7 C    1.555     5 C    1.323    49 H    0.971
     7   6 C    3.990 --     6 C    1.555     8 C    1.282    50 H    0.968
                             4 C    0.118
     8   6 C    3.990 --     7 C    1.282     9 C    1.274     3 C    1.254
     9   6 C    3.990 --    10 C    1.538     8 C    1.274    51 H    0.962
                             2 C    0.112
    10   6 C    3.985 --     9 C    1.538     1 C    1.285    11 C    0.983
    11   6 C    3.955 --    10 C    0.983    36 N    0.963    12 C    0.957
                            52 H    0.943
    12   6 C    3.955 --    13 C    0.987    11 C    0.957    53 H    0.953
                            23 N    0.950
    13   6 C    3.983 --    14 C    1.529    22 C    1.292    12 C    0.987
    14   6 C    3.988 --    13 C    1.529    15 C    1.280    54 H    0.965
                            21 C    0.114
    15   6 C    3.990 --    14 C    1.280    16 C    1.279    20 C    1.251
    16   6 C    3.990 --    17 C    1.557    15 C    1.279    55 H    0.968
                            19 C    0.118
    17   6 C    3.992 --    16 C    1.557    18 C    1.321    56 H    0.971
    18   6 C    3.990 --    19 C    1.556    17 C    1.321    57 H    0.971
    19   6 C    3.992 --    18 C    1.556    20 C    1.282    58 H    0.968
                            16 C    0.118
    20   6 C    3.990 --    19 C    1.282    21 C    1.275    15 C    1.251
    21   6 C    3.992 --    22 C    1.566    20 C    1.275    59 H    0.968
                            14 C    0.114
    22   6 C    3.992 --    21 C    1.566    13 C    1.292    60 H    0.969
    23   7 N    3.468 --    24 C    1.198    32 C    1.001    12 C    0.950
                            31 O    0.183
    24   6 C    3.954 --    31 O    1.647    23 N    1.198    25 C    1.029
    25   6 C    3.945 --    26 C    1.533    30 S    1.155    24 C    1.029
    26   6 C    3.987 --    25 C    1.533    27 C    1.303    61 H    0.957
    27   6 C    3.981 --    28 C    1.538    26 C    1.303    62 H    0.962
    28   6 C    3.914 --    27 C    1.538    30 S    1.208    29 Br   1.025
    29  35 Br   1.174 --    28 C    1.025
    30  16 S    2.695 --    28 C    1.208    25 C    1.155
    31   8 O    2.016 --    24 C    1.647    23 N    0.183
    32   6 C    3.972 --    23 N    1.001    36 N    0.980    63 H    0.937
                            33 C    0.899
    33   6 C    3.919 --    35 O    1.763    34 O    1.175    32 C    0.899
    34   8 O    2.241 --    33 C    1.175    64 H    0.852    35 O    0.186
    35   8 O    2.052 --    33 C    1.763    34 O    0.186
    36   7 N    3.470 --    37 C    1.193    32 C    0.980    11 C    0.963
                            44 O    0.191
    37   6 C    3.951 --    44 O    1.698    36 N    1.193    38 C    0.978
    38   6 C    3.948 --    39 C    1.569    43 S    1.168    37 C    0.978
                            41 C    0.102
    39   6 C    3.985 --    38 C    1.569    40 C    1.282    65 H    0.961
    40   6 C    3.982 --    41 C    1.562    39 C    1.282    66 H    0.962
    41   6 C    3.908 --    40 C    1.562    43 S    1.184    42 Br   1.020
                            38 C    0.102
    42  35 Br   1.169 --    41 C    1.020
    43  16 S    2.668 --    41 C    1.184    38 C    1.168
    44   8 O    2.038 --    37 C    1.698    36 N    0.191
    45   1 H    0.998 --     1 C    0.968
    46   1 H    0.997 --     2 C    0.967
    47   1 H    0.998 --     4 C    0.968
    48   1 H    0.998 --     5 C    0.971
    49   1 H    0.998 --     6 C    0.971
    50   1 H    0.998 --     7 C    0.968
    51   1 H    0.999 --     9 C    0.962
    52   1 H    0.991 --    11 C    0.943
    53   1 H    0.994 --    12 C    0.953
    54   1 H    0.998 --    14 C    0.965
    55   1 H    0.998 --    16 C    0.968
    56   1 H    0.998 --    17 C    0.971
    57   1 H    0.998 --    18 C    0.971
    58   1 H    0.998 --    19 C    0.968
    59   1 H    0.998 --    21 C    0.968
    60   1 H    0.999 --    22 C    0.969
    61   1 H    0.998 --    26 C    0.957
    62   1 H    0.995 --    27 C    0.962
    63   1 H    0.995 --    32 C    0.937
    64   1 H    0.878 --    34 O    0.852
    65   1 H    0.998 --    39 C    0.961
    66   1 H    0.995 --    40 C    0.962
 ---------------------------------------------------------------------------

molecular dipole:
                 x           y           z       tot (Debye)
 q only:       -0.095      -1.197       0.119
   full:        0.117      -1.560      -0.012       3.977

           -------------------------------------------------
          | TOTAL ENERGY             -120.824783531141 Eh   |
          | GRADIENT NORM               0.000357470848 Eh/Î± |
          | HOMO-LUMO GAP               2.404685974706 eV   |
           -------------------------------------------------

 * finished run on 2022/03/16 at 23:31:44.270
