   * xtb version 6.3.3 (4ae9cef) compiled by 'conda@95abc7406d43' on 2020-10-14
          program call               : xtb acid_427.xyz --opt --chrg 0 --uhf 0 --gfn 2
          number of atoms            :                    72
          number of electrons        :                   202
          charge                     :                     0
          spin                       :                   0.0

   ID    Z sym.   atoms
    1    6 C      1-14, 16-24, 26, 27, 31-39
    2    7 N      15, 30
    3    8 O      25, 28, 29, 40
    4    1 H      41-72

          :  Hamiltonian                  GFN2-xTB          :
 * total energy  :  -111.2565335 Eh     change       -0.4572598E-08 Eh
 * total energy  :  -111.2692199 Eh     change       -0.1268643E-01 Eh
 * total energy  :  -111.2723973 Eh     change       -0.3177412E-02 Eh
 * total energy  :  -111.2732403 Eh     change       -0.8429731E-03 Eh
 * total energy  :  -111.2736718 Eh     change       -0.4314653E-03 Eh
 * total energy  :  -111.2739121 Eh     change       -0.2403369E-03 Eh
 * total energy  :  -111.2741136 Eh     change       -0.2015388E-03 Eh
 * total energy  :  -111.2743023 Eh     change       -0.1886411E-03 Eh
 * total energy  :  -111.2744912 Eh     change       -0.1889065E-03 Eh
 * total energy  :  -111.2746289 Eh     change       -0.1377557E-03 Eh
 * total energy  :  -111.2776049 Eh     change       -0.8208879E-05 Eh
 * total energy  :  -111.2776267 Eh     change       -0.2186165E-04 Eh
 * total energy  :  -111.2776349 Eh     change       -0.8171772E-05 Eh
 * total energy  :  -111.2776485 Eh     change       -0.1362646E-04 Eh
 * total energy  :  -111.2776606 Eh     change       -0.1208811E-04 Eh
 * total energy  :  -111.2776709 Eh     change       -0.1029271E-04 Eh
 * total energy  :  -111.2776813 Eh     change       -0.1035000E-04 Eh
 * total energy  :  -111.2776871 Eh     change       -0.5869732E-05 Eh
 * total energy  :  -111.2776900 Eh     change       -0.2873461E-05 Eh
   *** GEOMETRY OPTIMIZATION CONVERGED AFTER 58 ITERATIONS ***

 final structure:
================
72
 xtb: 6.3.3 (4ae9cef)
C         2.06643525686405    3.61459264416733   -1.33688419243749
C         3.06278011129062    4.02902251368932   -2.20127838561039
C         4.08777640025859    3.16409114619920   -2.54669639165936
C         4.11807148860336    1.88955582031909   -2.01038002416202
C         3.12065601504860    1.47283044583899   -1.14583324877929
C         2.07726749045353    2.32559400815612   -0.81443056918287
C         0.97505995236152    1.90751225640017    0.13819271832758
C        -0.44148913369481    2.13549304364821   -0.41971803436736
C        -1.43627243469515    2.61672319566445    0.61300510011381
C        -1.42780675949845    2.11717341920080    1.91000582001538
C        -2.37899428743081    2.53231319125971    2.82518322171616
C        -3.35204716673824    3.44334930771127    2.45283632563542
C        -3.36384560681935    3.94670683592425    1.16345886588297
C        -2.40971278880488    3.53782498438919    0.24899643034518
N        -0.82321216792448    0.80000035890536   -0.90395949001240
C        -2.00811170480119    0.59364862638483   -1.55414615960711
C        -2.38052736233957   -0.84309310657588   -1.74277929275029
C        -3.38789116768010   -1.39919320527961   -0.95175542771874
C        -4.10198418215286   -0.59783807121791    0.10063908830617
C        -3.41920989843459   -0.73802255148809    1.46107160387095
C        -3.71207965054371   -2.73760641860274   -1.13775599441125
C        -3.07729645429931   -3.50335204517663   -2.09784150526285
C        -2.11481230210001   -2.93029403609317   -2.91050977478804
C        -1.77013405914944   -1.60280242280711   -2.73468228805951
O        -2.67896629031107    1.52548408721698   -1.94345777924091
C         0.10719009640317   -0.21623953853826   -0.47185054489498
C         0.94711540379326   -0.76645401487021   -1.65985479500638
O         1.02969739728079    0.03164761547760   -2.72117434307192
O         1.50166400919036   -1.82347952227543   -1.60026787864587
N         0.97731452366988    0.48366508701154    0.44268898523785
C         1.64736449413586   -0.00228374747008    1.52931157357442
C         1.50776536740670   -1.46592769799990    1.78698321620836
C         0.27436093281857   -1.95036083521035    2.21452071315049
C         0.10863563328197   -3.28850394070406    2.51302263578065
C         1.18480350687586   -4.15190882123895    2.39486133581992
C         2.41703320588309   -3.66628993089334    2.00353453335423
C         2.60565619034977   -2.32189683561644    1.70066943231386
C         3.96715074602994   -1.84312696079121    1.28426073011387
C         4.35227756566338   -2.37990110487763   -0.09576492364883
O         2.29302943797957    0.74484845684352    2.23534343509218
H         1.28173556279122    4.30183882261206   -1.05412408565002
H         3.04081954182177    5.03153267422679   -2.60159060625879
H         4.86464962938504    3.48757317925691   -3.22273236112943
H         4.91976544485505    1.21228663525913   -2.26187956164402
H         3.16610774942547    0.47894829362059   -0.72756993739103
H         1.12288277543815    2.44957952050966    1.08016974027404
H        -0.44790815627701    2.83098724499552   -1.26623263127239
H        -0.67239171928440    1.41041583891503    2.22159017882808
H        -2.35862384266913    2.13895899092575    3.83072932774539
H        -4.09758540352665    3.76093151989542    3.16653249904640
H        -4.11939738984814    4.65833017909615    0.86631489946626
H        -2.43040764023421    3.92111165603635   -0.75955319439496
H        -4.13104247886555    0.45521192536175   -0.18196332477206
H        -5.13038062148386   -0.95592455514256    0.18017576755685
H        -3.99123535661036   -0.21840233252904    2.22587575240528
H        -3.33168578291463   -1.78661631893221    1.73902943967183
H        -2.42549199436332   -0.29877784950433    1.42891930783492
H        -4.48394373837384   -3.17813424783560   -0.52304405089839
H        -3.34521666446295   -4.54156571093317   -2.22430188242815
H        -1.63204115678310   -3.51106997018143   -3.68086573871079
H        -1.04219859890343   -1.15395155937913   -3.39306993731545
H        -0.37811629788502   -1.07642136184174    0.00705158643750
H         0.51946069858946    0.85072304368415   -2.60293645848837
H        -0.55503673970293   -1.26847829146751    2.34292639122207
H        -0.85257258544240   -3.65271038683633    2.84351305431732
H         1.06480641147115   -5.20028733618004    2.62416276746135
H         3.26014841766950   -4.33843507709964    1.94042126136220
H         4.69958652055302   -2.18872997140183    2.01880550353080
H         3.99724281143091   -0.75348023443568    1.28052753379534
H         3.58832015171627   -2.13664842693556   -0.82974890208393
H         5.29954228945021   -1.95043948036780   -0.41386595111623
H         4.45549535481860   -3.46185765008163   -0.07082810894027

          :  Hamiltonian                  GFN2-xTB          :
         :: total energy            -111.277689997742 Eh    ::
         :: gradient norm              0.000265801568 Eh/a0 ::
         :: HOMO-LUMO gap              3.599818867295 eV    ::
         :: SCC energy              -113.025653214696 Eh    ::
         :: -> dispersion             -0.102768046428 Eh    ::
         :: repulsion energy           1.743089705876 Eh    ::

    * Orbital Energies and Occupations

         #    Occupation            Energy/Eh            Energy/eV
      -------------------------------------------------------------
         1        2.0000           -0.7723631             -21.0171
       ...           ...                  ...                  ...
        89        2.0000           -0.4239485             -11.5362
        90        2.0000           -0.4205028             -11.4425
        91        2.0000           -0.4180125             -11.3747
        92        2.0000           -0.4175875             -11.3631
        93        2.0000           -0.4163769             -11.3302
        94        2.0000           -0.4152214             -11.2988
        95        2.0000           -0.4130364             -11.2393
        96        2.0000           -0.4122509             -11.2179
        97        2.0000           -0.4090275             -11.1302
        98        2.0000           -0.4043131             -11.0019
        99        2.0000           -0.4024948             -10.9524
       100        2.0000           -0.4002266             -10.8907
       101        2.0000           -0.3978966             -10.8273 (HOMO)
       102                         -0.2656057              -7.2275 (LUMO)
       103                         -0.2459474              -6.6926
       104                         -0.2443417              -6.6489
       105                         -0.2408110              -6.5528
       106                         -0.2368507              -6.4450
       107                         -0.2352238              -6.4008
       108                         -0.2346262              -6.3845
       109                         -0.2334911              -6.3536
       110                         -0.2300753              -6.2607
       111                         -0.2254072              -6.1336
       112                         -0.2123823              -5.7792
       ...                                ...                  ...
       192                          0.6608298              17.9821
      -------------------------------------------------------------
                  HL-Gap            0.1322909 Eh            3.5998 eV

     #   Z          covCN         q      C6AA      Î±(0)
     1   6 C        2.924    -0.040    29.004     8.832
     2   6 C        2.920    -0.027    28.683     8.783
     3   6 C        2.920    -0.028    28.705     8.786
     4   6 C        2.920    -0.024    28.600     8.770
     5   6 C        2.923    -0.029    28.720     8.788
     6   6 C        2.970    -0.006    28.170     8.706
     7   6 C        3.830     0.036    19.944     6.354
     8   6 C        3.821     0.041    19.869     6.343
     9   6 C        2.972     0.001    27.999     8.680
    10   6 C        2.923    -0.033    28.824     8.804
    11   6 C        2.920    -0.027    28.686     8.783
    12   6 C        2.920    -0.028    28.691     8.784
    13   6 C        2.920    -0.026    28.645     8.777
    14   6 C        2.924    -0.027    28.673     8.781
    15   7 N        2.765    -0.145    24.131     7.296
    16   6 C        2.759     0.272    22.399     7.750
    17   6 C        2.979    -0.032    28.796     8.802
    18   6 C        2.972     0.019    27.588     8.616
    19   6 C        3.806    -0.060    21.653     6.624
    20   6 C        3.753    -0.094    22.346     6.741
    21   6 C        2.926    -0.035    28.882     8.813
    22   6 C        2.918    -0.027    28.685     8.783
    23   6 C        2.920    -0.028    28.704     8.786
    24   6 C        2.922    -0.034    28.855     8.809
    25   8 O        0.859    -0.422    22.124     6.306
    26   6 C        3.754     0.077    19.357     6.274
    27   6 C        2.686     0.348    21.088     7.515
    28   8 O        1.659    -0.351    19.932     6.027
    29   8 O        0.856    -0.356    20.823     6.118
    30   7 N        2.768    -0.120    23.602     7.215
    31   6 C        2.761     0.275    22.350     7.742
    32   6 C        2.978    -0.027    28.662     8.782
    33   6 C        2.924    -0.033    28.833     8.806
    34   6 C        2.919    -0.032    28.796     8.800
    35   6 C        2.918    -0.027    28.676     8.781
    36   6 C        2.927    -0.031    28.771     8.796
    37   6 C        2.970     0.027    27.387     8.584
    38   6 C        3.806    -0.057    21.600     6.616
    39   6 C        3.753    -0.103    22.525     6.768
    40   8 O        0.860    -0.424    22.155     6.311
    41   1 H        0.926     0.031     2.569     2.507
    42   1 H        0.926     0.038     2.475     2.460
    43   1 H        0.926     0.039     2.466     2.456
    44   1 H        0.926     0.042     2.420     2.433
    45   1 H        0.926     0.037     2.494     2.470
    46   1 H        0.924     0.087     1.911     2.162
    47   1 H        0.924     0.056     2.245     2.343
    48   1 H        0.926     0.031     2.569     2.507
    49   1 H        0.926     0.036     2.497     2.471
    50   1 H        0.926     0.036     2.497     2.471
    51   1 H        0.926     0.040     2.452     2.449
    52   1 H        0.926     0.050     2.323     2.384
    53   1 H        0.924     0.048     2.345     2.395
    54   1 H        0.924     0.043     2.404     2.425
    55   1 H        0.925     0.039     2.457     2.451
    56   1 H        0.925     0.037     2.485     2.465
    57   1 H        0.925     0.026     2.645     2.543
    58   1 H        0.926     0.040     2.443     2.444
    59   1 H        0.926     0.040     2.445     2.445
    60   1 H        0.926     0.044     2.399     2.422
    61   1 H        0.926     0.035     2.519     2.482
    62   1 H        0.924     0.071     2.073     2.251
    63   1 H        0.804     0.337     0.621     1.238
    64   1 H        0.925     0.026     2.649     2.545
    65   1 H        0.926     0.034     2.530     2.488
    66   1 H        0.926     0.038     2.482     2.464
    67   1 H        0.926     0.043     2.410     2.428
    68   1 H        0.924     0.044     2.397     2.421
    69   1 H        0.925     0.043     2.407     2.426
    70   1 H        0.925     0.053     2.280     2.361
    71   1 H        0.925     0.036     2.509     2.477
    72   1 H        0.925     0.038     2.478     2.462

Wiberg/Mayer (AO) data.
largest (>0.10) Wiberg bond orders for each atom

     #   Z sym  total        # sym  WBO       # sym  WBO       # sym  WBO
 ---------------------------------------------------------------------------
     1   6 C    3.991 --     2 C    1.450     6 C    1.405    41 H    0.968
                             4 C    0.113
     2   6 C    3.992 --     1 C    1.450     3 C    1.433    42 H    0.971
                             5 C    0.110
     3   6 C    3.992 --     4 C    1.445     2 C    1.433    43 H    0.971
                             6 C    0.109
     4   6 C    3.992 --     3 C    1.445     5 C    1.436    44 H    0.970
                             1 C    0.113
     5   6 C    3.991 --     4 C    1.436     6 C    1.421    45 H    0.964
                             2 C    0.110
     6   6 C    3.985 --     5 C    1.421     1 C    1.405     7 C    0.983
                             3 C    0.109
     7   6 C    3.961 --     6 C    0.983     8 C    0.967    30 N    0.965
                            46 H    0.939
     8   6 C    3.961 --     9 C    0.985     7 C    0.967    47 H    0.955
                            15 N    0.941
     9   6 C    3.985 --    14 C    1.414    10 C    1.413     8 C    0.985
                            12 C    0.109
    10   6 C    3.992 --    11 C    1.443     9 C    1.413    48 H    0.965
                            13 C    0.111
    11   6 C    3.992 --    10 C    1.443    12 C    1.439    49 H    0.971
                            14 C    0.111
    12   6 C    3.991 --    13 C    1.440    11 C    1.439    50 H    0.971
                             9 C    0.109
    13   6 C    3.992 --    14 C    1.443    12 C    1.440    51 H    0.970
                            10 C    0.111
    14   6 C    3.989 --    13 C    1.443     9 C    1.414    52 H    0.967
                            11 C    0.111
    15   7 N    3.450 --    16 C    1.187    26 C    0.988     8 C    0.941
                            25 O    0.184
    16   6 C    3.941 --    25 O    1.701    15 N    1.187    17 C    0.961
    17   6 C    3.985 --    24 C    1.407    18 C    1.378    16 C    0.961
                            22 C    0.107
    18   6 C    3.987 --    21 C    1.411    17 C    1.378    19 C    1.013
                            23 C    0.108
    19   6 C    3.996 --    18 C    1.013    20 C    1.000    54 H    0.972
                            53 H    0.971
    20   6 C    3.996 --    19 C    1.000    56 H    0.988    55 H    0.986
                            57 H    0.981
    21   6 C    3.991 --    22 C    1.448    18 C    1.411    58 H    0.968
                            24 C    0.110
    22   6 C    3.991 --    21 C    1.448    23 C    1.434    59 H    0.970
                            17 C    0.107
    23   6 C    3.991 --    24 C    1.442    22 C    1.434    60 H    0.970
                            18 C    0.108
    24   6 C    3.991 --    23 C    1.442    17 C    1.407    61 H    0.967
                            21 C    0.110
    25   8 O    2.021 --    16 C    1.701    15 N    0.184
    26   6 C    3.966 --    15 N    0.988    30 N    0.986    62 H    0.939
                            27 C    0.895
    27   6 C    3.922 --    29 O    1.792    28 O    1.156    26 C    0.895
    28   8 O    2.235 --    27 C    1.156    63 H    0.848    29 O    0.170
    29   8 O    2.085 --    27 C    1.792    28 O    0.170
    30   7 N    3.460 --    31 C    1.187    26 C    0.986     7 C    0.965
                            40 O    0.184
    31   6 C    3.940 --    40 O    1.692    30 N    1.187    32 C    0.969
    32   6 C    3.985 --    33 C    1.395    37 C    1.384    31 C    0.969
                            35 C    0.105
    33   6 C    3.991 --    34 C    1.448    32 C    1.395    64 H    0.964
                            36 C    0.110
    34   6 C    3.991 --    33 C    1.448    35 C    1.426    65 H    0.970
                            37 C    0.107
    35   6 C    3.992 --    36 C    1.456    34 C    1.426    66 H    0.971
                            32 C    0.105
    36   6 C    3.991 --    35 C    1.456    37 C    1.403    67 H    0.967
                            33 C    0.110
    37   6 C    3.986 --    36 C    1.403    32 C    1.384    38 C    1.015
                            34 C    0.107
    38   6 C    3.996 --    37 C    1.015    39 C    1.001    69 H    0.973
                            68 H    0.966
    39   6 C    3.994 --    38 C    1.001    72 H    0.987    71 H    0.986
                            70 H    0.979
    40   8 O    2.021 --    31 C    1.692    30 N    0.184
    41   1 H    0.999 --     1 C    0.968
    42   1 H    0.998 --     2 C    0.971
    43   1 H    0.998 --     3 C    0.971
    44   1 H    0.998 --     4 C    0.970
    45   1 H    0.999 --     5 C    0.964
    46   1 H    0.992 --     7 C    0.939
    47   1 H    0.996 --     8 C    0.955
    48   1 H    0.999 --    10 C    0.965
    49   1 H    0.998 --    11 C    0.971
    50   1 H    0.998 --    12 C    0.971
    51   1 H    0.998 --    13 C    0.970
    52   1 H    0.998 --    14 C    0.967
    53   1 H    0.997 --    19 C    0.971
    54   1 H    0.998 --    19 C    0.972
    55   1 H    0.998 --    20 C    0.986
    56   1 H    0.999 --    20 C    0.988
    57   1 H    0.999 --    20 C    0.981
    58   1 H    0.998 --    21 C    0.968
    59   1 H    0.998 --    22 C    0.970
    60   1 H    0.997 --    23 C    0.970
    61   1 H    0.998 --    24 C    0.967
    62   1 H    0.995 --    26 C    0.939
    63   1 H    0.887 --    28 O    0.848
    64   1 H    0.999 --    33 C    0.964
    65   1 H    0.998 --    34 C    0.970
    66   1 H    0.998 --    35 C    0.971
    67   1 H    0.998 --    36 C    0.967
    68   1 H    0.998 --    38 C    0.966
    69   1 H    0.998 --    38 C    0.973
    70   1 H    0.997 --    39 C    0.979
    71   1 H    0.998 --    39 C    0.986
    72   1 H    0.999 --    39 C    0.987
 ---------------------------------------------------------------------------

molecular dipole:
                 x           y           z       tot (Debye)
 q only:       -0.431      -0.032       0.016
   full:       -0.674      -0.045       0.099       1.735

           -------------------------------------------------
          | TOTAL ENERGY             -111.277689997742 Eh   |
          | GRADIENT NORM               0.000265801568 Eh/Î± |
          | HOMO-LUMO GAP               3.599818867295 eV   |
           -------------------------------------------------

 * finished run on 2022/03/17 at 01:04:24.238
