   * xtb version 6.3.3 (4ae9cef) compiled by 'conda@95abc7406d43' on 2020-10-14
          program call               : xtb acid_85.xyz --opt --chrg 0 --uhf 0 --gfn 2
          number of atoms            :                    60
          number of electrons        :                   182
          charge                     :                     0
          spin                       :                   0.0

   ID    Z sym.   atoms
    1    6 C      1-14, 16-18, 20-22, 24, 25, 29-31, 33-35
    2    7 N      15, 28
    3   16 S      19, 32
    4    8 O      23, 26, 27, 36
    5    1 H      37-60

          :  Hamiltonian                  GFN2-xTB          :
 * total energy  :  -100.8089779 Eh     change       -0.2761240E-08 Eh
 * total energy  :  -100.8218282 Eh     change       -0.1285033E-01 Eh
 * total energy  :  -100.8257041 Eh     change       -0.3875929E-02 Eh
 * total energy  :  -100.8268317 Eh     change       -0.1127565E-02 Eh
 * total energy  :  -100.8274772 Eh     change       -0.6454940E-03 Eh
 * total energy  :  -100.8278553 Eh     change       -0.3781108E-03 Eh
 * total energy  :  -100.8281819 Eh     change       -0.3265796E-03 Eh
 * total energy  :  -100.8284895 Eh     change       -0.3076682E-03 Eh
 * total energy  :  -100.8288238 Eh     change       -0.3342168E-03 Eh
 * total energy  :  -100.8291655 Eh     change       -0.3417481E-03 Eh
 * total energy  :  -100.8330331 Eh     change        0.5068315E-06 Eh
 * total energy  :  -100.8330524 Eh     change       -0.1924793E-04 Eh
 * total energy  :  -100.8330619 Eh     change       -0.9534272E-05 Eh
 * total energy  :  -100.8330752 Eh     change       -0.1326230E-04 Eh
 * total energy  :  -100.8330830 Eh     change       -0.7832407E-05 Eh
 * total energy  :  -100.8330812 Eh     change        0.1840589E-05 Eh
 * total energy  :  -100.8330896 Eh     change       -0.8451114E-05 Eh
 * total energy  :  -100.8330962 Eh     change       -0.6523963E-05 Eh
 * total energy  :  -100.8331011 Eh     change       -0.4987615E-05 Eh
   *** GEOMETRY OPTIMIZATION CONVERGED AFTER 60 ITERATIONS ***

 final structure:
================
60
 xtb: 6.3.3 (4ae9cef)
C        -2.74621224605059   -3.22330353261514   -0.63951743638043
C        -3.87421568542504   -3.41115401890077   -1.41838881246636
C        -4.26959175219718   -2.43424663414513   -2.31523185766773
C        -3.53391039304104   -1.26690278479827   -2.43015596275074
C        -2.40627515517229   -1.07947884846363   -1.65297528550060
C        -2.00355429365799   -2.05774299919990   -0.75206823317639
C        -0.76439579853898   -1.85154056803108    0.07998262068835
C         0.52573764844062   -1.79655563214118   -0.78520289522509
C         1.63401677796016   -2.67901041431697   -0.26250138738241
C         2.92211408472977   -2.19366024397709   -0.08329592842454
C         3.92062223536503   -3.01910185987293    0.40537918517840
C         3.64618152722759   -4.34082100049495    0.70820677454043
C         2.37050993571185   -4.83948221806018    0.50259568923475
C         1.37180424315247   -4.01522873208938    0.01767714841287
N         0.88490294746143   -0.38552653318931   -0.78346124139341
C         0.98882070156528    0.29646334864238   -1.97055924819628
C         1.04979072659325    1.77166779163841   -1.85765415756346
C         0.33651874786145    2.57431333189050   -2.69829308693953
S         0.55314721935526    4.23765692435439   -2.34596416377780
C         1.65804635142838    3.86404786125785   -1.05612564494961
C         2.30603353054154    4.94787275621497   -0.27295451199499
C         1.81522157724138    2.52274490116649   -0.92063841373645
O         1.02790853760978   -0.28783962731724   -3.03202165891195
C         0.42419733165167    0.18048991869469    0.45599586608935
C         1.47995635047814   -0.02887931116293    1.56400313224017
O         1.16383660424820   -1.01723650612270    2.38797458616523
O         2.46884221070274    0.64337892498637    1.66843831440076
N        -0.79084746873278   -0.54334052972362    0.72469254118884
C        -1.74942232608880   -0.19078580019691    1.62059514040993
C        -1.60201570112553    1.21067700128150    2.10914718836543
C        -1.39353442830344    1.54776433426677    3.40770472620803
S        -1.23210713544910    3.24659681323166    3.61825471921837
C        -1.47309593652310    3.52423023630926    1.92101752639394
C        -1.46514221051241    4.90357912998762    1.36771589495128
C        -1.65504536037722    2.35227274241086    1.25994381109758
O        -2.63845652980311   -0.93963649425640    1.95851192206015
H        -2.44670179620979   -3.98142105495632    0.06915853463703
H        -4.44838130537121   -4.32055003612160   -1.32096814882475
H        -5.15144947535784   -2.57934215124253   -2.92136159855935
H        -3.83960953067729   -0.50041171014440   -3.12696898020406
H        -1.83466317559912   -0.16662336451370   -1.74793332264500
H        -0.69619802158935   -2.63008438393721    0.84763923026647
H         0.31037137119458   -2.07795975817215   -1.82407543507885
H         3.15218999869540   -1.16909003484785   -0.33424246627799
H         4.91632755787925   -2.62511465161236    0.54532824838531
H         4.42492022873295   -4.98325371756447    1.09115229123725
H         2.15338551876601   -5.87517352270108    0.71781653524000
H         0.38342158815690   -4.41415045962797   -0.15707344111710
H        -0.31532114071510    2.27144521086624   -3.49333789946066
H         2.72379735725741    4.54041183511788    0.64449563430364
H         3.11242583421626    5.40433232141606   -0.84790503711905
H         1.58912529867898    5.72888234529837   -0.02693979391516
H         2.46808760996306    2.07823300586966   -0.19100307668210
H         0.26106423027917    1.25963612391633    0.36473902691432
H         1.84865228013559   -1.14419482268039    3.06494834982928
H        -1.31399713475056    0.89489053570772    4.25344444926386
H        -0.57651599333180    5.44052697781858    1.69480065146247
H        -1.48191370638276    4.87045976071340    0.28086956652097
H        -2.33595112983700    5.46008363485345    1.71341956189858
H        -1.85345133246240    2.29618718928194    0.20316925950313

          :  Hamiltonian                  GFN2-xTB          :
         :: total energy            -100.833101140100 Eh    ::
         :: gradient norm              0.000522064330 Eh/a0 ::
         :: HOMO-LUMO gap              3.364108441418 eV    ::
         :: SCC energy              -102.287812373689 Eh    ::
         :: -> dispersion             -0.088043132696 Eh    ::
         :: repulsion energy           1.451537818944 Eh    ::

    * Orbital Energies and Occupations

         #    Occupation            Energy/Eh            Energy/eV
      -------------------------------------------------------------
         1        2.0000           -0.7791884             -21.2028
       ...           ...                  ...                  ...
        79        2.0000           -0.4262819             -11.5997
        80        2.0000           -0.4210176             -11.4565
        81        2.0000           -0.4154080             -11.3038
        82        2.0000           -0.4127679             -11.2320
        83        2.0000           -0.4107035             -11.1758
        84        2.0000           -0.4084276             -11.1139
        85        2.0000           -0.4075368             -11.0896
        86        2.0000           -0.4062462             -11.0545
        87        2.0000           -0.4041974             -10.9988
        88        2.0000           -0.4005180             -10.8986
        89        2.0000           -0.3982979             -10.8382
        90        2.0000           -0.3963347             -10.7848
        91        2.0000           -0.3956898             -10.7673 (HOMO)
        92                         -0.2720610              -7.4032 (LUMO)
        93                         -0.2641865              -7.1889
        94                         -0.2566387              -6.9835
        95                         -0.2365160              -6.4359
        96                         -0.2334053              -6.3513
        97                         -0.2320262              -6.3138
        98                         -0.2282349              -6.2106
        99                         -0.2265753              -6.1654
       100                         -0.2252906              -6.1305
       101                         -0.2117049              -5.7608
       102                         -0.2090404              -5.6883
       ...                                ...                  ...
       178                          0.6916234              18.8200
      -------------------------------------------------------------
                  HL-Gap            0.1236287 Eh            3.3641 eV

     #   Z          covCN         q      C6AA      Î±(0)
     1   6 C        2.924    -0.028    28.700     8.785
     2   6 C        2.920    -0.025    28.632     8.775
     3   6 C        2.921    -0.028    28.695     8.784
     4   6 C        2.920    -0.026    28.649     8.777
     5   6 C        2.924    -0.027    28.675     8.782
     6   6 C        2.974     0.009    27.803     8.649
     7   6 C        3.823     0.041    19.875     6.344
     8   6 C        3.842     0.036    19.945     6.353
     9   6 C        2.971     0.003    27.950     8.672
    10   6 C        2.923    -0.034    28.848     8.808
    11   6 C        2.920    -0.028    28.709     8.787
    12   6 C        2.920    -0.031    28.778     8.797
    13   6 C        2.920    -0.027    28.686     8.783
    14   6 C        2.925    -0.037    28.913     8.818
    15   7 N        2.766    -0.119    23.581     7.212
    16   6 C        2.762     0.274    22.368     7.745
    17   6 C        3.164    -0.037    28.562     8.734
    18   6 C        2.941    -0.017    28.429     8.745
    19  16 S        2.325    -0.018   141.812    20.043
    20   6 C        2.981     0.028    27.375     8.582
    21   6 C        3.775    -0.111    22.655     6.782
    22   6 C        3.114    -0.069    29.550     8.905
    23   8 O        0.859    -0.416    22.004     6.289
    24   6 C        3.779     0.086    19.175     6.238
    25   6 C        2.688     0.353    21.003     7.500
    26   8 O        1.659    -0.353    19.954     6.030
    27   8 O        0.856    -0.393    21.533     6.221
    28   7 N        2.771    -0.117    23.552     7.208
    29   6 C        2.758     0.275    22.355     7.743
    30   6 C        3.167    -0.039    28.590     8.737
    31   6 C        2.940    -0.021    28.542     8.762
    32  16 S        2.333    -0.019   141.832    20.044
    33   6 C        2.980     0.027    27.390     8.585
    34   6 C        3.776    -0.110    22.628     6.778
    35   6 C        3.122    -0.064    29.392     8.879
    36   8 O        0.859    -0.416    21.994     6.288
    37   1 H        0.926     0.036     2.502     2.474
    38   1 H        0.926     0.038     2.473     2.459
    39   1 H        0.926     0.036     2.496     2.471
    40   1 H        0.926     0.035     2.512     2.479
    41   1 H        0.925     0.022     2.696     2.568
    42   1 H        0.924     0.063     2.167     2.302
    43   1 H        0.924     0.086     1.917     2.165
    44   1 H        0.926     0.036     2.499     2.472
    45   1 H        0.926     0.038     2.480     2.463
    46   1 H        0.926     0.036     2.501     2.473
    47   1 H        0.926     0.038     2.480     2.463
    48   1 H        0.926     0.035     2.517     2.481
    49   1 H        0.926     0.057     2.230     2.335
    50   1 H        0.925     0.059     2.210     2.325
    51   1 H        0.924     0.061     2.185     2.311
    52   1 H        0.925     0.056     2.241     2.341
    53   1 H        0.926     0.059     2.207     2.323
    54   1 H        0.924     0.080     1.975     2.198
    55   1 H        0.804     0.344     0.603     1.220
    56   1 H        0.926     0.051     2.302     2.372
    57   1 H        0.925     0.058     2.220     2.330
    58   1 H        0.925     0.055     2.253     2.347
    59   1 H        0.925     0.062     2.176     2.307
    60   1 H        0.926     0.033     2.545     2.495

Wiberg/Mayer (AO) data.
largest (>0.10) Wiberg bond orders for each atom

     #   Z sym  total        # sym  WBO       # sym  WBO       # sym  WBO
 ---------------------------------------------------------------------------
     1   6 C    3.990 --     2 C    1.441     6 C    1.416    37 H    0.968
                             4 C    0.111
     2   6 C    3.992 --     3 C    1.442     1 C    1.441    38 H    0.971
                             5 C    0.112
     3   6 C    3.990 --     2 C    1.442     4 C    1.436    39 H    0.971
                             6 C    0.110
     4   6 C    3.992 --     5 C    1.449     3 C    1.436    40 H    0.971
                             1 C    0.111
     5   6 C    3.992 --     4 C    1.449     6 C    1.409    41 H    0.969
                             2 C    0.112
     6   6 C    3.986 --     1 C    1.416     5 C    1.409     7 C    0.991
                             3 C    0.110
     7   6 C    3.962 --     6 C    0.991    28 N    0.955    42 H    0.953
                             8 C    0.950
     8   6 C    3.960 --     9 C    0.990    15 N    0.967     7 C    0.950
                            43 H    0.939
     9   6 C    3.985 --    10 C    1.417    14 C    1.405     8 C    0.990
                            12 C    0.109
    10   6 C    3.991 --    11 C    1.438     9 C    1.417    44 H    0.966
                            13 C    0.110
    11   6 C    3.992 --    12 C    1.444    10 C    1.438    45 H    0.971
                            14 C    0.112
    12   6 C    3.992 --    11 C    1.444    13 C    1.433    46 H    0.971
                             9 C    0.109
    13   6 C    3.991 --    14 C    1.450    12 C    1.433    47 H    0.971
                            10 C    0.110
    14   6 C    3.991 --    13 C    1.450     9 C    1.405    48 H    0.967
                            11 C    0.112
    15   7 N    3.442 --    16 C    1.167    24 C    0.988     8 C    0.967
                            23 O    0.177
    16   6 C    3.944 --    23 O    1.697    15 N    1.167    17 C    0.991
    17   6 C    3.982 --    18 C    1.573    22 C    1.220    16 C    0.991
    18   6 C    3.950 --    17 C    1.573    19 S    1.206    49 H    0.969
                            20 C    0.105
    19  16 S    2.620 --    18 C    1.206    20 C    1.150
    20   6 C    3.952 --    22 C    1.619    19 S    1.150    21 C    1.039
                            18 C    0.105
    21   6 C    3.994 --    20 C    1.039    50 H    0.978    52 H    0.974
                            51 H    0.964
    22   6 C    3.983 --    20 C    1.619    17 C    1.220    53 H    0.956
    23   8 O    2.028 --    16 C    1.697    15 N    0.177
    24   6 C    3.971 --    15 N    0.988    28 N    0.986    54 H    0.925
                            25 C    0.909
    25   6 C    3.917 --    27 O    1.767    26 O    1.168    24 C    0.909
    26   8 O    2.234 --    25 C    1.168    55 H    0.855    27 O    0.183
    27   8 O    2.054 --    25 C    1.767    26 O    0.183
    28   7 N    3.462 --    29 C    1.202    24 C    0.986     7 C    0.955
                            36 O    0.190
    29   6 C    3.949 --    36 O    1.699    28 N    1.202    30 C    0.960
    30   6 C    3.983 --    31 C    1.604    35 C    1.221    29 C    0.960
    31   6 C    3.949 --    30 C    1.604    32 S    1.187    56 H    0.970
                            33 C    0.104
    32  16 S    2.608 --    31 C    1.187    33 C    1.158
    33   6 C    3.954 --    35 C    1.613    32 S    1.158    34 C    1.039
                            31 C    0.104
    34   6 C    3.994 --    33 C    1.039    58 H    0.979    57 H    0.971
                            59 H    0.966
    35   6 C    3.982 --    33 C    1.613    30 C    1.221    60 H    0.962
    36   8 O    2.025 --    29 C    1.699    28 N    0.190
    37   1 H    0.999 --     1 C    0.968
    38   1 H    0.998 --     2 C    0.971
    39   1 H    0.998 --     3 C    0.971
    40   1 H    0.998 --     4 C    0.971
    41   1 H    0.999 --     5 C    0.969
    42   1 H    0.995 --     7 C    0.953
    43   1 H    0.992 --     8 C    0.939
    44   1 H    0.999 --    10 C    0.966
    45   1 H    0.998 --    11 C    0.971
    46   1 H    0.998 --    12 C    0.971
    47   1 H    0.998 --    13 C    0.971
    48   1 H    0.999 --    14 C    0.967
    49   1 H    0.996 --    18 C    0.969
    50   1 H    0.996 --    21 C    0.978
    51   1 H    0.996 --    21 C    0.964
    52   1 H    0.996 --    21 C    0.974
    53   1 H    0.996 --    22 C    0.956
    54   1 H    0.993 --    24 C    0.925
    55   1 H    0.881 --    26 O    0.855
    56   1 H    0.997 --    31 C    0.970
    57   1 H    0.996 --    34 C    0.971
    58   1 H    0.997 --    34 C    0.979
    59   1 H    0.996 --    34 C    0.966
    60   1 H    0.999 --    35 C    0.962
 ---------------------------------------------------------------------------

molecular dipole:
                 x           y           z       tot (Debye)
 q only:        0.590       0.762       0.729
   full:        0.740       0.522       0.804       3.080

           -------------------------------------------------
          | TOTAL ENERGY             -100.833101140100 Eh   |
          | GRADIENT NORM               0.000522064330 Eh/Î± |
          | HOMO-LUMO GAP               3.364108441418 eV   |
           -------------------------------------------------

 * finished run on 2022/03/17 at 02:10:16.536
