   * xtb version 6.3.3 (4ae9cef) compiled by 'conda@95abc7406d43' on 2020-10-14
          program call               : xtb acid_96.xyz --opt --chrg 0 --uhf 0 --gfn 2
          number of atoms            :                    72
          number of electrons        :                   226
          charge                     :                     0
          spin                       :                   0.0

   ID    Z sym.   atoms
    1    6 C      1-22, 24-28, 30, 31, 33, 34, 38-42, 44, 45
    2    7 N      23, 37
    3   35 Br     29, 43
    4    8 O      32, 35, 36, 46
    5    1 H      47-72

          :  Hamiltonian                  GFN2-xTB          :
 * total energy  :  -124.9071972 Eh     change       -0.3872273E-08 Eh
 * total energy  :  -124.9265468 Eh     change       -0.1934965E-01 Eh
 * total energy  :  -124.9328593 Eh     change       -0.6312520E-02 Eh
 * total energy  :  -124.9352605 Eh     change       -0.2401185E-02 Eh
 * total energy  :  -124.9369381 Eh     change       -0.1677551E-02 Eh
 * total energy  :  -124.9378862 Eh     change       -0.9480892E-03 Eh
 * total energy  :  -124.9387516 Eh     change       -0.8654213E-03 Eh
 * total energy  :  -124.9396551 Eh     change       -0.9035005E-03 Eh
 * total energy  :  -124.9405767 Eh     change       -0.9216238E-03 Eh
 * total energy  :  -124.9413839 Eh     change       -0.8072299E-03 Eh
 * total energy  :  -124.9506681 Eh     change        0.2083947E-05 Eh
 * total energy  :  -124.9506769 Eh     change       -0.8751726E-05 Eh
 * total energy  :  -124.9506860 Eh     change       -0.9129303E-05 Eh
 * total energy  :  -124.9506744 Eh     change        0.1155816E-04 Eh
 * total energy  :  -124.9506877 Eh     change       -0.1330271E-04 Eh
 * total energy  :  -124.9506931 Eh     change       -0.5400589E-05 Eh
 * total energy  :  -124.9506854 Eh     change        0.7687937E-05 Eh
 * total energy  :  -124.9506946 Eh     change       -0.9118620E-05 Eh
 * total energy  :  -124.9506991 Eh     change       -0.4513854E-05 Eh
   *** GEOMETRY OPTIMIZATION CONVERGED AFTER 63 ITERATIONS ***

 final structure:
================
72
 xtb: 6.3.3 (4ae9cef)
C         2.22221289895051   -4.48308646138098   -3.00030458411048
C         2.49262297902596   -3.60191058163518   -4.00791424620531
C         2.04798141957810   -2.27658261115482   -3.91046169954062
C         1.36046644777324   -1.85223154057452   -2.80719369944411
C         1.08183440439862   -2.72928673498724   -1.73692005219040
C         1.51267924849630   -4.07745349727321   -1.85105183512611
C         1.21993806985371   -4.99104681999121   -0.81726469875281
C         0.52321139976954   -4.58739188772379    0.28289165860673
C         0.11650268230182   -3.25181872093909    0.41500378860279
C         0.40055294220075   -2.32545395425894   -0.55313880396811
C        -0.04397499573211   -0.89422333824608   -0.43488133235575
C        -0.79627976651249   -0.44809090145068    0.83531377437664
C        -2.24367275274170   -0.86121892713143    0.86967336751621
C        -3.04953524758226   -0.46989906405488   -0.17211711000011
C        -4.39448004400692   -0.84920195439862   -0.23985017747679
C        -4.93142348883071   -1.63253411243847    0.73998243818258
C        -4.15176341172715   -2.03313454196594    1.84309498990811
C        -2.78976253965803   -1.63021836236703    1.93327184352193
C        -2.07310732303456   -2.00929513499450    3.09041212141767
C        -2.65053598370403   -2.76517027358845    4.07217645067313
C        -3.98167685179783   -3.18845450802377    3.95951351117088
C        -4.71555415422088   -2.82046524425356    2.86941342889046
N        -0.64681956512084    1.00947212188763    0.73459922714083
C        -1.41984102255974    1.89427859762049    1.41042110876984
C        -1.19093596554049    3.31629420422902    0.98201774674903
C        -0.13296216714060    4.06714781862660    1.47831570398116
C         0.06284624045567    5.36627478866714    1.04612178379939
C        -0.81104336370359    5.90584535179430    0.11756148536457
Br       -0.52323471956018    7.67839971536687   -0.51413547917766
C        -1.88736271530180    5.18096724909722   -0.36613896325797
C        -2.07622018731942    3.88316368511702    0.07318686123441
O        -2.23173290437695    1.57069976171903    2.24579663184679
C         0.42324935344456    1.36303997546183   -0.18492366519813
C        -0.13708737671542    2.01940378045269   -1.45910275021406
O         0.51947850649222    3.13876277583755   -1.75179093023570
O        -1.03424186436387    1.57939804436443   -2.12099048920218
N         1.04319583828162    0.09543736730118   -0.49129543206157
C         2.33088197286798   -0.18901656831245   -0.10303655743455
C         3.26203003762951    0.97644547730736   -0.19850122547702
C         3.33236088598668    1.74263120803241   -1.35792599194029
C         4.23906173681650    2.78121229194398   -1.45327397405238
C         5.07360659901793    3.04969169694911   -0.38030195462475
Br        6.30878434823863    4.49099958964888   -0.50071418613457
C         5.03200850987377    2.28465433421981    0.77420166598268
C         4.13032162176924    1.24020701591013    0.85581746330855
O         2.70941860653284   -1.28722740794874    0.22797511459083
H         2.54917545433245   -5.51097521715668   -3.06683346476363
H         3.04032855693764   -3.91788493648298   -4.88344350814107
H         2.25143063379797   -1.58866738084640   -4.71864971894789
H         1.02267933932647   -0.82807507644568   -2.76397117954764
H         1.55468282493923   -6.01335391666391   -0.91746867224404
H         0.28477947089134   -5.28577032860582    1.07113433891227
H        -0.42965529056319   -2.97393926603862    1.30079546095217
H        -0.68980098218939   -0.67557241657892   -1.29663144770085
H        -0.24790513621990   -0.78408143895443    1.72025895116152
H        -2.65143051728438    0.15441838038139   -0.95918473559653
H        -4.99415799545944   -0.52172269172451   -1.07600630828022
H        -5.96441136878879   -1.94572181136509    0.69400669557343
H        -1.05446637557246   -1.68247505511802    3.23266876942705
H        -2.08030841240955   -3.03626301655633    4.94861696630513
H        -4.41968071074214   -3.79013635779870    4.74205915604774
H        -5.74932248204186   -3.12106311088052    2.77560428051752
H         0.53691587807691    3.64016205613758    2.21013781350777
H         0.88568983250468    5.95300332465392    1.42383682275210
H        -2.56792071635535    5.62480156188239   -1.07622410892260
H        -2.91117986983867    3.30387318648207   -0.29112811365615
H         1.14218935596392    2.06061482866321    0.26233363052694
H         0.17292598559351    3.55221751361109   -2.56125317611227
H         2.69253278334764    1.51119871025396   -2.19471459900558
H         4.30143457010950    3.37576977587603   -2.35127724197241
H         5.70110998438312    2.49912824004145    1.59306797803042
H         4.09236884874849    0.62050374075247    1.73873508372302

          :  Hamiltonian                  GFN2-xTB          :
         :: total energy            -124.950699084456 Eh    ::
         :: gradient norm              0.000682040362 Eh/a0 ::
         :: HOMO-LUMO gap              2.452029176354 eV    ::
         :: SCC energy              -126.867885470298 Eh    ::
         :: -> dispersion             -0.111915348041 Eh    ::
         :: repulsion energy           1.913929514654 Eh    ::

    * Orbital Energies and Occupations

         #    Occupation            Energy/Eh            Energy/eV
      -------------------------------------------------------------
         1        2.0000           -0.8498731             -23.1262
       ...           ...                  ...                  ...
       101        2.0000           -0.4240288             -11.5384
       102        2.0000           -0.4215800             -11.4718
       103        2.0000           -0.4204511             -11.4411
       104        2.0000           -0.4173506             -11.3567
       105        2.0000           -0.4160390             -11.3210
       106        2.0000           -0.4152310             -11.2990
       107        2.0000           -0.4126684             -11.2293
       108        2.0000           -0.4102364             -11.1631
       109        2.0000           -0.4095614             -11.1447
       110        2.0000           -0.4035487             -10.9811
       111        2.0000           -0.4032839             -10.9739
       112        2.0000           -0.3805195             -10.3545
       113        2.0000           -0.3802965             -10.3484 (HOMO)
       114                         -0.2901861              -7.8964 (LUMO)
       115                         -0.2848406              -7.7509
       116                         -0.2684458              -7.3048
       117                         -0.2663687              -7.2483
       118                         -0.2651830              -7.2160
       119                         -0.2649330              -7.2092
       120                         -0.2639775              -7.1832
       121                         -0.2323290              -6.3220
       122                         -0.2318414              -6.3087
       123                         -0.2310525              -6.2873
       124                         -0.2287706              -6.2252
       ...                                ...                  ...
       220                          0.6931753              18.8623
      -------------------------------------------------------------
                  HL-Gap            0.0901104 Eh            2.4520 eV

     #   Z          covCN         q      C6AA      Î±(0)
     1   6 C        2.921    -0.032    28.801     8.801
     2   6 C        2.915    -0.029    28.734     8.790
     3   6 C        2.917    -0.029    28.733     8.790
     4   6 C        2.918    -0.035    28.872     8.811
     5   6 C        2.987     0.015    27.664     8.628
     6   6 C        2.989     0.019    27.570     8.613
     7   6 C        2.919    -0.033    28.825     8.804
     8   6 C        2.915    -0.027    28.670     8.780
     9   6 C        2.920    -0.034    28.847     8.808
    10   6 C        2.965     0.011    27.775     8.644
    11   6 C        3.857     0.042    19.836     6.334
    12   6 C        3.824     0.047    19.770     6.327
    13   6 C        2.966     0.005    27.900     8.664
    14   6 C        2.924    -0.036    28.899     8.816
    15   6 C        2.914    -0.028    28.710     8.786
    16   6 C        2.921    -0.034    28.837     8.806
    17   6 C        2.989     0.017    27.613     8.620
    18   6 C        2.982     0.017    27.616     8.620
    19   6 C        2.917    -0.031    28.763     8.795
    20   6 C        2.917    -0.028    28.695     8.784
    21   6 C        2.915    -0.029    28.714     8.787
    22   6 C        2.922    -0.032    28.808     8.802
    23   7 N        2.774    -0.129    23.793     7.245
    24   6 C        2.759     0.274    22.370     7.745
    25   6 C        2.977    -0.020    28.508     8.758
    26   6 C        2.924    -0.027    28.674     8.781
    27   6 C        2.992    -0.032    28.781     8.800
    28   6 C        2.918     0.085    26.117     8.380
    29  35 Br       1.069    -0.155   189.340    22.186
    30   6 C        2.992    -0.034    28.843     8.810
    31   6 C        2.927    -0.024    28.606     8.771
    32   8 O        0.858    -0.404    21.763     6.255
    33   6 C        3.784     0.091    19.100     6.225
    34   6 C        2.688     0.351    21.044     7.507
    35   8 O        1.659    -0.370    20.272     6.078
    36   8 O        0.856    -0.378    21.241     6.179
    37   7 N        2.766    -0.132    23.866     7.256
    38   6 C        2.761     0.277    22.308     7.735
    39   6 C        2.975    -0.021    28.516     8.759
    40   6 C        2.925    -0.026    28.645     8.777
    41   6 C        2.992    -0.032    28.780     8.800
    42   6 C        2.918     0.087    26.055     8.370
    43  35 Br       1.070    -0.150   189.178    22.177
    44   6 C        2.991    -0.032    28.788     8.801
    45   6 C        2.926    -0.020    28.498     8.755
    46   8 O        0.858    -0.390    21.480     6.214
    47   1 H        0.926     0.036     2.504     2.474
    48   1 H        0.926     0.033     2.544     2.494
    49   1 H        0.926     0.029     2.606     2.525
    50   1 H        0.926     0.021     2.718     2.578
    51   1 H        0.926     0.038     2.476     2.461
    52   1 H        0.926     0.037     2.487     2.466
    53   1 H        0.926     0.039     2.465     2.455
    54   1 H        0.923     0.073     2.057     2.243
    55   1 H        0.924     0.054     2.274     2.358
    56   1 H        0.926     0.042     2.428     2.437
    57   1 H        0.926     0.036     2.506     2.476
    58   1 H        0.926     0.037     2.487     2.466
    59   1 H        0.926     0.029     2.595     2.519
    60   1 H        0.926     0.033     2.539     2.492
    61   1 H        0.926     0.033     2.538     2.491
    62   1 H        0.926     0.035     2.517     2.481
    63   1 H        0.926     0.045     2.388     2.416
    64   1 H        0.926     0.063     2.167     2.302
    65   1 H        0.926     0.062     2.170     2.304
    66   1 H        0.926     0.056     2.243     2.342
    67   1 H        0.924     0.060     2.200     2.320
    68   1 H        0.804     0.348     0.592     1.209
    69   1 H        0.926     0.045     2.386     2.415
    70   1 H        0.926     0.063     2.165     2.301
    71   1 H        0.926     0.065     2.143     2.289
    72   1 H        0.926     0.062     2.174     2.306

Wiberg/Mayer (AO) data.
largest (>0.10) Wiberg bond orders for each atom

     #   Z sym  total        # sym  WBO       # sym  WBO       # sym  WBO
 ---------------------------------------------------------------------------
     1   6 C    3.991 --     2 C    1.555     6 C    1.282    47 H    0.968
                             4 C    0.118
     2   6 C    3.992 --     1 C    1.555     3 C    1.325    48 H    0.971
     3   6 C    3.992 --     4 C    1.552     2 C    1.325    49 H    0.971
     4   6 C    3.993 --     3 C    1.552     5 C    1.288    50 H    0.966
                             1 C    0.118
     5   6 C    3.989 --     4 C    1.288     6 C    1.258    10 C    1.241
     6   6 C    3.990 --     1 C    1.282     7 C    1.273     5 C    1.258
     7   6 C    3.991 --     8 C    1.561     6 C    1.273    51 H    0.968
                            10 C    0.114
     8   6 C    3.992 --     7 C    1.561     9 C    1.317    52 H    0.970
     9   6 C    3.989 --    10 C    1.533     8 C    1.317    53 H    0.962
    10   6 C    3.982 --     9 C    1.533     5 C    1.241    11 C    0.996
                             7 C    0.114
    11   6 C    3.954 --    10 C    0.996    12 C    0.959    37 N    0.942
                            54 H    0.936
    12   6 C    3.956 --    13 C    0.994    11 C    0.959    55 H    0.947
                            23 N    0.939
    13   6 C    3.983 --    14 C    1.519    18 C    1.254    12 C    0.994
                            16 C    0.115
    14   6 C    3.990 --    13 C    1.519    15 C    1.330    56 H    0.962
    15   6 C    3.992 --    16 C    1.550    14 C    1.330    57 H    0.970
    16   6 C    3.990 --    15 C    1.550    17 C    1.281    58 H    0.968
                            13 C    0.115
    17   6 C    3.990 --    16 C    1.281    22 C    1.279    18 C    1.251
    18   6 C    3.988 --    19 C    1.282    13 C    1.254    17 C    1.251
    19   6 C    3.992 --    20 C    1.554    18 C    1.282    59 H    0.959
                            22 C    0.118
    20   6 C    3.990 --    19 C    1.554    21 C    1.322    60 H    0.971
    21   6 C    3.992 --    22 C    1.558    20 C    1.322    61 H    0.971
    22   6 C    3.991 --    21 C    1.558    17 C    1.279    62 H    0.968
                            19 C    0.118
    23   7 N    3.458 --    24 C    1.216    33 C    0.970    12 C    0.939
                            32 O    0.198
    24   6 C    3.950 --    32 O    1.706    23 N    1.216    25 C    0.947
    25   6 C    3.988 --    26 C    1.406    31 C    1.403    24 C    0.947
    26   6 C    3.991 --    27 C    1.442    25 C    1.406    63 H    0.967
                            30 C    0.109
    27   6 C    3.989 --    26 C    1.442    28 C    1.408    64 H    0.967
                            31 C    0.109
    28   6 C    3.942 --    30 C    1.409    27 C    1.408    29 Br   0.988
    29  35 Br   1.124 --    28 C    0.988
    30   6 C    3.989 --    31 C    1.441    28 C    1.409    65 H    0.966
                            26 C    0.109
    31   6 C    3.990 --    30 C    1.441    25 C    1.403    66 H    0.967
                            27 C    0.109
    32   8 O    2.040 --    24 C    1.706    23 N    0.198
    33   6 C    3.973 --    37 N    0.987    23 N    0.970    67 H    0.948
                            34 C    0.915
    34   6 C    3.919 --    36 O    1.779    35 O    1.152    33 C    0.915
    35   8 O    2.215 --    34 C    1.152    68 H    0.852    36 O    0.183
    36   8 O    2.069 --    34 C    1.779    35 O    0.183
    37   7 N    3.417 --    38 C    1.163    33 C    0.987    11 C    0.942
                            46 O    0.177
    38   6 C    3.944 --    46 O    1.727    37 N    1.163    39 C    0.972
    39   6 C    3.986 --    45 C    1.397    40 C    1.392    38 C    0.972
    40   6 C    3.991 --    41 C    1.448    39 C    1.392    69 H    0.967
                            44 C    0.107
    41   6 C    3.989 --    40 C    1.448    42 C    1.404    70 H    0.967
                            45 C    0.107
    42   6 C    3.943 --    44 C    1.406    41 C    1.404    43 Br   0.993
    43  35 Br   1.130 --    42 C    0.993
    44   6 C    3.989 --    45 C    1.447    42 C    1.406    71 H    0.966
                            40 C    0.107
    45   6 C    3.988 --    44 C    1.447    39 C    1.397    72 H    0.966
                            41 C    0.107
    46   8 O    2.057 --    38 C    1.727    37 N    0.177
    47   1 H    0.998 --     1 C    0.968
    48   1 H    0.998 --     2 C    0.971
    49   1 H    0.999 --     3 C    0.971
    50   1 H    0.999 --     4 C    0.966
    51   1 H    0.997 --     7 C    0.968
    52   1 H    0.998 --     8 C    0.970
    53   1 H    0.998 --     9 C    0.962
    54   1 H    0.994 --    11 C    0.936
    55   1 H    0.996 --    12 C    0.947
    56   1 H    0.998 --    14 C    0.962
    57   1 H    0.998 --    15 C    0.970
    58   1 H    0.998 --    16 C    0.968
    59   1 H    0.999 --    19 C    0.959
    60   1 H    0.998 --    20 C    0.971
    61   1 H    0.998 --    21 C    0.971
    62   1 H    0.998 --    22 C    0.968
    63   1 H    0.998 --    26 C    0.967
    64   1 H    0.995 --    27 C    0.967
    65   1 H    0.996 --    30 C    0.966
    66   1 H    0.997 --    31 C    0.967
    67   1 H    0.996 --    33 C    0.948
    68   1 H    0.878 --    35 O    0.852
    69   1 H    0.998 --    40 C    0.967
    70   1 H    0.995 --    41 C    0.967
    71   1 H    0.995 --    44 C    0.966
    72   1 H    0.996 --    45 C    0.966
 ---------------------------------------------------------------------------

molecular dipole:
                 x           y           z       tot (Debye)
 q only:       -0.115      -0.670      -0.717
   full:       -0.301      -0.877      -0.612       2.824

           -------------------------------------------------
          | TOTAL ENERGY             -124.950699084456 Eh   |
          | GRADIENT NORM               0.000682040362 Eh/Î± |
          | HOMO-LUMO GAP               2.452029176354 eV   |
           -------------------------------------------------

 * finished run on 2022/03/17 at 02:17:41.623
