   * xtb version 6.3.3 (4ae9cef) compiled by 'conda@95abc7406d43' on 2020-10-14
          program call               : xtb acid_422.xyz --opt --chrg 0 --uhf 0 --gfn 2
          number of atoms            :                    68
          number of electrons        :                   214
          charge                     :                     0
          spin                       :                   0.0

   ID    Z sym.   atoms
    1    6 C      1, 3-16, 18, 20-25, 27, 29, 30, 34-37, 39-41
    2    8 O      2, 17, 28, 31, 32, 42
    3    7 N      19, 33
    4    9 F      26, 38
    5    1 H      43-68

          :  Hamiltonian                  GFN2-xTB          :
 * total energy  :  -121.5123966 Eh     change       -0.4535138E-08 Eh
 * total energy  :  -121.5266471 Eh     change       -0.1425055E-01 Eh
 * total energy  :  -121.5314327 Eh     change       -0.4785556E-02 Eh
 * total energy  :  -121.5331197 Eh     change       -0.1687031E-02 Eh
 * total energy  :  -121.5343266 Eh     change       -0.1206902E-02 Eh
 * total energy  :  -121.5351854 Eh     change       -0.8587383E-03 Eh
 * total energy  :  -121.5359767 Eh     change       -0.7913093E-03 Eh
 * total energy  :  -121.5367567 Eh     change       -0.7800514E-03 Eh
 * total energy  :  -121.5374859 Eh     change       -0.7291609E-03 Eh
 * total energy  :  -121.5380088 Eh     change       -0.5229450E-03 Eh
 * total energy  :  -121.5406704 Eh     change       -0.1421304E-04 Eh
 * total energy  :  -121.5406897 Eh     change       -0.1928113E-04 Eh
 * total energy  :  -121.5407021 Eh     change       -0.1239286E-04 Eh
 * total energy  :  -121.5407093 Eh     change       -0.7216004E-05 Eh
 * total energy  :  -121.5407201 Eh     change       -0.1078974E-04 Eh
 * total energy  :  -121.5407282 Eh     change       -0.8077785E-05 Eh
 * total energy  :  -121.5407352 Eh     change       -0.7012205E-05 Eh
 * total energy  :  -121.5407434 Eh     change       -0.8259118E-05 Eh
 * total energy  :  -121.5407471 Eh     change       -0.3664769E-05 Eh
   *** GEOMETRY OPTIMIZATION CONVERGED AFTER 44 ITERATIONS ***

 final structure:
================
68
 xtb: 6.3.3 (4ae9cef)
C        -1.57067480792768    0.64600280658347   -3.24863483020738
O        -2.65957521289514   -0.00040145985634   -2.76348499539143
C        -3.86741508304747    0.07731992346899   -3.48193607066640
C        -1.48418476950958    1.18046973399209   -4.53073656562369
C        -0.31492212552274    1.77981884832569   -4.96438271335535
C         0.78715898614455    1.85031942145737   -4.13381801882117
C         0.70219487638335    1.33493389344572   -2.85221942177431
C        -0.46231104533243    0.74357517186884   -2.39261715214184
C        -0.57935513907435    0.25820449459514   -0.96846884472930
C         0.54402239878196   -0.71854142221515   -0.55100725914344
C        -0.01348822224356   -2.02809843147292   -0.05141361392091
C         0.07801248018083   -3.15447203440715   -0.85205889736068
C        -0.42503003628751   -4.37487179475682   -0.43780628690272
C        -1.03644564549103   -4.47023493848147    0.79706472926080
C        -1.14723675405220   -3.35664700421908    1.61082907847396
C        -0.64144482768142   -2.12814460798163    1.20082275983377
O        -0.69587822573474   -0.99531692652281    1.95519523416623
C        -1.13186737368209   -1.09697832552468    3.29147160248130
N         1.30014148800920    0.00862067964741    0.45794385591139
C         2.11240732319782   -0.53281557762252    1.40303860590193
C         2.56193678727798   -1.93062672528096    1.12346430696274
C         3.24371493060360   -2.24452073178203   -0.04630566590948
C         3.65872763667521   -3.54302765543518   -0.28260748213664
C         3.39132642555677   -4.54341549344110    0.63591628740004
C         2.73581007921782   -4.20714741537307    1.80612142078015
F         2.47896183104037   -5.17188785595134    2.71233060635902
C         2.33400907515615   -2.91390595531097    2.07629937272557
O         2.46476353710221    0.09213165956845    2.38236240003618
C         0.79345454263270    1.34218187034047    0.65519885691585
C         1.75062327260973    2.41838467610616    0.10459424197739
O         2.98459520303476    1.95435443793756   -0.06886967217713
O         1.42632956714760    3.55108445049654   -0.11611242926245
N        -0.47630201633095    1.35474093389981   -0.01197997546178
C        -1.44721567048374    2.29897624277919    0.06827570607020
C        -1.29888091460480    3.28843414344648    1.18078652005280
C        -1.37632406633046    2.84768219749749    2.49587864417997
C        -1.31304267395089    3.77948681255884    3.51369359637289
F        -1.39134854857498    3.34913572452704    4.79242064396926
C        -1.17260098048830    5.13200663629246    3.26342340208095
C        -1.11176533086407    5.55697463653960    1.94705184456653
C        -1.18553261419036    4.64481011847387    0.90855824831044
O        -2.40165149934594    2.30506869761326   -0.68062211302095
H        -4.15983707656761    1.11676559707919   -3.65291479576979
H        -3.80370024770293   -0.45305118778163   -4.43829576504204
H        -4.61264098434254   -0.40676708303596   -2.85294431008844
H        -2.32840364260711    1.13501583161818   -5.20004994372547
H        -0.26913973510280    2.19040364531026   -5.96207472921792
H         1.70168663319206    2.31040381138733   -4.47496950925033
H         1.55819635095158    1.39555856231617   -2.19707865663118
H        -1.56632615857005   -0.19892685758542   -0.84891767434934
H         1.18220438167503   -0.92491201373022   -1.41891611763518
H         0.55984804671788   -3.07098419081498   -1.81506830876882
H        -0.33694514142030   -5.24157320042307   -1.07363928835340
H        -1.43230423955041   -5.41452464742703    1.13827353144141
H        -1.63572815895209   -3.45515149264761    2.56675763811596
H        -0.59174378254452   -1.87891405611485    3.83250197255665
H        -2.20801017143753   -1.28828279375961    3.34987126475938
H        -0.90844613081151   -0.13724470126531    3.75518162800193
H         3.46208586397741   -1.46662816454357   -0.76187572834149
H         4.19065190149653   -3.78208456239014   -1.19088175681372
H         3.69097660713936   -5.56472074269571    0.46330577780144
H         1.84571936640410   -2.67724561197383    3.00788178978146
H         0.71129616700554    1.54891053422178    1.73533286177887
H         3.58727440714420    2.66825327941690   -0.33614446076810
H        -1.50765562432229    1.80185248313308    2.72527690443447
H        -1.12085258743442    5.82695639148722    4.08654480282054
H        -1.01039505693482    6.60957937817582    1.73210220194159
H        -1.14150884449071    4.97364593620649   -0.11692128546351

          :  Hamiltonian                  GFN2-xTB          :
         :: total energy            -121.540747100135 Eh    ::
         :: gradient norm              0.000296862890 Eh/a0 ::
         :: HOMO-LUMO gap              3.241760717484 eV    ::
         :: SCC energy              -123.185100628547 Eh    ::
         :: -> dispersion             -0.098948834264 Eh    ::
         :: repulsion energy           1.640669671836 Eh    ::

    * Orbital Energies and Occupations

         #    Occupation            Energy/Eh            Energy/eV
      -------------------------------------------------------------
         1        2.0000           -0.8229472             -22.3935
       ...           ...                  ...                  ...
        95        2.0000           -0.4325996             -11.7716
        96        2.0000           -0.4325080             -11.7691
        97        2.0000           -0.4236472             -11.5280
        98        2.0000           -0.4202403             -11.4353
        99        2.0000           -0.4166370             -11.3373
       100        2.0000           -0.4115498             -11.1988
       101        2.0000           -0.4090432             -11.1306
       102        2.0000           -0.4062667             -11.0551
       103        2.0000           -0.4028603             -10.9624
       104        2.0000           -0.3956162             -10.7653
       105        2.0000           -0.3926518             -10.6846
       106        2.0000           -0.3898900             -10.6094
       107        2.0000           -0.3819146             -10.3924 (HOMO)
       108                         -0.2627821              -7.1507 (LUMO)
       109                         -0.2583215              -7.0293
       110                         -0.2482755              -6.7559
       111                         -0.2464642              -6.7066
       112                         -0.2416231              -6.5749
       113                         -0.2341930              -6.3727
       114                         -0.2326520              -6.3308
       115                         -0.2289936              -6.2312
       116                         -0.2200773              -5.9886
       117                         -0.2094303              -5.6989
       118                         -0.2036689              -5.5421
       ...                                ...                  ...
       194                          0.6606888              17.9783
      -------------------------------------------------------------
                  HL-Gap            0.1191325 Eh            3.2418 eV

     #   Z          covCN         q      C6AA      Î±(0)
     1   6 C        2.869     0.150    24.745     8.154
     2   8 O        1.705    -0.260    18.300     5.776
     3   6 C        3.645     0.036    20.303     6.476
     4   6 C        2.918    -0.064    29.590     8.920
     5   6 C        2.921    -0.030    28.751     8.793
     6   6 C        2.917    -0.042    29.039     8.837
     7   6 C        2.924    -0.035    28.883     8.813
     8   6 C        2.971    -0.020    28.500     8.757
     9   6 C        3.826     0.043    19.840     6.338
    10   6 C        3.817     0.038    19.929     6.354
    11   6 C        2.970    -0.027    28.661     8.781
    12   6 C        2.926    -0.038    28.942     8.823
    13   6 C        2.917    -0.040    29.005     8.831
    14   6 C        2.921    -0.029    28.731     8.790
    15   6 C        2.918    -0.065    29.615     8.924
    16   6 C        2.867     0.141    24.926     8.184
    17   8 O        1.705    -0.275    18.558     5.816
    18   6 C        3.644     0.042    20.211     6.462
    19   7 N        2.761    -0.099    23.177     7.150
    20   6 C        2.768     0.277    22.309     7.735
    21   6 C        2.980    -0.007    28.197     8.710
    22   6 C        2.921    -0.035    28.872     8.811
    23   6 C        2.924    -0.027    28.668     8.780
    24   6 C        2.917    -0.047    29.176     8.858
    25   6 C        2.787     0.172    24.283     8.072
    26   9 F        0.787    -0.221    11.451     3.997
    27   6 C        2.922    -0.040    28.992     8.830
    28   8 O        0.859    -0.424    22.167     6.312
    29   6 C        3.767     0.092    19.096     6.228
    30   6 C        2.687     0.354    20.989     7.498
    31   8 O        1.659    -0.356    20.008     6.038
    32   8 O        0.856    -0.391    21.512     6.218
    33   7 N        2.761    -0.103    23.249     7.161
    34   6 C        2.763     0.275    22.347     7.742
    35   6 C        2.980    -0.008    28.222     8.714
    36   6 C        2.921    -0.053    29.329     8.881
    37   6 C        2.787     0.171    24.311     8.076
    38   9 F        0.787    -0.227    11.520     4.009
    39   6 C        2.917    -0.047    29.176     8.858
    40   6 C        2.925    -0.024    28.602     8.770
    41   6 C        2.921    -0.019    28.480     8.752
    42   8 O        0.859    -0.417    22.020     6.291
    43   1 H        0.924     0.053     2.287     2.365
    44   1 H        0.924     0.039     2.463     2.454
    45   1 H        0.925     0.065     2.140     2.288
    46   1 H        0.926     0.043     2.413     2.429
    47   1 H        0.926     0.040     2.453     2.449
    48   1 H        0.926     0.036     2.498     2.472
    49   1 H        0.926     0.029     2.606     2.524
    50   1 H        0.924     0.088     1.903     2.157
    51   1 H        0.924     0.055     2.257     2.349
    52   1 H        0.926     0.036     2.497     2.471
    53   1 H        0.926     0.042     2.422     2.434
    54   1 H        0.926     0.046     2.376     2.411
    55   1 H        0.926     0.046     2.365     2.405
    56   1 H        0.924     0.043     2.405     2.425
    57   1 H        0.924     0.044     2.402     2.424
    58   1 H        0.925     0.066     2.127     2.281
    59   1 H        0.926     0.047     2.353     2.399
    60   1 H        0.926     0.052     2.294     2.368
    61   1 H        0.926     0.064     2.149     2.293
    62   1 H        0.926     0.066     2.127     2.281
    63   1 H        0.923     0.099     1.796     2.096
    64   1 H        0.804     0.343     0.605     1.222
    65   1 H        0.926     0.058     2.220     2.330
    66   1 H        0.926     0.062     2.175     2.306
    67   1 H        0.926     0.054     2.275     2.359
    68   1 H        0.926     0.064     2.155     2.295

Wiberg/Mayer (AO) data.
largest (>0.10) Wiberg bond orders for each atom

     #   Z sym  total        # sym  WBO       # sym  WBO       # sym  WBO
 ---------------------------------------------------------------------------
     1   6 C    3.938 --     4 C    1.372     8 C    1.321     2 O    1.077
     2   8 O    2.250 --     1 C    1.077     3 C    0.979
     3   6 C    3.942 --    45 H    0.979     2 O    0.979    43 H    0.977
                            44 H    0.976
     4   6 C    3.987 --     5 C    1.442     1 C    1.372    46 H    0.965
                             7 C    0.102
     5   6 C    3.990 --     4 C    1.442     6 C    1.439    47 H    0.971
                             8 C    0.105
     6   6 C    3.991 --     5 C    1.439     7 C    1.427    48 H    0.971
     7   6 C    3.991 --     8 C    1.439     6 C    1.427    49 H    0.964
                             4 C    0.102
     8   6 C    3.982 --     7 C    1.439     1 C    1.321     9 C    0.988
                             5 C    0.105
     9   6 C    3.961 --     8 C    0.988    10 C    0.955    33 N    0.954
                            50 H    0.950
    10   6 C    3.967 --    11 C    0.992    19 N    0.963     9 C    0.955
                            51 H    0.952
    11   6 C    3.982 --    12 C    1.433    16 C    1.322    10 C    0.992
                            14 C    0.106
    12   6 C    3.989 --    11 C    1.433    13 C    1.428    52 H    0.968
                            15 C    0.102
    13   6 C    3.991 --    14 C    1.441    12 C    1.428    53 H    0.970
    14   6 C    3.990 --    13 C    1.441    15 C    1.437    54 H    0.970
                            11 C    0.106
    15   6 C    3.988 --    14 C    1.437    16 C    1.379    55 H    0.965
                            12 C    0.102
    16   6 C    3.936 --    15 C    1.379    11 C    1.322    17 O    1.065
    17   8 O    2.232 --    16 C    1.065    18 C    0.979
    18   6 C    3.941 --    17 O    0.979    57 H    0.977    56 H    0.976
                            58 H    0.975
    19   7 N    3.469 --    20 C    1.209    29 C    0.990    10 C    0.963
                            28 O    0.189
    20   6 C    3.949 --    28 O    1.686    19 N    1.209    21 C    0.968
    21   6 C    3.988 --    27 C    1.406    22 C    1.400    20 C    0.968
                            24 C    0.108
    22   6 C    3.990 --    23 C    1.446    21 C    1.400    59 H    0.968
    23   6 C    3.991 --    22 C    1.446    24 C    1.437    60 H    0.969
                            27 C    0.109
    24   6 C    3.988 --    23 C    1.437    25 C    1.395    61 H    0.967
                            21 C    0.108
    25   6 C    3.890 --    27 C    1.402    24 C    1.395    26 F    0.962
    26   9 F    1.094 --    25 C    0.962
    27   6 C    3.988 --    21 C    1.406    25 C    1.402    62 H    0.964
                            23 C    0.109
    28   8 O    2.017 --    20 C    1.686    19 N    0.189
    29   6 C    3.969 --    33 N    0.993    19 N    0.990    63 H    0.914
                            30 C    0.914
    30   6 C    3.918 --    32 O    1.775    31 O    1.157    29 C    0.914
    31   8 O    2.224 --    30 C    1.157    64 H    0.856    32 O    0.182
    32   8 O    2.060 --    30 C    1.775    31 O    0.182
    33   7 N    3.473 --    34 C    1.210    29 C    0.993     9 C    0.954
                            42 O    0.191
    34   6 C    3.948 --    42 O    1.691    33 N    1.210    35 C    0.962
    35   6 C    3.987 --    41 C    1.409    36 C    1.402    34 C    0.962
                            39 C    0.109
    36   6 C    3.989 --    37 C    1.403    35 C    1.402    65 H    0.961
                            40 C    0.110
    37   6 C    3.888 --    36 C    1.403    39 C    1.395    38 F    0.956
    38   9 F    1.086 --    37 C    0.956
    39   6 C    3.989 --    40 C    1.440    37 C    1.395    66 H    0.967
                            35 C    0.109
    40   6 C    3.990 --    41 C    1.441    39 C    1.440    67 H    0.969
                            36 C    0.110
    41   6 C    3.988 --    40 C    1.441    35 C    1.409    68 H    0.967
    42   8 O    2.019 --    34 C    1.691    33 N    0.191
    43   1 H    0.997 --     3 C    0.977
    44   1 H    0.998 --     3 C    0.976
    45   1 H    0.995 --     3 C    0.979
    46   1 H    0.998 --     4 C    0.965
    47   1 H    0.998 --     5 C    0.971
    48   1 H    0.998 --     6 C    0.971
    49   1 H    0.999 --     7 C    0.964
    50   1 H    0.992 --     9 C    0.950
    51   1 H    0.996 --    10 C    0.952
    52   1 H    0.998 --    12 C    0.968
    53   1 H    0.998 --    13 C    0.970
    54   1 H    0.997 --    14 C    0.970
    55   1 H    0.997 --    15 C    0.965
    56   1 H    0.998 --    18 C    0.976
    57   1 H    0.998 --    18 C    0.977
    58   1 H    0.995 --    18 C    0.975
    59   1 H    0.998 --    22 C    0.968
    60   1 H    0.997 --    23 C    0.969
    61   1 H    0.995 --    24 C    0.967
    62   1 H    0.996 --    27 C    0.964
    63   1 H    0.989 --    29 C    0.914
    64   1 H    0.882 --    31 O    0.856
    65   1 H    0.997 --    36 C    0.961
    66   1 H    0.996 --    39 C    0.967
    67   1 H    0.997 --    40 C    0.969
    68   1 H    0.996 --    41 C    0.967
 ---------------------------------------------------------------------------

molecular dipole:
                 x           y           z       tot (Debye)
 q only:        0.182      -0.788      -1.946
   full:        0.302      -0.774      -1.932       5.346

           -------------------------------------------------
          | TOTAL ENERGY             -121.540747100135 Eh   |
          | GRADIENT NORM               0.000296862890 Eh/Î± |
          | HOMO-LUMO GAP               3.241760717484 eV   |
           -------------------------------------------------

 * finished run on 2022/03/17 at 01:02:13.732
