   * xtb version 6.3.3 (4ae9cef) compiled by 'conda@95abc7406d43' on 2020-10-14
          program call               : xtb acid_407.xyz --opt --chrg 0 --uhf 0 --gfn 2
          number of atoms            :                    60
          number of electrons        :                   190
          charge                     :                     0
          spin                       :                   0.0

   ID    Z sym.   atoms
    1    6 C      1-14, 16-20, 22, 23, 25, 26, 30-34, 36, 37
    2    7 N      15, 29
    3    9 F      21, 35
    4    8 O      24, 27, 28, 38
    5    1 H      39-60

          :  Hamiltonian                  GFN2-xTB          :
 * total energy  :  -107.0484853 Eh     change       -0.8440537E-09 Eh
 * total energy  :  -107.0625125 Eh     change       -0.1402719E-01 Eh
 * total energy  :  -107.0662067 Eh     change       -0.3694191E-02 Eh
 * total energy  :  -107.0670918 Eh     change       -0.8850658E-03 Eh
 * total energy  :  -107.0675064 Eh     change       -0.4145983E-03 Eh
 * total energy  :  -107.0677067 Eh     change       -0.2003472E-03 Eh
 * total energy  :  -107.0678943 Eh     change       -0.1875828E-03 Eh
 * total energy  :  -107.0680704 Eh     change       -0.1760465E-03 Eh
 * total energy  :  -107.0682216 Eh     change       -0.1512501E-03 Eh
 * total energy  :  -107.0683123 Eh     change       -0.9073893E-04 Eh
 * total energy  :  -107.0692224 Eh     change       -0.2240837E-04 Eh
 * total energy  :  -107.0692421 Eh     change       -0.1974172E-04 Eh
 * total energy  :  -107.0692599 Eh     change       -0.1776714E-04 Eh
 * total energy  :  -107.0692779 Eh     change       -0.1799624E-04 Eh
 * total energy  :  -107.0692957 Eh     change       -0.1782684E-04 Eh
 * total energy  :  -107.0693097 Eh     change       -0.1400848E-04 Eh
 * total energy  :  -107.0693093 Eh     change        0.4453081E-06 Eh
 * total energy  :  -107.0693179 Eh     change       -0.8604326E-05 Eh
 * total energy  :  -107.0693225 Eh     change       -0.4631563E-05 Eh
   *** GEOMETRY OPTIMIZATION CONVERGED AFTER 41 ITERATIONS ***

 final structure:
================
60
 xtb: 6.3.3 (4ae9cef)
C         1.67728023781241    3.60284071281195   -0.69034767939384
C         2.67201169467882    4.15276554192004   -1.47700463316439
C         2.83085197112460    3.73444846865086   -2.78808410892455
C         1.99030744744919    2.76444772561275   -3.30409296108086
C         0.99433323377137    2.20897261730339   -2.51710136477527
C         0.82734232219495    2.62741714571437   -1.20334952530765
C        -0.18273168766895    2.01290722383215   -0.25999208724553
C        -1.34047599982176    1.24306774081185   -0.91697335562662
C        -2.62788062485039    1.36739114292091   -0.13827366969567
C        -3.72228721026940    2.01636844717211   -0.69091457812161
C        -4.90253790410781    2.12915493126209    0.02275055601359
C        -5.00015752316153    1.59315866300767    1.29495300690707
C        -3.91209382720044    0.94319059068106    1.85228810927477
C        -2.73335610760624    0.83056458472641    1.13861169815713
N        -0.87195925862622   -0.14336831651870   -0.90386638146055
C        -1.47897628524541   -1.09384870685324   -1.66543843579462
C        -0.99186833191575   -2.48901645904194   -1.43678959093237
C        -0.48397033968527   -3.22994672713257   -2.49582411597265
C        -0.06016409622373   -4.53083633451564   -2.29544675860296
C        -0.17370269191239   -5.08079471807214   -1.03135457824582
F         0.24133476530887   -6.34695454928299   -0.82711385943728
C        -0.70656428482167   -4.37395696897326    0.03202548826170
C        -1.11573807002752   -3.07005090763594   -0.17881868166801
O        -2.38162195795960   -0.82040940533054   -2.42525758199974
C         0.37681228714936   -0.26535721792606   -0.19274901953804
C         1.55964699328695   -0.45352549757661   -1.17221613699302
O         2.70575709140576   -0.06559566986557   -0.62392700115089
O         1.46066910783501   -0.93061132761925   -2.26543494865220
N         0.47089713274168    0.96898314072082    0.52920979664986
C         1.00639092378694    1.18397052657410    1.75611552691617
C         1.55100953064135   -0.04574669989213    2.41972239902120
C         0.69372643184477   -0.96370737730339    3.01691726112980
C         1.19970109737522   -2.08520883478726    3.64876189014297
C         2.57058382177261   -2.26978854493521    3.67429396172091
F         3.06921435510183   -3.36519074201650    4.27803829219233
C         3.44322788887567   -1.36218447887182    3.10118954007992
C         2.92462915583393   -0.24243401849181    2.47633561639000
O         1.03261328398137    2.28144006051358    2.26704540853096
H         1.55800878701955    3.91789619883582    0.33540171908878
H         3.32395887577641    4.90923040783092   -1.06652521987064
H         3.60655196517566    4.16312250261443   -3.40499679482409
H         2.10776505081429    2.43095567456597   -4.32435723898148
H         0.36009429873986    1.44823663211653   -2.94586110199829
H        -0.54633382917756    2.77663709448982    0.43434829630466
H        -1.52082145299188    1.56503315715466   -1.94634060916455
H        -3.65173754918686    2.42709533596249   -1.68689117262340
H        -5.74983852658988    2.63236445212453   -0.41828641717693
H        -5.92200536149162    1.67799833573403    1.85059497384320
H        -3.98260093198308    0.52274149898607    2.84475247957861
H        -1.88644892883511    0.32367247140935    1.57761345475616
H        -0.41035508701452   -2.77513329848291   -3.47027915501200
H         0.34885839572349   -5.11953923043587   -3.10092893564311
H        -0.79884434063188   -4.84541611606829    0.99760533229498
H        -1.56071040296862   -2.51105963230607    0.63212721712983
H         0.39945749960343   -1.13282512562153    0.48169006751025
H         3.44568073413245   -0.18994239836876   -1.24154098723492
H        -0.37340133802754   -0.79549188917913    3.00565466972758
H         0.55139295125642   -2.80641130794677    4.12020364904340
H         4.50616446196129   -1.53567858854048    3.15322435664273
H         3.58290815582234    0.48395606352590    2.02694291900894

          :  Hamiltonian                  GFN2-xTB          :
         :: total energy            -107.069322491996 Eh    ::
         :: gradient norm              0.000543619514 Eh/a0 ::
         :: HOMO-LUMO gap              3.494138631508 eV    ::
         :: SCC energy              -108.618288596965 Eh    ::
         :: -> dispersion             -0.084465456855 Eh    ::
         :: repulsion energy           1.545986823662 Eh    ::

    * Orbital Energies and Occupations

         #    Occupation            Energy/Eh            Energy/eV
      -------------------------------------------------------------
         1        2.0000           -0.8306248             -22.6025
       ...           ...                  ...                  ...
        83        2.0000           -0.4354567             -11.8494
        84        2.0000           -0.4331112             -11.7856
        85        2.0000           -0.4329002             -11.7798
        86        2.0000           -0.4303487             -11.7104
        87        2.0000           -0.4225961             -11.4994
        88        2.0000           -0.4222647             -11.4904
        89        2.0000           -0.4193362             -11.4107
        90        2.0000           -0.4187189             -11.3939
        91        2.0000           -0.4156045             -11.3092
        92        2.0000           -0.4139238             -11.2634
        93        2.0000           -0.4085159             -11.1163
        94        2.0000           -0.4044198             -11.0048
        95        2.0000           -0.4041640             -10.9979 (HOMO)
        96                         -0.2757568              -7.5037 (LUMO)
        97                         -0.2610876              -7.1046
        98                         -0.2593067              -7.0561
        99                         -0.2585627              -7.0358
       100                         -0.2515056              -6.8438
       101                         -0.2442751              -6.6471
       102                         -0.2367630              -6.4426
       103                         -0.2360434              -6.4231
       104                         -0.2332791              -6.3478
       105                         -0.2282473              -6.2109
       106                         -0.2136382              -5.8134
       ...                                ...                  ...
       174                          0.6564707              17.8635
      -------------------------------------------------------------
                  HL-Gap            0.1284072 Eh            3.4941 eV

     #   Z          covCN         q      C6AA      α(0)
     1   6 C        2.926    -0.034    28.845     8.808
     2   6 C        2.919    -0.027    28.687     8.783
     3   6 C        2.919    -0.030    28.752     8.793
     4   6 C        2.920    -0.029    28.735     8.790
     5   6 C        2.921    -0.039    28.962     8.825
     6   6 C        2.972    -0.003    28.087     8.693
     7   6 C        3.839     0.034    19.967     6.357
     8   6 C        3.828     0.037    19.928     6.352
     9   6 C        2.973     0.005    27.903     8.665
    10   6 C        2.924    -0.029    28.721     8.789
    11   6 C        2.920    -0.025    28.619     8.773
    12   6 C        2.920    -0.028    28.691     8.784
    13   6 C        2.919    -0.027    28.686     8.783
    14   6 C        2.925    -0.031    28.776     8.797
    15   7 N        2.770    -0.116    23.535     7.205
    16   6 C        2.761     0.276    22.326     7.738
    17   6 C        2.975    -0.019    28.471     8.753
    18   6 C        2.927    -0.015    28.375     8.736
    19   6 C        2.917    -0.045    29.121     8.849
    20   6 C        2.788     0.172    24.283     8.072
    21   9 F        0.787    -0.220    11.444     3.996
    22   6 C        2.916    -0.050    29.231     8.866
    23   6 C        2.927    -0.035    28.860     8.810
    24   8 O        0.859    -0.410    21.879     6.271
    25   6 C        3.769     0.088    19.161     6.238
    26   6 C        2.687     0.349    21.070     7.512
    27   8 O        1.659    -0.363    20.143     6.059
    28   8 O        0.856    -0.380    21.294     6.187
    29   7 N        2.776    -0.104    23.284     7.167
    30   6 C        2.758     0.275    22.356     7.743
    31   6 C        2.975    -0.020    28.491     8.756
    32   6 C        2.927    -0.030    28.748     8.793
    33   6 C        2.916    -0.048    29.189     8.859
    34   6 C        2.787     0.173    24.263     8.068
    35   9 F        0.787    -0.218    11.418     3.991
    36   6 C        2.917    -0.046    29.138     8.852
    37   6 C        2.927    -0.022    28.552     8.763
    38   8 O        0.859    -0.412    21.915     6.277
    39   1 H        0.926     0.056     2.247     2.344
    40   1 H        0.926     0.040     2.451     2.448
    41   1 H        0.926     0.037     2.491     2.468
    42   1 H        0.926     0.039     2.462     2.454
    43   1 H        0.926     0.040     2.451     2.448
    44   1 H        0.924     0.080     1.980     2.200
    45   1 H        0.924     0.074     2.043     2.236
    46   1 H        0.926     0.042     2.427     2.436
    47   1 H        0.926     0.041     2.435     2.440
    48   1 H        0.926     0.039     2.468     2.457
    49   1 H        0.926     0.035     2.510     2.478
    50   1 H        0.926     0.021     2.716     2.577
    51   1 H        0.926     0.071     2.071     2.250
    52   1 H        0.926     0.068     2.103     2.268
    53   1 H        0.926     0.063     2.166     2.302
    54   1 H        0.926     0.041     2.439     2.442
    55   1 H        0.923     0.071     2.077     2.254
    56   1 H        0.804     0.347     0.596     1.213
    57   1 H        0.926     0.045     2.378     2.411
    58   1 H        0.926     0.066     2.125     2.280
    59   1 H        0.926     0.067     2.115     2.274
    60   1 H        0.926     0.059     2.206     2.323

Wiberg/Mayer (AO) data.
largest (>0.10) Wiberg bond orders for each atom

     #   Z sym  total        # sym  WBO       # sym  WBO       # sym  WBO
 ---------------------------------------------------------------------------
     1   6 C    3.989 --     2 C    1.451     6 C    1.406    39 H    0.966
                             4 C    0.113
     2   6 C    3.992 --     1 C    1.451     3 C    1.433    40 H    0.970
                             5 C    0.110
     3   6 C    3.991 --     4 C    1.445     2 C    1.433    41 H    0.971
                             6 C    0.109
     4   6 C    3.992 --     3 C    1.445     5 C    1.436    42 H    0.971
                             1 C    0.113
     5   6 C    3.991 --     4 C    1.436     6 C    1.420    43 H    0.965
                             2 C    0.110
     6   6 C    3.985 --     5 C    1.420     1 C    1.406     7 C    0.983
                             3 C    0.109
     7   6 C    3.957 --     6 C    0.983     8 C    0.967    44 H    0.953
                            29 N    0.945
     8   6 C    3.960 --     9 C    0.986     7 C    0.967    15 N    0.952
                            45 H    0.950
     9   6 C    3.986 --    10 C    1.416    14 C    1.411     8 C    0.986
                            12 C    0.110
    10   6 C    3.989 --    11 C    1.442     9 C    1.416    46 H    0.968
                            13 C    0.111
    11   6 C    3.992 --    10 C    1.442    12 C    1.442    47 H    0.970
                            14 C    0.112
    12   6 C    3.990 --    11 C    1.442    13 C    1.436    48 H    0.971
                             9 C    0.110
    13   6 C    3.992 --    14 C    1.448    12 C    1.436    49 H    0.971
                            10 C    0.111
    14   6 C    3.992 --    13 C    1.448     9 C    1.411    50 H    0.966
                            11 C    0.112
    15   7 N    3.452 --    16 C    1.197    25 C    0.990     8 C    0.952
                            24 O    0.189
    16   6 C    3.948 --    24 O    1.702    15 N    1.197    17 C    0.965
    17   6 C    3.988 --    18 C    1.406    23 C    1.400    16 C    0.965
    18   6 C    3.987 --    19 C    1.444    17 C    1.406    51 H    0.966
                            22 C    0.109
    19   6 C    3.989 --    18 C    1.444    20 C    1.397    52 H    0.965
                            23 C    0.109
    20   6 C    3.889 --    19 C    1.397    22 C    1.392    21 F    0.963
    21   9 F    1.095 --    20 C    0.963
    22   6 C    3.989 --    23 C    1.446    20 C    1.392    53 H    0.966
                            18 C    0.109
    23   6 C    3.991 --    22 C    1.446    17 C    1.400    54 H    0.968
                            19 C    0.109
    24   8 O    2.027 --    16 C    1.702    15 N    0.189
    25   6 C    3.977 --    29 N    0.999    15 N    0.990    55 H    0.923
                            26 C    0.905
    26   6 C    3.919 --    28 O    1.784    27 O    1.156    25 C    0.905
    27   8 O    2.218 --    26 C    1.156    56 H    0.854    28 O    0.182
    28   8 O    2.069 --    26 C    1.784    27 O    0.182
    29   7 N    3.479 --    30 C    1.212    25 C    0.999     7 C    0.945
                            38 O    0.193
    30   6 C    3.948 --    38 O    1.698    29 N    1.212    31 C    0.954
    31   6 C    3.987 --    37 C    1.407    32 C    1.403    30 C    0.954
    32   6 C    3.990 --    33 C    1.444    31 C    1.403    57 H    0.966
                            36 C    0.110
    33   6 C    3.988 --    32 C    1.444    34 C    1.393    58 H    0.966
                            37 C    0.110
    34   6 C    3.890 --    36 C    1.396    33 C    1.393    35 F    0.966
    35   9 F    1.099 --    34 C    0.966
    36   6 C    3.989 --    37 C    1.444    34 C    1.396    59 H    0.965
                            32 C    0.110
    37   6 C    3.989 --    36 C    1.444    31 C    1.407    60 H    0.968
                            33 C    0.110
    38   8 O    2.026 --    30 C    1.698    29 N    0.193
    39   1 H    0.997 --     1 C    0.966
    40   1 H    0.998 --     2 C    0.970
    41   1 H    0.998 --     3 C    0.971
    42   1 H    0.998 --     4 C    0.971
    43   1 H    0.998 --     5 C    0.965
    44   1 H    0.993 --     7 C    0.953
    45   1 H    0.994 --     8 C    0.950
    46   1 H    0.998 --    10 C    0.968
    47   1 H    0.998 --    11 C    0.970
    48   1 H    0.998 --    12 C    0.971
    49   1 H    0.998 --    13 C    0.971
    50   1 H    1.000 --    14 C    0.966
    51   1 H    0.995 --    18 C    0.966
    52   1 H    0.995 --    19 C    0.965
    53   1 H    0.995 --    22 C    0.966
    54   1 H    0.998 --    23 C    0.968
    55   1 H    0.995 --    25 C    0.923
    56   1 H    0.879 --    27 O    0.854
    57   1 H    0.998 --    32 C    0.966
    58   1 H    0.995 --    33 C    0.966
    59   1 H    0.995 --    36 C    0.965
    60   1 H    0.996 --    37 C    0.968
 ---------------------------------------------------------------------------

molecular dipole:
                 x           y           z       tot (Debye)
 q only:        0.542       1.062      -0.157
   full:        0.860       0.803      -0.098       3.001

           -------------------------------------------------
          | TOTAL ENERGY             -107.069322491996 Eh   |
          | GRADIENT NORM               0.000543619514 Eh/α |
          | HOMO-LUMO GAP               3.494138631508 eV   |
           -------------------------------------------------

 * finished run on 2022/03/17 at 00:49:40.837
