   * xtb version 6.3.3 (4ae9cef) compiled by 'conda@95abc7406d43' on 2020-10-14
          program call               : xtb acid_355.xyz --opt --chrg 0 --uhf 0 --gfn 2
          number of atoms            :                    66
          number of electrons        :                   226
          charge                     :                     0
          spin                       :                   0.0

   ID    Z sym.   atoms
    1    6 C      1, 3-16, 18, 20-24, 30, 31, 35-39
    2    8 O      2, 17, 26-29, 32, 33, 41-44
    3    7 N      19, 25, 34, 40
    4    1 H      45-66

          :  Hamiltonian                  GFN2-xTB          :
 * total energy  :  -131.4393007 Eh     change       -0.2003191E-08 Eh
 * total energy  :  -131.4591213 Eh     change       -0.1982058E-01 Eh
 * total energy  :  -131.4649641 Eh     change       -0.5842784E-02 Eh
 * total energy  :  -131.4670018 Eh     change       -0.2037723E-02 Eh
 * total energy  :  -131.4685931 Eh     change       -0.1591297E-02 Eh
 * total energy  :  -131.4697879 Eh     change       -0.1194845E-02 Eh
 * total energy  :  -131.4712199 Eh     change       -0.1431954E-02 Eh
 * total energy  :  -131.4726166 Eh     change       -0.1396749E-02 Eh
 * total energy  :  -131.4740096 Eh     change       -0.1393023E-02 Eh
 * total energy  :  -131.4751961 Eh     change       -0.1186483E-02 Eh
 * total energy  :  -131.4817796 Eh     change       -0.2825361E-04 Eh
 * total energy  :  -131.4817886 Eh     change       -0.8929182E-05 Eh
 * total energy  :  -131.4817602 Eh     change        0.2833361E-04 Eh
 * total energy  :  -131.4817900 Eh     change       -0.2981965E-04 Eh
 * total energy  :  -131.4817984 Eh     change       -0.8341175E-05 Eh
 * total energy  :  -131.4817797 Eh     change        0.1872709E-04 Eh
 * total energy  :  -131.4818002 Eh     change       -0.2056030E-04 Eh
 * total energy  :  -131.4818077 Eh     change       -0.7440980E-05 Eh
 * total energy  :  -131.4818126 Eh     change       -0.4899101E-05 Eh
   *** GEOMETRY OPTIMIZATION CONVERGED AFTER 135 ITERATIONS ***

 final structure:
================
66
 xtb: 6.3.3 (4ae9cef)
C        -0.62098266358985   -2.77854777219215    2.13759007924767
O        -0.94679151562606   -3.61115438294897    1.10785606224374
C        -1.42254977853562   -4.89959677907572    1.41147524626439
C        -0.76267519796677   -3.09577157181463    3.48261248760835
C        -0.41768958544498   -2.17333337382948    4.45642369951305
C         0.06126105203802   -0.92589488264073    4.10589176125334
C         0.20359257572670   -0.60142418759772    2.76758180132666
C        -0.12044321211387   -1.51806686836752    1.78280033288526
C         0.01299716823293   -1.18376791384642    0.32001096361147
C        -1.16034308937031   -0.32819781229352   -0.18942804999811
C        -1.96668726717269   -1.04125751779855   -1.24278499234683
C        -1.59882042919867   -1.03176844656049   -2.57563772578579
C        -2.34221575303117   -1.71382955069218   -3.52400987710345
C        -3.46442922085197   -2.41560210138642   -3.12761414296496
C        -3.84552244406169   -2.44268059488990   -1.79688342897338
C        -3.10168865626383   -1.76135035014496   -0.83988645530843
O        -3.38320801950291   -1.73775949551408    0.48680094712610
C        -4.54377089995099   -2.38833222148333    0.94596833134407
N        -0.53909268802064    0.88857138841934   -0.69933731199492
C        -1.32103843619977    1.97992492297969   -0.89653337692307
C        -0.60366617364155    3.19602017896505   -1.39725258669518
C         0.15205884679556    3.38846548763194   -2.53472918628633
C         0.45358397513661    4.76016018443897   -2.58118171963730
C        -0.14755747427840    5.29719467903328   -1.46763894358077
N        -0.16712540169656    6.64593975669741   -1.01211346841008
O        -0.77924735751920    6.89597512568422   -0.00337165401975
O         0.44271855044349    7.44157810693332   -1.69673720556228
O        -0.78973094456681    4.35484751593668   -0.76523364156159
O        -2.51748128673690    1.96763682613195   -0.74399639726749
C         0.90034340121082    0.85455959996840   -0.65906771361193
C         1.45668536363199    2.07275211771369    0.13661738473750
O         2.36690121566429    2.82524115089187   -0.49491846115772
O         1.09888691171357    2.31294114867766    1.24534683629523
N         1.19655364810052   -0.38015524620142    0.02815817029109
C         2.42274202695052   -0.83540170822587    0.37084966022992
C         3.55762843650031    0.09397653755761    0.03402018968170
C         4.18151856722781    0.34579278101571   -1.16752140516325
C         5.25520924611733    1.20889582635063   -0.88034293294935
C         5.20104211535184    1.41187159441758    0.47735239077415
N         6.04276894079091    2.20036569580762    1.31058986076279
O         6.92637107050518    2.80811722833873    0.74183612611798
O         5.82472237961929    2.20367706215850    2.49698068632905
O         4.18095612481080    0.73347556972272    1.02487604342123
O         2.62103589802340   -1.91063810753191    0.88008313558004
H        -1.60976030981206   -5.37583569988804    0.44999341562354
H        -0.68060545578517   -5.48269015531542    1.96513209023808
H        -2.35502472803105   -4.85939678109309    1.98342467115734
H        -1.13701082345407   -4.06103777972879    3.78456738312356
H        -0.52917567474736   -2.43941628768413    5.49691592546627
H         0.32535599944242   -0.20683032853160    4.86481261851967
H         0.57329615976595    0.37475704347318    2.49187633912618
H         0.08017082838489   -2.12247121911942   -0.24218917670680
H        -1.83115333440492   -0.05978483214381    0.63414672122434
H        -0.72228366046690   -0.47744899388245   -2.87876707453656
H        -2.04688195576172   -1.69566202103163   -4.56148718344130
H        -4.05429365680075   -2.95004858688767   -3.85688481571666
H        -4.72661901691573   -2.99694386440428   -1.51567369899794
H        -4.56637070263165   -2.21768510542608    2.02123361111170
H        -5.44631465648762   -1.96621349140695    0.49375867840715
H        -4.50538135417951   -3.46458267288933    0.74971183959321
H         0.42139487693013    2.64732188032870   -3.25997204128401
H         1.02032973917424    5.29386534147739   -3.31567639285317
H         1.32797099801195    0.83691128484607   -1.68258752983475
H         2.57151265832490    2.54783068377206   -1.39924225744022
H         3.91896564816116   -0.06114460166788   -2.12310618284569
H         5.97505640204849    1.62305758671423   -1.55548645930721

          :  Hamiltonian                  GFN2-xTB          :
         :: total energy            -131.481812558795 Eh    ::
         :: gradient norm              0.000525627417 Eh/a0 ::
         :: HOMO-LUMO gap              1.308688942536 eV    ::
         :: SCC energy              -132.985434439550 Eh    ::
         :: -> dispersion             -0.092130311644 Eh    ::
         :: repulsion energy           1.501151937949 Eh    ::

    * Orbital Energies and Occupations

         #    Occupation            Energy/Eh            Energy/eV
      -------------------------------------------------------------
         1        2.0000           -0.8096926             -22.0329
       ...           ...                  ...                  ...
       101        2.0000           -0.4584981             -12.4764
       102        2.0000           -0.4580995             -12.4655
       103        2.0000           -0.4511722             -12.2770
       104        2.0000           -0.4484118             -12.2019
       105        2.0000           -0.4469512             -12.1622
       106        2.0000           -0.4408435             -11.9960
       107        2.0000           -0.4359216             -11.8620
       108        2.0000           -0.4332135             -11.7883
       109        2.0000           -0.4266309             -11.6092
       110        2.0000           -0.4228051             -11.5051
       111        2.0000           -0.4114030             -11.1948
       112        2.0000           -0.3985363             -10.8447
       113        2.0000           -0.3887153             -10.5775 (HOMO)
       114                         -0.3406218              -9.2688 (LUMO)
       115                         -0.3397125              -9.2440
       116                         -0.2996359              -8.1535
       117                         -0.2808938              -7.6435
       118                         -0.2710184              -7.3748
       119                         -0.2499690              -6.8020
       120                         -0.2483324              -6.7575
       121                         -0.2358898              -6.4189
       122                         -0.2342058              -6.3731
       123                         -0.2322247              -6.3192
       124                         -0.2223902              -6.0515
       ...                                ...                  ...
       198                          0.6594071              17.9434
      -------------------------------------------------------------
                  HL-Gap            0.0480934 Eh            1.3087 eV

     #   Z          covCN         q      C6AA      Î±(0)
     1   6 C        2.868     0.145    24.847     8.171
     2   8 O        1.705    -0.273    18.533     5.812
     3   6 C        3.644     0.038    20.266     6.471
     4   6 C        2.918    -0.064    29.587     8.920
     5   6 C        2.921    -0.029    28.722     8.789
     6   6 C        2.918    -0.036    28.897     8.815
     7   6 C        2.922    -0.033    28.833     8.806
     8   6 C        2.974    -0.014    28.352     8.734
     9   6 C        3.821     0.043    19.836     6.338
    10   6 C        3.825     0.041    19.869     6.343
    11   6 C        2.973    -0.015    28.392     8.740
    12   6 C        2.923    -0.034    28.851     8.808
    13   6 C        2.917    -0.041    29.021     8.834
    14   6 C        2.921    -0.029    28.736     8.791
    15   6 C        2.918    -0.063    29.575     8.918
    16   6 C        2.869     0.148    24.782     8.160
    17   8 O        1.705    -0.262    18.335     5.781
    18   6 C        3.644     0.036    20.308     6.477
    19   7 N        2.763    -0.101    23.214     7.156
    20   6 C        2.760     0.270    22.445     7.758
    21   6 C        3.136     0.095    25.692     8.296
    22   6 C        3.032    -0.070    29.702     8.939
    23   6 C        3.008    -0.045    29.107     8.850
    24   6 C        3.100     0.117    25.310     8.244
    25   7 N        2.755     0.547    13.513     5.460
    26   8 O        0.931    -0.345    20.575     6.083
    27   8 O        0.934    -0.379    21.225     6.179
    28   8 O        1.729    -0.113    16.023     5.405
    29   8 O        0.859    -0.367    21.023     6.147
    30   6 C        3.741     0.074    19.412     6.286
    31   6 C        2.685     0.343    21.174     7.530
    32   8 O        1.659    -0.363    20.147     6.059
    33   8 O        0.856    -0.312    19.991     5.995
    34   7 N        2.763    -0.098    23.153     7.146
    35   6 C        2.757     0.270    22.446     7.758
    36   6 C        3.134     0.094    25.718     8.301
    37   6 C        3.029    -0.071    29.737     8.945
    38   6 C        3.009    -0.047    29.144     8.856
    39   6 C        3.095     0.116    25.347     8.251
    40   7 N        2.755     0.547    13.513     5.460
    41   8 O        0.934    -0.379    21.233     6.180
    42   8 O        0.931    -0.346    20.600     6.087
    43   8 O        1.729    -0.123    16.166     5.429
    44   8 O        0.859    -0.369    21.061     6.153
    45   1 H        0.925     0.060     2.200     2.319
    46   1 H        0.924     0.047     2.363     2.404
    47   1 H        0.924     0.041     2.435     2.440
    48   1 H        0.926     0.042     2.424     2.435
    49   1 H        0.926     0.043     2.408     2.427
    50   1 H        0.926     0.048     2.340     2.392
    51   1 H        0.926     0.055     2.257     2.349
    52   1 H        0.924     0.086     1.917     2.165
    53   1 H        0.924     0.099     1.794     2.095
    54   1 H        0.926     0.023     2.682     2.561
    55   1 H        0.926     0.040     2.450     2.448
    56   1 H        0.926     0.044     2.396     2.420
    57   1 H        0.926     0.046     2.373     2.409
    58   1 H        0.925     0.067     2.124     2.279
    59   1 H        0.924     0.048     2.339     2.392
    60   1 H        0.924     0.043     2.410     2.428
    61   1 H        0.926     0.056     2.250     2.345
    62   1 H        0.927     0.093     1.851     2.127
    63   1 H        0.922     0.036     2.499     2.472
    64   1 H        0.805     0.328     0.642     1.258
    65   1 H        0.926     0.061     2.191     2.315
    66   1 H        0.927     0.092     1.855     2.130

Wiberg/Mayer (AO) data.
largest (>0.10) Wiberg bond orders for each atom

     #   Z sym  total        # sym  WBO       # sym  WBO       # sym  WBO
 ---------------------------------------------------------------------------
     1   6 C    3.934 --     4 C    1.382     8 C    1.324     2 O    1.059
     2   8 O    2.230 --     1 C    1.059     3 C    0.983
     3   6 C    3.945 --     2 O    0.983    45 H    0.980    46 H    0.976
                            47 H    0.976
     4   6 C    3.987 --     5 C    1.435     1 C    1.382    48 H    0.965
                             7 C    0.104
     5   6 C    3.990 --     6 C    1.445     4 C    1.435    49 H    0.971
                             8 C    0.106
     6   6 C    3.991 --     5 C    1.445     7 C    1.425    50 H    0.970
     7   6 C    3.989 --     8 C    1.438     6 C    1.425    51 H    0.963
                             4 C    0.104
     8   6 C    3.979 --     7 C    1.438     1 C    1.324     9 C    0.987
                             5 C    0.106
     9   6 C    3.947 --     8 C    0.987    10 C    0.954    52 H    0.946
                            34 N    0.944
    10   6 C    3.948 --    11 C    0.988     9 C    0.954    19 N    0.948
                            53 H    0.944
    11   6 C    3.981 --    12 C    1.441    16 C    1.317    10 C    0.988
                            14 C    0.105
    12   6 C    3.990 --    11 C    1.441    13 C    1.423    54 H    0.969
                            15 C    0.102
    13   6 C    3.991 --    14 C    1.442    12 C    1.423    55 H    0.971
    14   6 C    3.990 --    13 C    1.442    15 C    1.438    56 H    0.971
                            11 C    0.105
    15   6 C    3.987 --    14 C    1.438    16 C    1.376    57 H    0.965
                            12 C    0.102
    16   6 C    3.937 --    15 C    1.376    11 C    1.317    17 O    1.076
    17   8 O    2.250 --    16 C    1.076    18 C    0.980
    18   6 C    3.941 --    17 O    0.980    58 H    0.979    59 H    0.976
                            60 H    0.976
    19   7 N    3.473 --    20 C    1.210    30 C    0.992    10 C    0.948
                            29 O    0.205
    20   6 C    3.962 --    29 O    1.714    19 N    1.210    21 C    0.954
    21   6 C    3.908 --    22 C    1.495    28 O    1.167    20 C    0.954
                            24 C    0.121
    22   6 C    3.979 --    21 C    1.495    23 C    1.352    61 H    0.972
    23   6 C    3.980 --    24 C    1.482    22 C    1.352    62 H    0.967
    24   6 C    3.898 --    23 C    1.482    28 O    1.130    25 N    0.992
                            21 C    0.121
    25   7 N    3.922 --    26 O    1.459    27 O    1.424    24 C    0.992
    26   8 O    1.963 --    25 N    1.459    27 O    0.371
    27   8 O    1.921 --    25 N    1.424    26 O    0.371
    28   8 O    2.513 --    21 C    1.167    24 C    1.130
    29   8 O    2.071 --    20 C    1.714    19 N    0.205
    30   6 C    3.972 --    19 N    0.992    34 N    0.986    63 H    0.941
                            31 C    0.895
    31   6 C    3.926 --    33 O    1.831    32 O    1.128    30 C    0.895
    32   8 O    2.214 --    31 C    1.128    64 H    0.861    33 O    0.171
    33   8 O    2.130 --    31 C    1.831    32 O    0.171
    34   7 N    3.487 --    35 C    1.228    30 C    0.986     9 C    0.944
                            44 O    0.211
    35   6 C    3.962 --    44 O    1.714    34 N    1.228    36 C    0.937
    36   6 C    3.906 --    37 C    1.509    43 O    1.165    35 C    0.937
                            39 C    0.124
    37   6 C    3.978 --    36 C    1.509    38 C    1.343    65 H    0.972
    38   6 C    3.980 --    39 C    1.489    37 C    1.343    66 H    0.967
    39   6 C    3.896 --    38 C    1.489    43 O    1.123    40 N    0.992
                            36 C    0.124
    40   7 N    3.921 --    42 O    1.458    41 O    1.424    39 C    0.992
    41   8 O    1.921 --    40 N    1.424    42 O    0.370
    42   8 O    1.961 --    40 N    1.458    41 O    0.370
    43   8 O    2.504 --    36 C    1.165    39 C    1.123
    44   8 O    2.070 --    35 C    1.714    34 N    0.211
    45   1 H    0.996 --     3 C    0.980
    46   1 H    0.998 --     3 C    0.976
    47   1 H    0.998 --     3 C    0.976
    48   1 H    0.998 --     4 C    0.965
    49   1 H    0.998 --     5 C    0.971
    50   1 H    0.997 --     6 C    0.970
    51   1 H    0.996 --     7 C    0.963
    52   1 H    0.992 --     9 C    0.946
    53   1 H    0.989 --    10 C    0.944
    54   1 H    0.999 --    12 C    0.969
    55   1 H    0.998 --    13 C    0.971
    56   1 H    0.998 --    14 C    0.971
    57   1 H    0.997 --    15 C    0.965
    58   1 H    0.995 --    18 C    0.979
    59   1 H    0.998 --    18 C    0.976
    60   1 H    0.998 --    18 C    0.976
    61   1 H    0.996 --    22 C    0.972
    62   1 H    0.991 --    23 C    0.967
    63   1 H    0.998 --    30 C    0.941
    64   1 H    0.892 --    32 O    0.861
    65   1 H    0.996 --    37 C    0.972
    66   1 H    0.991 --    38 C    0.967
 ---------------------------------------------------------------------------

molecular dipole:
                 x           y           z       tot (Debye)
 q only:       -1.656      -4.029      -2.688
   full:       -1.502      -4.180      -3.204      13.921

           -------------------------------------------------
          | TOTAL ENERGY             -131.481812558795 Eh   |
          | GRADIENT NORM               0.000525627417 Eh/Î± |
          | HOMO-LUMO GAP               1.308688942536 eV   |
           -------------------------------------------------

 * finished run on 2022/03/17 at 00:14:05.897
