   * xtb version 6.3.3 (4ae9cef) compiled by 'conda@95abc7406d43' on 2020-10-14
          program call               : xtb acid_235.xyz --opt --chrg 0 --uhf 0 --gfn 2
          number of atoms            :                    84
          number of electrons        :                   238
          charge                     :                     0
          spin                       :                   0.0

   ID    Z sym.   atoms
    1    6 C      1-22, 24-32, 34, 35, 39-47
    2    7 N      23, 38
    3    8 O      33, 36, 37, 48
    4    1 H      49-84

          :  Hamiltonian                  GFN2-xTB          :
 * total energy  :  -130.4373398 Eh     change       -0.5637929E-08 Eh
 * total energy  :  -130.4555948 Eh     change       -0.1825501E-01 Eh
 * total energy  :  -130.4612910 Eh     change       -0.5696176E-02 Eh
 * total energy  :  -130.4634303 Eh     change       -0.2139323E-02 Eh
 * total energy  :  -130.4650967 Eh     change       -0.1666380E-02 Eh
 * total energy  :  -130.4661608 Eh     change       -0.1064131E-02 Eh
 * total energy  :  -130.4671833 Eh     change       -0.1022460E-02 Eh
 * total energy  :  -130.4682285 Eh     change       -0.1045227E-02 Eh
 * total energy  :  -130.4691250 Eh     change       -0.8965610E-03 Eh
 * total energy  :  -130.4694038 Eh     change       -0.2787219E-03 Eh
 * total energy  :  -130.4850960 Eh     change       -0.1235724E-04 Eh
 * total energy  :  -130.4851075 Eh     change       -0.1154001E-04 Eh
 * total energy  :  -130.4851197 Eh     change       -0.1225097E-04 Eh
 * total energy  :  -130.4851354 Eh     change       -0.1565689E-04 Eh
 * total energy  :  -130.4851412 Eh     change       -0.5749196E-05 Eh
 * total energy  :  -130.4851490 Eh     change       -0.7830417E-05 Eh
 * total energy  :  -130.4851551 Eh     change       -0.6159258E-05 Eh
 * total energy  :  -130.4851628 Eh     change       -0.7663903E-05 Eh
 * total energy  :  -130.4851661 Eh     change       -0.3298625E-05 Eh
   *** GEOMETRY OPTIMIZATION CONVERGED AFTER 88 ITERATIONS ***

 final structure:
================
84
 xtb: 6.3.3 (4ae9cef)
C         4.41073910299489    2.73502932065501   -2.26971145584220
C         4.40291124908525    1.47271385480183   -2.79047482048588
C         3.40558979630253    0.56867565469690   -2.40101635870600
C         2.44479578947612    0.93272953084808   -1.49819243258883
C         2.42860863085720    2.22464660376824   -0.92729900107070
C         3.43433264221262    3.14423499644618   -1.33724352221210
C         3.44201888835342    4.45397161487692   -0.81616246123913
C         2.49556978259085    4.84702375909302    0.08445356069201
C         1.51365669358617    3.94295616068309    0.50475626943587
C         1.46709817194026    2.65726954083661    0.02643827077256
C         0.33382114993884    1.78550343654717    0.49334020167949
C        -0.71667812898909    1.51225306640594   -0.59906179862679
C        -1.79014912444270    2.57034236486854   -0.58693462282024
C        -2.87975907951324    2.42015373017567    0.23263043632094
C        -3.88109163757812    3.39592800605332    0.30443914865394
C        -3.77306142439600    4.53903521960265   -0.43307545845171
C        -2.65727972225623    4.74925917312923   -1.26877066612582
C        -1.64416372009877    3.75429490406529   -1.35890800278266
C        -0.54120407406209    4.01026018753351   -2.20351143359990
C        -0.44138247048374    5.18002541889894   -2.90360967181564
C        -1.44075576233897    6.15849104835026   -2.80928756359459
C        -2.52728297966778    5.94171499633441   -2.01163897435016
N        -1.21962282524751    0.18888931784211   -0.24779139787779
C        -2.11839445808170   -0.41988016892240   -1.07819343415168
C        -2.52708695442066   -1.79222925055365   -0.65846661088374
C        -2.34287536390552   -2.85057808692959   -1.53739766926988
C        -2.71541936351849   -4.13739617069839   -1.17378038831687
C        -2.50833751191204   -5.28110097641376   -2.11934547308698
C        -3.29946245195261   -4.33856175402261    0.06984945609012
C        -3.52433848527232   -3.28589953678402    0.94697653283785
C        -4.19713391201883   -3.51570656276318    2.26585265188567
C        -3.12894127518997   -2.00930252002046    0.57402650594095
O        -2.56712855955186    0.14233643889779   -2.05226441776670
C        -0.35922342940607   -0.49222050819770    0.69723181045046
C         0.14372532650117   -1.82111401895427    0.09826368686601
O        -0.17015197573638   -2.85790602802280    0.86872740265566
O         0.71332900654547   -1.91416089065708   -0.95246910663469
N         0.71450178135417    0.44786195601191    0.93174137371746
C         1.82122191906818    0.23385711220217    1.69552389129021
C         2.05597186241543   -1.20495184051990    2.02916133544234
C         1.46496723458785   -1.78844875369375    3.14027135534686
C         1.69108725768478   -3.12693501656270    3.42972780631294
C         1.02364119225612   -3.76758545553594    4.60781634253980
C         2.51813834423316   -3.86302771124276    2.59079267838553
C         3.13637891001184   -3.28716371166546    1.48944539082075
C         4.03630199554196   -4.08329565207007    0.59468689239307
C         2.90382216679734   -1.94488959245927    1.21766449907912
O         2.56123233977046    1.13108278633773    2.03084829929357
H         5.16960782082987    3.44654499577784   -2.56366817439901
H         5.15578776224921    1.16626366148078   -3.50211435119151
H         3.39262637737049   -0.42697366931357   -2.81994311862038
H         1.69692131014551    0.20630412864535   -1.22845942908489
H         4.21235615000699    5.13739171400584   -1.14377106037284
H         2.49648854219344    5.84996201360330    0.48426878112027
H         0.77700497417322    4.27145188698510    1.22386981138310
H        -0.16261682571044    2.29491624412724    1.33466550787886
H        -0.25730921286510    1.45591281344286   -1.59153337638833
H        -2.97984606785899    1.52579580833867    0.83042827944003
H        -4.73255667196739    3.23422388108237    0.94897959019664
H        -4.53664051054477    5.30204881558439   -0.38469340512732
H         0.24652299566664    3.28153848357147   -2.30332104298752
H         0.41519522150359    5.35404275176564   -3.53806331345300
H        -1.34587218788836    7.07570124854272   -3.37173410888945
H        -3.30876558849033    6.68423985345668   -1.93225248912594
H        -1.88965577704248   -2.66273151814600   -2.49914787615272
H        -3.34962925847621   -5.34560841712874   -2.80960799571361
H        -2.43868916658082   -6.22486944935336   -1.58312276010087
H        -1.60538030235793   -5.13678666425688   -2.70821893530639
H        -3.59486526456629   -5.33783983114828    0.35870269551310
H        -4.10072281845375   -4.55287736795783    2.57710332777859
H        -5.25929007814251   -3.28325843544294    2.18507169692512
H        -3.77200659760380   -2.87438849175256    3.03476195082382
H        -3.30628707833836   -1.17807605979716    1.24158700991323
H        -0.89466115615685   -0.73244259585948    1.63310530471519
H         0.14321930156231   -3.69021600857045    0.47896032723837
H         0.82730498625711   -1.19826037088383    3.78260813596336
H         1.52465481074176   -4.69126245120437    4.88595169324439
H         1.02367151210324   -3.09495066761104    5.46261009320925
H        -0.01322206663537   -4.00023681052506    4.36310509674716
H         2.69174091401290   -4.90828388545044    2.80751243654670
H         5.05479466707242   -3.70048041400206    0.65216961080668
H         3.70984465309493   -3.99857294431430   -0.44120686054083
H         4.04468985538487   -5.13287135172951    0.87874866523248
H         3.37305123133841   -1.47353688904658    0.36659522621161

          :  Hamiltonian                  GFN2-xTB          :
         :: total energy            -130.485166104649 Eh    ::
         :: gradient norm              0.000502602101 Eh/a0 ::
         :: HOMO-LUMO gap              2.676637946768 eV    ::
         :: SCC energy              -132.618714098628 Eh    ::
         :: -> dispersion             -0.123547673805 Eh    ::
         :: repulsion energy           2.129162611732 Eh    ::

    * Orbital Energies and Occupations

         #    Occupation            Energy/Eh            Energy/eV
      -------------------------------------------------------------
         1        2.0000           -0.7732681             -21.0417
       ...           ...                  ...                  ...
       107        2.0000           -0.4115836             -11.1998
       108        2.0000           -0.4084629             -11.1148
       109        2.0000           -0.4077192             -11.0946
       110        2.0000           -0.4014607             -10.9243
       111        2.0000           -0.3995817             -10.8732
       112        2.0000           -0.3988989             -10.8546
       113        2.0000           -0.3978287             -10.8255
       114        2.0000           -0.3960195             -10.7762
       115        2.0000           -0.3947464             -10.7416
       116        2.0000           -0.3937534             -10.7146
       117        2.0000           -0.3904195             -10.6239
       118        2.0000           -0.3767556             -10.2520
       119        2.0000           -0.3685475             -10.0287 (HOMO)
       120                         -0.2701828              -7.3520 (LUMO)
       121                         -0.2595840              -7.0636
       122                         -0.2541048              -6.9145
       123                         -0.2451560              -6.6710
       124                         -0.2304548              -6.2710
       125                         -0.2293494              -6.2409
       126                         -0.2283423              -6.2135
       127                         -0.2264532              -6.1621
       128                         -0.2226292              -6.0580
       129                         -0.2158680              -5.8741
       130                         -0.2011253              -5.4729
       ...                                ...                  ...
       228                          0.7005404              19.0627
      -------------------------------------------------------------
                  HL-Gap            0.0983646 Eh            2.6766 eV

     #   Z          covCN         q      C6AA      Î±(0)
     1   6 C        2.921    -0.034    28.844     8.807
     2   6 C        2.914    -0.030    28.742     8.791
     3   6 C        2.917    -0.029    28.716     8.787
     4   6 C        2.917    -0.038    28.954     8.824
     5   6 C        2.983     0.015    27.668     8.628
     6   6 C        2.988     0.016    27.638     8.624
     7   6 C        2.921    -0.034    28.847     8.808
     8   6 C        2.914    -0.027    28.683     8.782
     9   6 C        2.925    -0.029    28.727     8.790
    10   6 C        2.966     0.009    27.808     8.650
    11   6 C        3.831     0.052    19.684     6.313
    12   6 C        3.826     0.048    19.748     6.323
    13   6 C        2.968     0.005    27.903     8.664
    14   6 C        2.922    -0.031    28.764     8.795
    15   6 C        2.914    -0.029    28.735     8.790
    16   6 C        2.920    -0.036    28.889     8.814
    17   6 C        2.988     0.016    27.637     8.624
    18   6 C        2.984     0.011    27.754     8.642
    19   6 C        2.917    -0.033    28.832     8.805
    20   6 C        2.917    -0.028    28.697     8.785
    21   6 C        2.915    -0.029    28.717     8.787
    22   6 C        2.921    -0.034    28.849     8.808
    23   7 N        2.765    -0.126    23.727     7.235
    24   6 C        2.766     0.273    22.386     7.748
    25   6 C        2.974    -0.025    28.629     8.777
    26   6 C        2.929    -0.038    28.947     8.823
    27   6 C        2.964     0.017    27.618     8.620
    28   6 C        3.758    -0.112    22.691     6.791
    29   6 C        2.931    -0.050    29.242     8.868
    30   6 C        2.964     0.020    27.549     8.609
    31   6 C        3.758    -0.110    22.660     6.787
    32   6 C        2.928    -0.044    29.099     8.846
    33   8 O        0.859    -0.409    21.867     6.270
    34   6 C        3.753     0.095    19.064     6.226
    35   6 C        2.688     0.354    20.989     7.498
    36   8 O        1.659    -0.368    20.242     6.074
    37   8 O        0.856    -0.385    21.376     6.199
    38   7 N        2.764    -0.120    23.608     7.216
    39   6 C        2.762     0.275    22.357     7.743
    40   6 C        2.976    -0.025    28.616     8.775
    41   6 C        2.927    -0.042    29.056     8.840
    42   6 C        2.965     0.021    27.540     8.608
    43   6 C        3.758    -0.112    22.685     6.790
    44   6 C        2.930    -0.053    29.307     8.878
    45   6 C        2.965     0.018    27.614     8.619
    46   6 C        3.758    -0.111    22.684     6.790
    47   6 C        2.930    -0.040    28.997     8.831
    48   8 O        0.859    -0.410    21.886     6.272
    49   1 H        0.926     0.032     2.563     2.504
    50   1 H        0.926     0.030     2.592     2.518
    51   1 H        0.926     0.033     2.542     2.493
    52   1 H        0.926     0.044     2.397     2.421
    53   1 H        0.926     0.035     2.510     2.478
    54   1 H        0.926     0.035     2.515     2.480
    55   1 H        0.926     0.029     2.596     2.519
    56   1 H        0.923     0.043     2.405     2.425
    57   1 H        0.924     0.065     2.136     2.286
    58   1 H        0.926     0.026     2.642     2.542
    59   1 H        0.926     0.034     2.535     2.490
    60   1 H        0.926     0.036     2.505     2.475
    61   1 H        0.926     0.031     2.575     2.510
    62   1 H        0.926     0.033     2.549     2.497
    63   1 H        0.926     0.033     2.543     2.494
    64   1 H        0.926     0.034     2.525     2.485
    65   1 H        0.926     0.047     2.352     2.398
    66   1 H        0.925     0.055     2.256     2.349
    67   1 H        0.925     0.044     2.402     2.423
    68   1 H        0.925     0.048     2.348     2.396
    69   1 H        0.925     0.036     2.507     2.476
    70   1 H        0.925     0.045     2.383     2.414
    71   1 H        0.924     0.053     2.281     2.362
    72   1 H        0.925     0.045     2.388     2.417
    73   1 H        0.926     0.028     2.619     2.531
    74   1 H        0.923     0.054     2.267     2.354
    75   1 H        0.804     0.345     0.599     1.216
    76   1 H        0.926     0.031     2.573     2.508
    77   1 H        0.925     0.046     2.373     2.409
    78   1 H        0.925     0.049     2.330     2.387
    79   1 H        0.924     0.050     2.318     2.381
    80   1 H        0.925     0.034     2.527     2.486
    81   1 H        0.925     0.054     2.271     2.357
    82   1 H        0.925     0.051     2.306     2.375
    83   1 H        0.925     0.043     2.412     2.429
    84   1 H        0.926     0.043     2.406     2.426

Wiberg/Mayer (AO) data.
largest (>0.10) Wiberg bond orders for each atom

     #   Z sym  total        # sym  WBO       # sym  WBO       # sym  WBO
 ---------------------------------------------------------------------------
     1   6 C    3.991 --     2 C    1.555     6 C    1.281    49 H    0.968
                             4 C    0.118
     2   6 C    3.992 --     1 C    1.555     3 C    1.325    50 H    0.971
     3   6 C    3.992 --     4 C    1.551     2 C    1.325    51 H    0.971
     4   6 C    3.991 --     3 C    1.551     5 C    1.286    52 H    0.960
                             1 C    0.118
     5   6 C    3.989 --     4 C    1.286     6 C    1.252    10 C    1.250
     6   6 C    3.990 --     1 C    1.281     7 C    1.278     5 C    1.252
     7   6 C    3.990 --     8 C    1.553     6 C    1.278    53 H    0.968
                            10 C    0.114
     8   6 C    3.992 --     7 C    1.553     9 C    1.327    54 H    0.970
     9   6 C    3.989 --    10 C    1.520     8 C    1.327    55 H    0.967
    10   6 C    3.983 --     9 C    1.520     5 C    1.250    11 C    0.995
                             7 C    0.114
    11   6 C    3.961 --    10 C    0.995    56 H    0.952    38 N    0.950
                            12 C    0.949
    12   6 C    3.960 --    13 C    0.991    23 N    0.955    11 C    0.949
                            57 H    0.945
    13   6 C    3.984 --    14 C    1.524    18 C    1.252    12 C    0.991
                            16 C    0.114
    14   6 C    3.990 --    13 C    1.524    15 C    1.327    58 H    0.967
    15   6 C    3.992 --    16 C    1.553    14 C    1.327    59 H    0.970
    16   6 C    3.990 --    15 C    1.553    17 C    1.279    60 H    0.968
                            13 C    0.114
    17   6 C    3.990 --    16 C    1.279    22 C    1.279    18 C    1.253
    18   6 C    3.989 --    19 C    1.284    17 C    1.253    13 C    1.252
    19   6 C    3.992 --    20 C    1.554    18 C    1.284    61 H    0.961
                            22 C    0.119
    20   6 C    3.992 --    19 C    1.554    21 C    1.323    62 H    0.971
    21   6 C    3.992 --    22 C    1.557    20 C    1.323    63 H    0.971
    22   6 C    3.991 --    21 C    1.557    17 C    1.279    64 H    0.968
                            19 C    0.119
    23   7 N    3.435 --    24 C    1.183    34 C    0.983    12 C    0.955
                            33 O    0.185
    24   6 C    3.944 --    33 O    1.709    23 N    1.183    25 C    0.968
    25   6 C    3.987 --    26 C    1.404    32 C    1.400    24 C    0.968
                            29 C    0.103
    26   6 C    3.989 --    27 C    1.410    25 C    1.404    65 H    0.968
                            30 C    0.104
    27   6 C    3.988 --    29 C    1.414    26 C    1.410    28 C    1.026
                            32 C    0.105
    28   6 C    3.995 --    27 C    1.026    67 H    0.983    68 H    0.980
                            66 H    0.966
    29   6 C    3.990 --    27 C    1.414    30 C    1.411    69 H    0.967
                            25 C    0.103
    30   6 C    3.989 --    32 C    1.414    29 C    1.411    31 C    1.025
                            26 C    0.104
    31   6 C    3.995 --    30 C    1.025    70 H    0.983    72 H    0.980
                            71 H    0.967
    32   6 C    3.990 --    30 C    1.414    25 C    1.400    73 H    0.967
                            27 C    0.105
    33   8 O    2.033 --    24 C    1.709    23 N    0.185
    34   6 C    3.973 --    38 N    0.983    23 N    0.983    74 H    0.944
                            35 C    0.913
    35   6 C    3.919 --    37 O    1.771    36 O    1.151    34 C    0.913
    36   8 O    2.215 --    35 C    1.151    75 H    0.853    37 O    0.179
    37   8 O    2.063 --    35 C    1.771    36 O    0.179
    38   7 N    3.450 --    39 C    1.198    34 C    0.983    11 C    0.950
                            48 O    0.191
    39   6 C    3.943 --    48 O    1.708    38 N    1.198    40 C    0.954
    40   6 C    3.986 --    41 C    1.407    47 C    1.406    39 C    0.954
                            44 C    0.102
    41   6 C    3.990 --    42 C    1.411    40 C    1.407    76 H    0.969
                            45 C    0.106
    42   6 C    3.988 --    41 C    1.411    44 C    1.410    43 C    1.026
                            47 C    0.106
    43   6 C    3.995 --    42 C    1.026    77 H    0.984    78 H    0.978
                            79 H    0.968
    44   6 C    3.989 --    45 C    1.418    42 C    1.410    80 H    0.967
                            40 C    0.102
    45   6 C    3.988 --    44 C    1.418    47 C    1.404    46 C    1.026
                            41 C    0.106
    46   6 C    3.994 --    45 C    1.026    83 H    0.985    82 H    0.973
                            81 H    0.970
    47   6 C    3.989 --    40 C    1.406    45 C    1.404    84 H    0.968
                            42 C    0.106
    48   8 O    2.036 --    39 C    1.708    38 N    0.191
    49   1 H    0.998 --     1 C    0.968
    50   1 H    0.998 --     2 C    0.971
    51   1 H    0.998 --     3 C    0.971
    52   1 H    0.998 --     4 C    0.960
    53   1 H    0.998 --     7 C    0.968
    54   1 H    0.998 --     8 C    0.970
    55   1 H    0.999 --     9 C    0.967
    56   1 H    0.998 --    11 C    0.952
    57   1 H    0.995 --    12 C    0.945
    58   1 H    0.999 --    14 C    0.967
    59   1 H    0.998 --    15 C    0.970
    60   1 H    0.998 --    16 C    0.968
    61   1 H    0.999 --    19 C    0.961
    62   1 H    0.998 --    20 C    0.971
    63   1 H    0.998 --    21 C    0.971
    64   1 H    0.998 --    22 C    0.968
    65   1 H    0.997 --    26 C    0.968
    66   1 H    0.997 --    28 C    0.966
    67   1 H    0.998 --    28 C    0.983
    68   1 H    0.997 --    28 C    0.980
    69   1 H    0.998 --    29 C    0.967
    70   1 H    0.998 --    31 C    0.983
    71   1 H    0.997 --    31 C    0.967
    72   1 H    0.998 --    31 C    0.980
    73   1 H    0.999 --    32 C    0.967
    74   1 H    0.997 --    34 C    0.944
    75   1 H    0.880 --    36 O    0.853
    76   1 H    0.999 --    41 C    0.969
    77   1 H    0.997 --    43 C    0.984
    78   1 H    0.997 --    43 C    0.978
    79   1 H    0.997 --    43 C    0.968
    80   1 H    0.998 --    44 C    0.967
    81   1 H    0.997 --    46 C    0.970
    82   1 H    0.997 --    46 C    0.973
    83   1 H    0.998 --    46 C    0.985
    84   1 H    0.998 --    47 C    0.968
 ---------------------------------------------------------------------------

molecular dipole:
                 x           y           z       tot (Debye)
 q only:       -0.450      -1.523       0.840
   full:       -0.526      -1.951       1.053       5.792

           -------------------------------------------------
          | TOTAL ENERGY             -130.485166104649 Eh   |
          | GRADIENT NORM               0.000502602101 Eh/Î± |
          | HOMO-LUMO GAP               2.676637946768 eV   |
           -------------------------------------------------

 * finished run on 2022/03/16 at 22:48:06.783
