   * xtb version 6.3.3 (4ae9cef) compiled by 'conda@95abc7406d43' on 2020-10-14
          program call               : xtb sub_3.xyz --opt --chrg 0 --uhf 0 --gfn 2
          number of atoms            :                    34
          number of electrons        :                   100
          charge                     :                     0
          spin                       :                   0.0

   ID    Z sym.   atoms
    1    8 O      1, 3
    2    6 C      2, 4-12, 14, 16-20
    3    7 N      13, 15
    4    1 H      21-34

          :  Hamiltonian                  GFN2-xTB          :
 * total energy  :   -55.4022443 Eh     change       -0.8917596E-09 Eh
 * total energy  :   -55.4103619 Eh     change       -0.8117637E-02 Eh
 * total energy  :   -55.4121725 Eh     change       -0.1810572E-02 Eh
 * total energy  :   -55.4123941 Eh     change       -0.2216668E-03 Eh
 * total energy  :   -55.4125078 Eh     change       -0.1136573E-03 Eh
 * total energy  :   -55.4125815 Eh     change       -0.7369672E-04 Eh
 * total energy  :   -55.4126664 Eh     change       -0.8487836E-04 Eh
 * total energy  :   -55.4127280 Eh     change       -0.6161232E-04 Eh
 * total energy  :   -55.4127614 Eh     change       -0.3341856E-04 Eh
 * total energy  :   -55.4127935 Eh     change       -0.3205144E-04 Eh
 * total energy  :   -55.4128147 Eh     change       -0.2127224E-04 Eh
 * total energy  :   -55.4128347 Eh     change       -0.1994055E-04 Eh
 * total energy  :   -55.4128463 Eh     change       -0.1167901E-04 Eh
 * total energy  :   -55.4128543 Eh     change       -0.7972229E-05 Eh
 * total energy  :   -55.4128646 Eh     change       -0.1024241E-04 Eh
 * total energy  :   -55.4128742 Eh     change       -0.9614557E-05 Eh
 * total energy  :   -55.4128821 Eh     change       -0.7965899E-05 Eh
 * total energy  :   -55.4128840 Eh     change       -0.1872406E-05 Eh
 * total energy  :   -55.4128881 Eh     change       -0.4122832E-05 Eh
   *** GEOMETRY OPTIMIZATION CONVERGED AFTER 19 ITERATIONS ***

 final structure:
================
34
 xtb: 6.3.3 (4ae9cef)
O         2.89418261722022   -0.81387517160306    2.05564399669218
C         3.37452336853373   -0.42364857426157    1.01636080099918
O         4.70202856653002   -0.31786178546917    0.82718155557403
C         5.51041546418087   -0.70138420972218    1.92693484367784
C         2.58854342790092   -0.01325433931956   -0.16377776079027
C         1.20463338010560   -0.10888535946961   -0.06841810725017
C         0.44468662424888    0.27979354438806   -1.15724055938710
C         1.06705545557488    0.70365712167159   -2.36230641671750
C         2.45745465792089    0.79385086594658   -2.43603233367233
C         3.20650314195434    0.44853099348127   -1.33719979555692
C         0.02433935318060    0.93953623284109   -3.30022926145603
C        -1.14617567788339    0.66120110386802   -2.67065966276241
N        -0.91765132288016    0.28140369227910   -1.37002215409193
C        -1.94465695118376   -0.02796088338203   -0.48176197694394
N        -3.05118658333324   -0.50614426952692   -1.03946393159136
C        -4.07019599434437   -0.82009204984319   -0.26373616772856
C        -4.06471312021090   -0.68637411676963    1.11977151049675
C        -5.24889141822580   -1.06217540921351    1.95157243926278
C        -2.91226502243555   -0.15115790600900    1.69026408299034
C        -1.83880704143333    0.19309646470281    0.89210792752917
H         5.34016941879794   -1.75132707890518    2.17544287810191
H         6.54070843362131   -0.54401222611613    1.61796222165565
H         5.27468317529468   -0.09320887095232    2.80306966176781
H         0.78020140999049   -0.50623135638794    0.83966428734863
H         2.93032715150027    1.12345939631197   -3.34878499756711
H         4.28248199919823    0.51263710587264   -1.36483036188098
H         0.14355774108651    1.27297812049658   -4.31160621103050
H        -2.15512436197971    0.70900111411896   -3.03018630914705
H        -4.94027935105383   -1.20405217024400   -0.78141491188456
H        -4.93199308657231   -1.51977310601868    2.88644686650376
H        -5.89248615320777   -1.75568322039755    1.41628032590650
H        -5.83240836653526   -0.17340960267828    2.19428735302289
H        -2.86046742635445    0.00364845883248    2.75855873490946
H        -0.95919550920743    0.64722549147813    1.31612243302092

          :  Hamiltonian                  GFN2-xTB          :
         :: total energy             -55.412888136547 Eh    ::
         :: gradient norm              0.000570927174 Eh/a0 ::
         :: HOMO-LUMO gap              2.842921381158 eV    ::
         :: SCC energy               -56.267856766354 Eh    ::
         :: -> dispersion             -0.035936472596 Eh    ::
         :: repulsion energy           0.855193652434 Eh    ::

    * Orbital Energies and Occupations

         #    Occupation            Energy/Eh            Energy/eV
      -------------------------------------------------------------
         1        2.0000           -0.7334644             -19.9586
       ...           ...                  ...                  ...
        38        2.0000           -0.4673479             -12.7172
        39        2.0000           -0.4630767             -12.6010
        40        2.0000           -0.4531726             -12.3315
        41        2.0000           -0.4443371             -12.0910
        42        2.0000           -0.4397252             -11.9655
        43        2.0000           -0.4388792             -11.9425
        44        2.0000           -0.4327066             -11.7745
        45        2.0000           -0.4245096             -11.5515
        46        2.0000           -0.4149133             -11.2904
        47        2.0000           -0.4051133             -11.0237
        48        2.0000           -0.3910234             -10.6403
        49        2.0000           -0.3799816             -10.3398
        50        2.0000           -0.3726580             -10.1405 (HOMO)
        51                         -0.2681826              -7.2976 (LUMO)
        52                         -0.2520664              -6.8591
        53                         -0.2404696              -6.5435
        54                         -0.2247915              -6.1169
        55                         -0.1795216              -4.8850
        56                         -0.1513175              -4.1176
        57                         -0.1109556              -3.0193
        58                         -0.0720610              -1.9609
        59                          0.0099936               0.2719
        60                          0.0336016               0.9143
        61                          0.0939252               2.5558
       ...                                ...                  ...
        94                          0.7245263              19.7154
      -------------------------------------------------------------
                  HL-Gap            0.1044754 Eh            2.8429 eV

     #   Z          covCN         q      C6AA      Î±(0)
     1   8 O        0.857    -0.428    22.256     6.325
     2   6 C        2.735     0.349    21.075     7.516
     3   8 O        1.705    -0.267    18.421     5.795
     4   6 C        3.658     0.037    20.226     6.454
     5   6 C        2.976    -0.030    28.732     8.793
     6   6 C        2.916    -0.039    28.961     8.825
     7   6 C        3.082     0.040    27.012     8.520
     8   6 C        3.115    -0.001    27.895     8.652
     9   6 C        2.911    -0.034    28.856     8.808
    10   6 C        2.920    -0.034    28.857     8.809
    11   6 C        3.001    -0.067    29.667     8.935
    12   6 C        3.042     0.006    27.850     8.656
    13   7 N        2.831    -0.011    21.471     6.882
    14   6 C        2.904     0.141    24.921     8.185
    15   7 N        1.846    -0.244    27.219     7.732
    16   6 C        2.912     0.052    26.844     8.496
    17   6 C        2.960     0.003    27.946     8.671
    18   6 C        3.757    -0.111    22.672     6.789
    19   6 C        2.935    -0.021    28.527     8.760
    20   6 C        2.913    -0.057    29.417     8.894
    21   1 H        0.924     0.060     2.202     2.321
    22   1 H        0.925     0.064     2.157     2.296
    23   1 H        0.924     0.060     2.198     2.319
    24   1 H        0.926     0.059     2.213     2.327
    25   1 H        0.926     0.040     2.451     2.448
    26   1 H        0.926     0.050     2.315     2.379
    27   1 H        0.926     0.040     2.445     2.445
    28   1 H        0.926     0.060     2.199     2.319
    29   1 H        0.925     0.042     2.427     2.436
    30   1 H        0.925     0.050     2.316     2.380
    31   1 H        0.925     0.047     2.356     2.401
    32   1 H        0.924     0.053     2.286     2.364
    33   1 H        0.926     0.042     2.423     2.434
    34   1 H        0.926     0.050     2.323     2.383

Wiberg/Mayer (AO) data.
largest (>0.10) Wiberg bond orders for each atom

     #   Z sym  total        # sym  WBO       # sym  WBO       # sym  WBO
 ---------------------------------------------------------------------------
     1   8 O    2.010 --     2 C    1.711     3 O    0.163
     2   6 C    3.912 --     1 O    1.711     3 O    1.108     5 C    1.020
     3   8 O    2.290 --     2 C    1.108     4 C    0.963     1 O    0.163
     4   6 C    3.930 --    22 H    0.982    21 H    0.977    23 H    0.977
                             3 O    0.963
     5   6 C    3.983 --     6 C    1.411    10 C    1.326     2 C    1.020
     6   6 C    3.988 --     5 C    1.411     7 C    1.380    24 H    0.958
     7   6 C    3.958 --     6 C    1.380     8 C    1.235    13 N    1.130
     8   6 C    3.982 --     9 C    1.327     7 C    1.235    11 C    1.223
     9   6 C    3.990 --    10 C    1.515     8 C    1.327    25 H    0.968
    10   6 C    3.983 --     9 C    1.515     5 C    1.326    26 H    0.967
    11   6 C    3.970 --    12 C    1.618     8 C    1.223    27 H    0.972
    12   6 C    3.942 --    11 C    1.618    13 N    1.169    28 H    0.966
    13   7 N    3.631 --    12 C    1.169     7 C    1.130    14 C    1.065
    14   6 C    3.968 --    15 N    1.376    20 C    1.348    13 N    1.065
    15   7 N    3.056 --    16 C    1.442    14 C    1.376
    16   6 C    3.981 --    15 N    1.442    17 C    1.397    29 H    0.961
                            20 C    0.108
    17   6 C    3.974 --    16 C    1.397    19 C    1.394    18 C    1.028
    18   6 C    3.995 --    17 C    1.028    31 H    0.983    30 H    0.978
                            32 H    0.966
    19   6 C    3.989 --    20 C    1.469    17 C    1.394    33 H    0.968
    20   6 C    3.987 --    19 C    1.469    14 C    1.348    34 H    0.963
                            16 C    0.108
    21   1 H    0.996 --     4 C    0.977
    22   1 H    0.996 --     4 C    0.982
    23   1 H    0.996 --     4 C    0.977
    24   1 H    0.996 --     6 C    0.958
    25   1 H    0.997 --     9 C    0.968
    26   1 H    0.997 --    10 C    0.967
    27   1 H    0.997 --    11 C    0.972
    28   1 H    0.996 --    12 C    0.966
    29   1 H    0.998 --    16 C    0.961
    30   1 H    0.997 --    18 C    0.978
    31   1 H    0.997 --    18 C    0.983
    32   1 H    0.996 --    18 C    0.966
    33   1 H    0.998 --    19 C    0.968
    34   1 H    0.997 --    20 C    0.963
 ---------------------------------------------------------------------------

molecular dipole:
                 x           y           z       tot (Debye)
 q only:       -0.597       0.298      -0.218
   full:       -0.586       0.324       0.189       1.769

           -------------------------------------------------
          | TOTAL ENERGY              -55.412888136547 Eh   |
          | GRADIENT NORM               0.000570927174 Eh/Î± |
          | HOMO-LUMO GAP               2.842921381158 eV   |
           -------------------------------------------------

 * finished run on 2022/03/17 at 02:20:21.333
