   * xtb version 6.3.3 (4ae9cef) compiled by 'conda@95abc7406d43' on 2020-10-14
          program call               : xtb acid_120.xyz --opt --chrg 0 --uhf 0 --gfn 2
          number of atoms            :                    84
          number of electrons        :                   250
          charge                     :                     0
          spin                       :                   0.0

   ID    Z sym.   atoms
    1    6 C      1-22, 24-34, 36, 37, 41-51
    2    7 N      23, 40
    3    8 O      35, 38, 39, 52
    4    1 H      53-84

          :  Hamiltonian                  GFN2-xTB          :
 * total energy  :  -136.9600435 Eh     change       -0.4947225E-08 Eh
 * total energy  :  -136.9799700 Eh     change       -0.1992652E-01 Eh
 * total energy  :  -136.9861074 Eh     change       -0.6137351E-02 Eh
 * total energy  :  -136.9876410 Eh     change       -0.1533652E-02 Eh
 * total energy  :  -136.9886488 Eh     change       -0.1007763E-02 Eh
 * total energy  :  -136.9890467 Eh     change       -0.3979587E-03 Eh
 * total energy  :  -136.9893731 Eh     change       -0.3264045E-03 Eh
 * total energy  :  -136.9896864 Eh     change       -0.3132848E-03 Eh
 * total energy  :  -136.9899979 Eh     change       -0.3114485E-03 Eh
 * total energy  :  -136.9903203 Eh     change       -0.3224773E-03 Eh
 * total energy  :  -136.9966425 Eh     change       -0.5634871E-05 Eh
 * total energy  :  -136.9966482 Eh     change       -0.5661689E-05 Eh
 * total energy  :  -136.9966542 Eh     change       -0.6027936E-05 Eh
 * total energy  :  -136.9966615 Eh     change       -0.7288307E-05 Eh
 * total energy  :  -136.9966699 Eh     change       -0.8352857E-05 Eh
 * total energy  :  -136.9966777 Eh     change       -0.7813019E-05 Eh
 * total energy  :  -136.9966843 Eh     change       -0.6576358E-05 Eh
 * total energy  :  -136.9966893 Eh     change       -0.5082373E-05 Eh
 * total energy  :  -136.9966931 Eh     change       -0.3784497E-05 Eh
   *** GEOMETRY OPTIMIZATION CONVERGED AFTER 142 ITERATIONS ***

 final structure:
================
84
 xtb: 6.3.3 (4ae9cef)
C         1.50860024355198    2.00834773347784   -1.51657587063750
C         2.27520940754485    2.90965667003034   -2.19447775728996
C         2.71695567765638    4.09558290390629   -1.57100514643765
C         3.51032137707564    5.04793659940448   -2.24213263515929
C         3.92316696916651    6.18529167635052   -1.60607880699563
C         3.56065008893942    6.42178118726638   -0.27096086471439
C         2.79228436774203    5.51708261593528    0.40660965553269
C         2.35200136417973    4.33320833438780   -0.22061946695496
C         1.56637794176482    3.37747676685595    0.45441039537204
C         1.14997474125812    2.23499136370616   -0.17309187780356
C         0.28631013135639    1.22999659263010    0.53787258170332
C        -1.14222299085948    1.14568845782626   -0.07413066637300
C        -2.20670766071397    1.60574814354327    0.89360259557472
C        -2.14486202452981    2.88554926673443    1.38313834157480
C        -3.10989726438426    3.36966531868016    2.28623591658863
C        -3.06317259542371    4.68317081454569    2.79994859032503
C        -4.01791604423150    5.12496842492646    3.67147208736751
C        -5.06275218882168    4.27558321702962    4.07072587697576
C        -5.13523760325345    2.99811978830893    3.59147109389210
C        -4.16602733674222    2.51164315081818    2.68954561666318
C        -4.21241818212074    1.20525840337649    2.16379077437361
C        -3.26046776599971    0.76442437207632    1.28865014138340
N        -1.27600948729812   -0.24352698379299   -0.47972504686948
C        -1.99507525233915   -0.61217262632001   -1.57711888928787
C        -1.86265879006089   -2.06598832862476   -1.91683826103406
C        -0.82842208313610   -2.48008015292219   -2.79420611730934
C         0.06063010784255   -1.56350313939082   -3.39398990181040
C         1.04547916395239   -1.99628241733029   -4.23657986839824
C         1.19083890135458   -3.36451156082128   -4.51293217489241
C         0.34459614013203   -4.27628401667637   -3.94736418625078
C        -0.68728184818325   -3.86309423028032   -3.07921756098892
C        -1.58806816555005   -4.77884166091325   -2.49641462143266
C        -2.59304971374900   -4.34650475128188   -1.67823935923882
C        -2.73070157652728   -2.98209745634682   -1.38358098143050
O        -2.68340496686563    0.17441931861059   -2.18722622465612
C        -0.28938875314257   -1.04356035606115    0.19914084888947
C        -0.85544181273519   -1.51234029118186    1.55656767890459
O        -1.37843456226178   -2.73249186708081    1.45600954562335
O        -0.85165844290597   -0.86545554220712    2.56388707611460
N         0.80133890438435   -0.12741323527150    0.38946545413820
C         2.11801240570742   -0.46139373223623    0.45943994747149
C         2.35225299696985   -1.91305539773813    0.15546476671108
C         2.72042517281022   -2.27795732229717   -1.11393387549716
C         2.86613714172101   -3.63175932351505   -1.45040652712760
C         2.62558512309964   -4.60287171838140   -0.52029660937242
C         2.27068163454261   -4.26390329432150    0.80246052637416
C         2.15094707996834   -2.89446409275163    1.15665245670214
C         1.84163419458189   -2.55413227916259    2.49056728854323
C         1.62659452348624   -3.52971430997601    3.42392680888586
C         1.71437243006789   -4.88479475147363    3.06859418237160
C         2.03677802400850   -5.24355527677961    1.78985566952379
O         2.99403454260410    0.33894954553003    0.69348684741319
H         1.18024254325435    1.09889285905172   -2.00014943758478
H         2.55700049420790    2.72709415568716   -3.22180685946927
H         3.78789656710009    4.86128133103052   -3.26993336104826
H         4.53268068181564    6.91029402682579   -2.12553714050508
H         3.89635646483973    7.32567396098768    0.21617266945862
H         2.51316360033561    5.69373013098811    1.43560913523749
H         1.30689638312350    3.55555321178333    1.48868018757568
H         0.21954445199805    1.47862254206058    1.60430106074010
H        -1.21430531841173    1.76295122282184   -0.97977299936392
H        -1.34742462197077    3.54494608117860    1.06985073878600
H        -2.25790495780903    5.33287042695147    2.48787044723023
H        -3.97788288187334    6.13201860039122    4.06027804371901
H        -5.80890185784875    4.64320832880632    4.75994940108853
H        -5.93803001002827    2.34117104817073    3.89498638595997
H        -5.02170376379873    0.55405618481475    2.46235942307751
H        -3.32120634020883   -0.23513147184333    0.88375655882462
H        -0.06884848372824   -0.50899867463394   -3.19707261590672
H         1.71553597468167   -1.28746768811146   -4.70054700273062
H         1.97280073874991   -3.68851918711063   -5.18418969814110
H         0.44681021397190   -5.33017353895295   -4.16325012959895
H        -1.47288924903174   -5.83008751916814   -2.71782447770058
H        -3.28808829257573   -5.05054479884660   -1.24604130136535
H        -3.52746739915149   -2.65459776330925   -0.73232255404926
H        -0.00791629112769   -1.92632105952072   -0.38405580718531
H        -1.74805476622201   -3.02308221921030    2.30683565041226
H         2.88882268809617   -1.51859712920164   -1.86296886326016
H         3.15447146948541   -3.89515534118986   -2.45641471890456
H         2.71385608669458   -5.64765652654157   -0.78089083302973
H         1.79605156701266   -1.51117729089163    2.76732827620552
H         1.39292172099592   -3.26101499997583    4.44344850131487
H         1.53864690663012   -5.64149293059184    3.81918065520257
H         2.12601299515324   -6.28513752322915    1.51632019805013

          :  Hamiltonian                  GFN2-xTB          :
         :: total energy            -136.996693133370 Eh    ::
         :: gradient norm              0.000353770509 Eh/a0 ::
         :: HOMO-LUMO gap              2.727457523180 eV    ::
         :: SCC energy              -139.322441974099 Eh    ::
         :: -> dispersion             -0.130604097344 Eh    ::
         :: repulsion energy           2.320928192842 Eh    ::

    * Orbital Energies and Occupations

         #    Occupation            Energy/Eh            Energy/eV
      -------------------------------------------------------------
         1        2.0000           -0.7774477             -21.1554
       ...           ...                  ...                  ...
       113        2.0000           -0.4153742             -11.3029
       114        2.0000           -0.4143242             -11.2743
       115        2.0000           -0.4140410             -11.2666
       116        2.0000           -0.4095324             -11.1439
       117        2.0000           -0.4057077             -11.0399
       118        2.0000           -0.4004624             -10.8971
       119        2.0000           -0.3993534             -10.8670
       120        2.0000           -0.3982295             -10.8364
       121        2.0000           -0.3936365             -10.7114
       122        2.0000           -0.3914768             -10.6526
       123        2.0000           -0.3893126             -10.5937
       124        2.0000           -0.3797785             -10.3343
       125        2.0000           -0.3762895             -10.2394 (HOMO)
       126                         -0.2760573              -7.5119 (LUMO)
       127                         -0.2746075              -7.4724
       128                         -0.2673179              -7.2741
       129                         -0.2620705              -7.1313
       130                         -0.2583483              -7.0300
       131                         -0.2432147              -6.6182
       132                         -0.2417355              -6.5780
       133                         -0.2317209              -6.3054
       134                         -0.2277452              -6.1973
       135                         -0.2235507              -6.0831
       136                         -0.2169299              -5.9030
       ...                                ...                  ...
       240                          0.6984609              19.0061
      -------------------------------------------------------------
                  HL-Gap            0.1002322 Eh            2.7275 eV

     #   Z          covCN         q      C6AA      Î±(0)
     1   6 C        2.920    -0.028    28.702     8.785
     2   6 C        2.917    -0.032    28.787     8.798
     3   6 C        2.988     0.015    27.668     8.628
     4   6 C        2.918    -0.033    28.830     8.805
     5   6 C        2.916    -0.029    28.730     8.790
     6   6 C        2.916    -0.029    28.720     8.788
     7   6 C        2.919    -0.033    28.826     8.804
     8   6 C        2.987     0.018    27.603     8.618
     9   6 C        2.923    -0.035    28.876     8.812
    10   6 C        2.969     0.012    27.736     8.639
    11   6 C        3.825     0.043    19.827     6.336
    12   6 C        3.830     0.042    19.851     6.339
    13   6 C        2.968     0.006    27.883     8.661
    14   6 C        2.925    -0.043    29.067     8.841
    15   6 C        2.987     0.017    27.625     8.622
    16   6 C        2.918    -0.034    28.846     8.807
    17   6 C        2.916    -0.029    28.717     8.787
    18   6 C        2.916    -0.029    28.733     8.790
    19   6 C        2.918    -0.033    28.834     8.805
    20   6 C        2.987     0.014    27.687     8.631
    21   6 C        2.918    -0.032    28.799     8.800
    22   6 C        2.918    -0.025    28.639     8.776
    23   7 N        2.769    -0.117    23.542     7.206
    24   6 C        2.761     0.275    22.349     7.742
    25   6 C        2.975    -0.025    28.631     8.777
    26   6 C        2.989     0.011    27.762     8.643
    27   6 C        2.918    -0.032    28.806     8.801
    28   6 C        2.916    -0.026    28.651     8.777
    29   6 C        2.916    -0.027    28.679     8.782
    30   6 C        2.919    -0.033    28.824     8.804
    31   6 C        2.986     0.014    27.687     8.631
    32   6 C        2.918    -0.034    28.850     8.808
    33   6 C        2.915    -0.028    28.698     8.785
    34   6 C        2.919    -0.024    28.610     8.771
    35   8 O        0.859    -0.411    21.900     6.274
    36   6 C        3.773     0.090    19.115     6.230
    37   6 C        2.689     0.352    21.016     7.503
    38   8 O        1.659    -0.370    20.279     6.079
    39   8 O        0.856    -0.374    21.176     6.170
    40   7 N        2.772    -0.117    23.541     7.206
    41   6 C        2.759     0.276    22.336     7.739
    42   6 C        2.977    -0.027    28.679     8.784
    43   6 C        2.921    -0.027    28.683     8.783
    44   6 C        2.915    -0.029    28.729     8.789
    45   6 C        2.918    -0.035    28.873     8.811
    46   6 C        2.986     0.014    27.682     8.631
    47   6 C        2.989     0.008    27.822     8.652
    48   6 C        2.917    -0.036    28.887     8.814
    49   6 C        2.916    -0.029    28.727     8.789
    50   6 C        2.915    -0.030    28.743     8.792
    51   6 C        2.919    -0.034    28.848     8.808
    52   8 O        0.858    -0.410    21.882     6.272
    53   1 H        0.926     0.023     2.683     2.561
    54   1 H        0.926     0.035     2.512     2.479
    55   1 H        0.926     0.033     2.550     2.497
    56   1 H        0.926     0.031     2.567     2.505
    57   1 H        0.926     0.032     2.561     2.503
    58   1 H        0.926     0.034     2.534     2.489
    59   1 H        0.926     0.037     2.493     2.469
    60   1 H        0.924     0.063     2.161     2.299
    61   1 H        0.923     0.074     2.043     2.235
    62   1 H        0.926     0.035     2.514     2.479
    63   1 H        0.926     0.034     2.532     2.488
    64   1 H        0.926     0.033     2.550     2.497
    65   1 H        0.926     0.032     2.558     2.501
    66   1 H        0.926     0.033     2.548     2.496
    67   1 H        0.926     0.035     2.512     2.478
    68   1 H        0.926     0.022     2.708     2.573
    69   1 H        0.926     0.031     2.570     2.507
    70   1 H        0.926     0.037     2.494     2.470
    71   1 H        0.926     0.036     2.509     2.477
    72   1 H        0.926     0.036     2.498     2.472
    73   1 H        0.926     0.039     2.466     2.456
    74   1 H        0.926     0.039     2.459     2.452
    75   1 H        0.926     0.035     2.517     2.481
    76   1 H        0.924     0.067     2.116     2.275
    77   1 H        0.804     0.344     0.602     1.219
    78   1 H        0.926     0.038     2.478     2.462
    79   1 H        0.926     0.039     2.466     2.456
    80   1 H        0.926     0.038     2.471     2.458
    81   1 H        0.926     0.039     2.465     2.455
    82   1 H        0.926     0.038     2.478     2.462
    83   1 H        0.926     0.035     2.513     2.479
    84   1 H        0.926     0.037     2.496     2.470

Wiberg/Mayer (AO) data.
largest (>0.10) Wiberg bond orders for each atom

     #   Z sym  total        # sym  WBO       # sym  WBO       # sym  WBO
 ---------------------------------------------------------------------------
     1   6 C    3.992 --     2 C    1.569    10 C    1.289    53 H    0.966
     2   6 C    3.992 --     1 C    1.569     3 C    1.273    54 H    0.968
                             9 C    0.113
     3   6 C    3.990 --     4 C    1.284     2 C    1.273     8 C    1.251
     4   6 C    3.992 --     5 C    1.554     3 C    1.284    55 H    0.968
                             7 C    0.118
     5   6 C    3.990 --     4 C    1.554     6 C    1.322    56 H    0.971
     6   6 C    3.992 --     7 C    1.556     5 C    1.322    57 H    0.971
     7   6 C    3.989 --     6 C    1.556     8 C    1.280    58 H    0.968
                             4 C    0.118
     8   6 C    3.990 --     7 C    1.280     9 C    1.280     3 C    1.251
     9   6 C    3.988 --    10 C    1.528     8 C    1.280    59 H    0.965
                             2 C    0.113
    10   6 C    3.985 --     9 C    1.528     1 C    1.289    11 C    0.994
    11   6 C    3.958 --    10 C    0.994    60 H    0.954    40 N    0.953
                            12 C    0.947
    12   6 C    3.957 --    13 C    0.987    23 N    0.964    11 C    0.947
                            61 H    0.945
    13   6 C    3.985 --    14 C    1.517    22 C    1.305    12 C    0.987
    14   6 C    3.990 --    13 C    1.517    15 C    1.289    62 H    0.965
                            21 C    0.117
    15   6 C    3.990 --    14 C    1.289    16 C    1.275    20 C    1.248
    16   6 C    3.991 --    17 C    1.561    15 C    1.275    63 H    0.968
                            19 C    0.118
    17   6 C    3.992 --    16 C    1.561    18 C    1.318    64 H    0.971
    18   6 C    3.990 --    19 C    1.559    17 C    1.318    65 H    0.971
    19   6 C    3.992 --    18 C    1.559    20 C    1.279    66 H    0.968
                            16 C    0.118
    20   6 C    3.990 --    21 C    1.282    19 C    1.279    15 C    1.248
    21   6 C    3.992 --    22 C    1.554    20 C    1.282    67 H    0.968
                            14 C    0.117
    22   6 C    3.991 --    21 C    1.554    13 C    1.305    68 H    0.967
    23   7 N    3.466 --    24 C    1.193    36 C    0.981    12 C    0.964
                            35 O    0.189
    24   6 C    3.942 --    35 O    1.708    23 N    1.193    25 C    0.953
    25   6 C    3.987 --    34 C    1.524    26 C    1.244    24 C    0.953
                            32 C    0.116
    26   6 C    3.989 --    27 C    1.281    31 C    1.253    25 C    1.244
    27   6 C    3.992 --    28 C    1.556    26 C    1.281    69 H    0.963
                            30 C    0.118
    28   6 C    3.992 --    27 C    1.556    29 C    1.321    70 H    0.971
    29   6 C    3.992 --    30 C    1.557    28 C    1.321    71 H    0.971
    30   6 C    3.991 --    29 C    1.557    31 C    1.279    72 H    0.968
                            27 C    0.118
    31   6 C    3.990 --    30 C    1.279    32 C    1.278    26 C    1.253
    32   6 C    3.991 --    33 C    1.557    31 C    1.278    73 H    0.968
                            25 C    0.116
    33   6 C    3.991 --    32 C    1.557    34 C    1.320    74 H    0.970
    34   6 C    3.991 --    25 C    1.524    33 C    1.320    75 H    0.970
    35   8 O    2.033 --    24 C    1.708    23 N    0.189
    36   6 C    3.973 --    40 N    0.991    23 N    0.981    76 H    0.941
                            37 C    0.905
    37   6 C    3.918 --    39 O    1.790    38 O    1.148    36 C    0.905
    38   8 O    2.212 --    37 C    1.148    77 H    0.855    39 O    0.183
    39   8 O    2.072 --    37 C    1.790    38 O    0.183
    40   7 N    3.463 --    41 C    1.200    36 C    0.991    11 C    0.953
                            52 O    0.192
    41   6 C    3.944 --    52 O    1.708    40 N    1.200    42 C    0.949
    42   6 C    3.987 --    43 C    1.522    47 C    1.249    41 C    0.949
                            45 C    0.116
    43   6 C    3.991 --    42 C    1.522    44 C    1.320    78 H    0.969
    44   6 C    3.991 --    45 C    1.557    43 C    1.320    79 H    0.968
    45   6 C    3.991 --    44 C    1.557    46 C    1.278    80 H    0.968
                            42 C    0.116
    46   6 C    3.990 --    51 C    1.279    45 C    1.278    47 C    1.253
    47   6 C    3.989 --    48 C    1.281    46 C    1.253    42 C    1.249
    48   6 C    3.992 --    49 C    1.554    47 C    1.281    81 H    0.966
                            51 C    0.118
    49   6 C    3.992 --    48 C    1.554    50 C    1.323    82 H    0.971
    50   6 C    3.992 --    51 C    1.556    49 C    1.323    83 H    0.971
    51   6 C    3.990 --    50 C    1.556    46 C    1.279    84 H    0.968
                            48 C    0.118
    52   8 O    2.034 --    41 C    1.708    40 N    0.192
    53   1 H    0.999 --     1 C    0.966
    54   1 H    0.998 --     2 C    0.968
    55   1 H    0.998 --     4 C    0.968
    56   1 H    0.999 --     5 C    0.971
    57   1 H    0.999 --     6 C    0.971
    58   1 H    0.998 --     7 C    0.968
    59   1 H    0.998 --     9 C    0.965
    60   1 H    0.995 --    11 C    0.954
    61   1 H    0.993 --    12 C    0.945
    62   1 H    0.998 --    14 C    0.965
    63   1 H    0.998 --    16 C    0.968
    64   1 H    0.998 --    17 C    0.971
    65   1 H    0.999 --    18 C    0.971
    66   1 H    0.998 --    19 C    0.968
    67   1 H    0.998 --    21 C    0.968
    68   1 H    0.999 --    22 C    0.967
    69   1 H    0.999 --    27 C    0.963
    70   1 H    0.998 --    28 C    0.971
    71   1 H    0.998 --    29 C    0.971
    72   1 H    0.998 --    30 C    0.968
    73   1 H    0.997 --    32 C    0.968
    74   1 H    0.997 --    33 C    0.970
    75   1 H    0.998 --    34 C    0.970
    76   1 H    0.995 --    36 C    0.941
    77   1 H    0.881 --    38 O    0.855
    78   1 H    0.998 --    43 C    0.969
    79   1 H    0.998 --    44 C    0.968
    80   1 H    0.997 --    45 C    0.968
    81   1 H    0.998 --    48 C    0.966
    82   1 H    0.998 --    49 C    0.971
    83   1 H    0.998 --    50 C    0.971
    84   1 H    0.998 --    51 C    0.968
 ---------------------------------------------------------------------------

molecular dipole:
                 x           y           z       tot (Debye)
 q only:       -0.349      -1.313       0.274
   full:       -0.395      -1.817       0.313       4.793

           -------------------------------------------------
          | TOTAL ENERGY             -136.996693133370 Eh   |
          | GRADIENT NORM               0.000353770509 Eh/Î± |
          | HOMO-LUMO GAP               2.727457523180 eV   |
           -------------------------------------------------

 * finished run on 2022/03/16 at 21:33:39.652
