   * xtb version 6.3.3 (4ae9cef) compiled by 'conda@95abc7406d43' on 2020-10-14
          program call               : xtb acid_210.xyz --opt --chrg 0 --uhf 0 --gfn 2
          number of atoms            :                    78
          number of electrons        :                   262
          charge                     :                     0
          spin                       :                   0.0

   ID    Z sym.   atoms
    1    6 C      1-22, 24-29, 33, 34, 36, 37, 41-46, 50, 51
    2    7 N      23, 40
    3    9 F      30-32, 47-49
    4    8 O      35, 38, 39, 52
    5    1 H      53-78

          :  Hamiltonian                  GFN2-xTB          :
 * total energy  :  -149.4447559 Eh     change       -0.4690861E-08 Eh
 * total energy  :  -149.4613652 Eh     change       -0.1660932E-01 Eh
 * total energy  :  -149.4667441 Eh     change       -0.5378852E-02 Eh
 * total energy  :  -149.4685750 Eh     change       -0.1830886E-02 Eh
 * total energy  :  -149.4700730 Eh     change       -0.1498028E-02 Eh
 * total energy  :  -149.4709321 Eh     change       -0.8591174E-03 Eh
 * total energy  :  -149.4717430 Eh     change       -0.8109005E-03 Eh
 * total energy  :  -149.4726479 Eh     change       -0.9048444E-03 Eh
 * total energy  :  -149.4734359 Eh     change       -0.7880559E-03 Eh
 * total energy  :  -149.4740951 Eh     change       -0.6591953E-03 Eh
 * total energy  :  -149.4994097 Eh     change       -0.7245650E-05 Eh
 * total energy  :  -149.4994173 Eh     change       -0.7639639E-05 Eh
 * total energy  :  -149.4994261 Eh     change       -0.8801570E-05 Eh
 * total energy  :  -149.4994136 Eh     change        0.1254375E-04 Eh
 * total energy  :  -149.4994312 Eh     change       -0.1765185E-04 Eh
 * total energy  :  -149.4994403 Eh     change       -0.9109076E-05 Eh
 * total energy  :  -149.4994476 Eh     change       -0.7288632E-05 Eh
 * total energy  :  -149.4994608 Eh     change       -0.1320299E-04 Eh
 * total energy  :  -149.4994651 Eh     change       -0.4235141E-05 Eh
   *** GEOMETRY OPTIMIZATION CONVERGED AFTER 185 ITERATIONS ***

 final structure:
================
78
 xtb: 6.3.3 (4ae9cef)
C         1.61086170626718    2.95821884462357    2.32042103290340
C         2.64757749562530    3.84120588505126    2.42026408777679
C         3.69101193062668    3.84289551016559    1.47226614109490
C         4.78206447513352    4.73265231570437    1.55462855700455
C         5.78030265805666    4.70068674776502    0.62183371803706
C         5.73270055548907    3.77955135979738   -0.43684530135152
C         4.68666138234077    2.90756349928260   -0.54716907284931
C         3.64112217963265    2.91402165474202    0.40003284635243
C         2.55009394421665    2.02870992602849    0.31574099747461
C         1.55665607147328    2.03528180521429    1.26061164791009
C         0.38503016584619    1.10127095812495    1.15276614683293
C        -0.52585417294590    1.44220688226725   -0.05993692575245
C        -1.70729100943440    2.27931979514603    0.35452706486341
C        -2.93843497433183    1.74035081764128    0.61162094211154
C        -4.01374959232530    2.55572105436128    1.02082823045038
C        -5.29314040913979    2.02242689987351    1.28071273219109
C        -6.31971780279922    2.83465360764127    1.67387203041812
C        -6.11408227338490    4.21496503638900    1.82601488719767
C        -4.88435762307462    4.76091583668946    1.58449611094717
C        -3.80502430636584    3.95023749461723    1.17758226771256
C        -2.52202666640416    4.47643335377723    0.91676629063430
C        -1.50207787637235    3.66487811493869    0.51345288394757
N        -0.87146558161938    0.13844433601172   -0.61362846624427
C        -1.41417880225911    0.00140182205903   -1.85371821455654
C        -1.57434331833929   -1.43768674739663   -2.25979398119850
C        -2.77135058101673   -2.09734140720048   -2.01702680962513
C        -2.89370423980747   -3.44208293014352   -2.31937866605869
C        -1.81592238180554   -4.12128708738110   -2.87012539328873
C        -1.89595392282297   -5.60164812856320   -3.11986344230506
F        -1.29858271450914   -5.97154912762673   -4.25975570344841
F        -3.15396865678692   -6.06023259541483   -3.17750065735181
F        -1.29046506363621   -6.29355035836166   -2.13105197943084
C        -0.62649315676663   -3.46046102120906   -3.15133774148213
C        -0.51191491179042   -2.11623290283928   -2.84967627192485
O        -1.72876163637627    0.94550991029480   -2.53738097790788
C        -0.30918369012188   -0.91651049026511    0.18433667435664
C        -1.35238851071336   -1.51733766041409    1.15517382958923
O        -0.77199322481635   -2.06243750232992    2.21647933445966
O        -2.53232933091672   -1.52500044501114    0.95080380333366
N         0.77350469951773   -0.27770076112491    0.88073437206099
C         1.87957605848511   -0.90198743123283    1.37018222304521
C         2.11895618869001   -2.23377412309627    0.71228063647029
C         1.97625283106955   -3.42563546166628    1.40715689414964
C         2.15960642394044   -4.63481052165898    0.75702305013685
C         2.50084506156180   -4.64324759208273   -0.58721525708545
C         2.68098334366014   -5.93211739033532   -1.34051992135258
F         1.97311192599404   -5.93383939241098   -2.48545081584208
F         2.30525904819314   -7.01128873245285   -0.64910802584181
F         3.96301315700389   -6.13226064829178   -1.69949084531193
C         2.69321627459134   -3.45305509103917   -1.27924937350028
C         2.49877034574939   -2.25156333027485   -0.62774562427702
O         2.61989133778960   -0.41501793558560    2.18944759824019
H         0.81984204286451    2.95890419194145    3.05609069228201
H         2.68563904654882    4.54798239010681    3.23640023624873
H         4.81448895920815    5.43923132668427    2.37160314644367
H         6.61468595689329    5.38286823683826    0.69194077914917
H         6.53282374347165    3.76588917459752   -1.16234267358640
H         4.64781274241378    2.19669048478315   -1.36041030258241
H         2.51676929099129    1.32794427122981   -0.50781485380442
H        -0.21045441885132    1.14205875117869    2.07639926422015
H         0.04337613671971    1.99535685504288   -0.81861781565987
H        -3.11335419350228    0.68101958872772    0.49697548560716
H        -5.44395110271056    0.95915748940262    1.16105069746751
H        -7.29826391061760    2.42122860404639    1.86956455050999
H        -6.93759665376462    4.84170287518357    2.13541826271534
H        -4.72104761845419    5.82297599462374    1.69969900771131
H        -2.36115215107678    5.53818278869351    1.03552271466573
H        -0.52275423419545    4.07420043161372    0.31086795358676
H        -3.59831887747517   -1.56289101899173   -1.57844571860958
H        -3.81780808207561   -3.96328034717054   -2.12342051081137
H         0.19508961737898   -4.00166518082543   -3.59492667052420
H         0.40574100098741   -1.59132874996328   -3.07004724538641
H         0.03967633347382   -1.75548817424123   -0.43335906374742
H        -1.43028484508020   -2.45384415829365    2.81564494972293
H         1.70987269112141   -3.40269614595175    2.45171669536650
H         2.03229513179171   -5.56620893336366    1.28636475298793
H         2.98510600193527   -3.47647031703273   -2.31818539078457
H         2.64345956166564   -1.32138708160312   -1.15677350695563

          :  Hamiltonian                  GFN2-xTB          :
         :: total energy            -149.499465057589 Eh    ::
         :: gradient norm              0.000378820466 Eh/a0 ::
         :: HOMO-LUMO gap              2.688844175912 eV    ::
         :: SCC energy              -151.499416222047 Eh    ::
         :: -> dispersion             -0.112785087453 Eh    ::
         :: repulsion energy           1.996973757939 Eh    ::

    * Orbital Energies and Occupations

         #    Occupation            Energy/Eh            Energy/eV
      -------------------------------------------------------------
         1        2.0000           -0.8841882             -24.0600
       ...           ...                  ...                  ...
       119        2.0000           -0.4349858             -11.8366
       120        2.0000           -0.4331818             -11.7875
       121        2.0000           -0.4312172             -11.7340
       122        2.0000           -0.4272074             -11.6249
       123        2.0000           -0.4258245             -11.5873
       124        2.0000           -0.4232508             -11.5172
       125        2.0000           -0.4223107             -11.4917
       126        2.0000           -0.4190373             -11.4026
       127        2.0000           -0.4162395             -11.3265
       128        2.0000           -0.4091348             -11.1331
       129        2.0000           -0.4055661             -11.0360
       130        2.0000           -0.3892795             -10.5928
       131        2.0000           -0.3866794             -10.5221 (HOMO)
       132                         -0.2878662              -7.8332 (LUMO)
       133                         -0.2858124              -7.7774
       134                         -0.2788474              -7.5878
       135                         -0.2746405              -7.4733
       136                         -0.2719869              -7.4011
       137                         -0.2684248              -7.3042
       138                         -0.2676358              -7.2827
       139                         -0.2421880              -6.5903
       140                         -0.2401785              -6.5356
       141                         -0.2370373              -6.4501
       142                         -0.2360830              -6.4241
       ...                                ...                  ...
       234                          0.6882406              18.7280
      -------------------------------------------------------------
                  HL-Gap            0.0988132 Eh            2.6888 eV

     #   Z          covCN         q      C6AA      Î±(0)
     1   6 C        2.919    -0.031    28.769     8.796
     2   6 C        2.918    -0.031    28.764     8.795
     3   6 C        2.988     0.016    27.642     8.624
     4   6 C        2.918    -0.033    28.810     8.802
     5   6 C        2.916    -0.028    28.692     8.784
     6   6 C        2.916    -0.027    28.686     8.783
     7   6 C        2.918    -0.033    28.815     8.803
     8   6 C        2.987     0.018    27.609     8.619
     9   6 C        2.923    -0.033    28.831     8.805
    10   6 C        2.969     0.011    27.764     8.643
    11   6 C        3.835     0.045    19.791     6.329
    12   6 C        3.828     0.040    19.877     6.344
    13   6 C        2.969     0.004    27.941     8.670
    14   6 C        2.921    -0.041    29.012     8.833
    15   6 C        2.988     0.016    27.642     8.624
    16   6 C        2.919    -0.034    28.837     8.806
    17   6 C        2.916    -0.028    28.711     8.787
    18   6 C        2.916    -0.029    28.714     8.787
    19   6 C        2.918    -0.034    28.840     8.806
    20   6 C        2.987     0.014    27.698     8.633
    21   6 C        2.917    -0.033    28.815     8.803
    22   6 C        2.920    -0.036    28.891     8.814
    23   7 N        2.767    -0.113    23.461     7.194
    24   6 C        2.760     0.275    22.343     7.741
    25   6 C        2.978    -0.008    28.222     8.714
    26   6 C        2.923    -0.017    28.431     8.744
    27   6 C        2.920    -0.020    28.518     8.757
    28   6 C        2.977    -0.023    28.569     8.768
    29   6 C        3.336     0.486    17.285     6.584
    30   9 F        0.791    -0.199    11.229     3.958
    31   9 F        0.791    -0.203    11.268     3.965
    32   9 F        0.791    -0.211    11.354     3.980
    33   6 C        2.920    -0.025    28.634     8.775
    34   6 C        2.923    -0.028    28.712     8.787
    35   8 O        0.858    -0.395    21.579     6.228
    36   6 C        3.777     0.085    19.195     6.242
    37   6 C        2.687     0.347    21.099     7.517
    38   8 O        1.659    -0.360    20.091     6.051
    39   8 O        0.856    -0.379    21.266     6.183
    40   7 N        2.771    -0.114    23.491     7.199
    41   6 C        2.757     0.278    22.291     7.732
    42   6 C        2.978    -0.007    28.193     8.710
    43   6 C        2.922    -0.019    28.481     8.752
    44   6 C        2.919    -0.021    28.529     8.759
    45   6 C        2.978    -0.022    28.545     8.764
    46   6 C        3.336     0.486    17.273     6.581
    47   9 F        0.791    -0.208    11.314     3.973
    48   9 F        0.791    -0.198    11.217     3.956
    49   9 F        0.791    -0.206    11.296     3.970
    50   6 C        2.921    -0.022    28.565     8.765
    51   6 C        2.925    -0.026    28.657     8.779
    52   8 O        0.858    -0.393    21.531     6.221
    53   1 H        0.926     0.034     2.526     2.486
    54   1 H        0.926     0.042     2.429     2.437
    55   1 H        0.926     0.036     2.501     2.473
    56   1 H        0.926     0.035     2.514     2.479
    57   1 H        0.926     0.035     2.516     2.480
    58   1 H        0.926     0.032     2.560     2.502
    59   1 H        0.925     0.024     2.667     2.554
    60   1 H        0.923     0.045     2.379     2.412
    61   1 H        0.923     0.067     2.122     2.278
    62   1 H        0.926     0.046     2.373     2.409
    63   1 H        0.926     0.037     2.487     2.466
    64   1 H        0.926     0.034     2.533     2.489
    65   1 H        0.926     0.034     2.535     2.490
    66   1 H        0.926     0.034     2.525     2.485
    67   1 H        0.926     0.039     2.458     2.452
    68   1 H        0.926     0.031     2.565     2.505
    69   1 H        0.926     0.074     2.046     2.237
    70   1 H        0.926     0.072     2.068     2.249
    71   1 H        0.926     0.070     2.089     2.260
    72   1 H        0.926     0.050     2.316     2.380
    73   1 H        0.923     0.068     2.110     2.272
    74   1 H        0.804     0.350     0.588     1.204
    75   1 H        0.926     0.068     2.110     2.271
    76   1 H        0.926     0.072     2.061     2.245
    77   1 H        0.926     0.065     2.143     2.289
    78   1 H        0.926     0.052     2.301     2.372

Wiberg/Mayer (AO) data.
largest (>0.10) Wiberg bond orders for each atom

     #   Z sym  total        # sym  WBO       # sym  WBO       # sym  WBO
 ---------------------------------------------------------------------------
     1   6 C    3.990 --     2 C    1.558    10 C    1.299    53 H    0.968
     2   6 C    3.991 --     1 C    1.558     3 C    1.280    54 H    0.967
                             9 C    0.116
     3   6 C    3.990 --     4 C    1.280     2 C    1.280     8 C    1.248
     4   6 C    3.992 --     5 C    1.558     3 C    1.280    55 H    0.968
                             7 C    0.118
     5   6 C    3.990 --     4 C    1.558     6 C    1.319    56 H    0.971
     6   6 C    3.992 --     7 C    1.559     5 C    1.319    57 H    0.971
     7   6 C    3.990 --     6 C    1.559     8 C    1.277    58 H    0.968
                             4 C    0.118
     8   6 C    3.990 --     9 C    1.287     7 C    1.277     3 C    1.248
     9   6 C    3.990 --    10 C    1.519     8 C    1.287    59 H    0.965
                             2 C    0.116
    10   6 C    3.984 --     9 C    1.519     1 C    1.299    11 C    0.995
    11   6 C    3.957 --    10 C    0.995    60 H    0.955    40 N    0.953
                            12 C    0.944
    12   6 C    3.954 --    13 C    0.989    23 N    0.956    61 H    0.951
                            11 C    0.944
    13   6 C    3.984 --    14 C    1.533    22 C    1.288    12 C    0.989
    14   6 C    3.989 --    13 C    1.533    15 C    1.278    62 H    0.960
                            21 C    0.114
    15   6 C    3.990 --    16 C    1.280    14 C    1.278    20 C    1.253
    16   6 C    3.990 --    17 C    1.557    15 C    1.280    63 H    0.968
                            19 C    0.118
    17   6 C    3.992 --    16 C    1.557    18 C    1.322    64 H    0.971
    18   6 C    3.990 --    19 C    1.555    17 C    1.322    65 H    0.971
    19   6 C    3.992 --    18 C    1.555    20 C    1.282    66 H    0.968
                            16 C    0.118
    20   6 C    3.990 --    19 C    1.282    21 C    1.274    15 C    1.253
    21   6 C    3.991 --    22 C    1.568    20 C    1.274    67 H    0.968
                            14 C    0.114
    22   6 C    3.990 --    21 C    1.568    13 C    1.288    68 H    0.968
    23   7 N    3.464 --    24 C    1.200    36 C    0.995    12 C    0.956
                            35 O    0.195
    24   6 C    3.950 --    35 O    1.720    23 N    1.200    25 C    0.949
    25   6 C    3.988 --    26 C    1.413    34 C    1.401    24 C    0.949
                            28 C    0.106
    26   6 C    3.987 --    27 C    1.439    25 C    1.413    69 H    0.965
                            33 C    0.112
    27   6 C    3.987 --    26 C    1.439    28 C    1.418    70 H    0.965
                            34 C    0.110
    28   6 C    3.976 --    27 C    1.418    33 C    1.408    29 C    0.950
                            25 C    0.106
    29   6 C    3.828 --    30 F    0.954    31 F    0.952    28 C    0.950
                            32 F    0.936
    30   9 F    1.080 --    29 C    0.954
    31   9 F    1.076 --    29 C    0.952
    32   9 F    1.066 --    29 C    0.936
    33   6 C    3.988 --    34 C    1.448    28 C    1.408    71 H    0.965
                            26 C    0.112
    34   6 C    3.991 --    33 C    1.448    25 C    1.401    72 H    0.968
                            27 C    0.110
    35   8 O    2.045 --    24 C    1.720    23 N    0.195
    36   6 C    3.976 --    23 N    0.995    40 N    0.993    73 H    0.920
                            37 C    0.906
    37   6 C    3.920 --    39 O    1.780    38 O    1.162    36 C    0.906
    38   8 O    2.224 --    37 C    1.162    74 H    0.851    39 O    0.184
    39   8 O    2.067 --    37 C    1.780    38 O    0.184
    40   7 N    3.454 --    41 C    1.195    36 C    0.993    11 C    0.953
                            52 O    0.192
    41   6 C    3.950 --    52 O    1.722    40 N    1.195    42 C    0.950
    42   6 C    3.987 --    43 C    1.418    51 C    1.393    41 C    0.950
                            45 C    0.106
    43   6 C    3.988 --    44 C    1.436    42 C    1.418    75 H    0.966
                            50 C    0.111
    44   6 C    3.987 --    43 C    1.436    45 C    1.422    76 H    0.965
                            51 C    0.110
    45   6 C    3.977 --    44 C    1.422    50 C    1.404    46 C    0.950
                            42 C    0.106
    46   6 C    3.829 --    48 F    0.958    45 C    0.950    47 F    0.942
                            49 F    0.942
    47   9 F    1.069 --    46 C    0.942
    48   9 F    1.082 --    46 C    0.958
    49   9 F    1.071 --    46 C    0.942
    50   6 C    3.989 --    51 C    1.454    45 C    1.404    77 H    0.966
                            43 C    0.111
    51   6 C    3.990 --    50 C    1.454    42 C    1.393    78 H    0.967
                            44 C    0.110
    52   8 O    2.050 --    41 C    1.722    40 N    0.192
    53   1 H    0.998 --     1 C    0.968
    54   1 H    0.997 --     2 C    0.967
    55   1 H    0.998 --     4 C    0.968
    56   1 H    0.998 --     5 C    0.971
    57   1 H    0.998 --     6 C    0.971
    58   1 H    0.999 --     7 C    0.968
    59   1 H    0.999 --     9 C    0.965
    60   1 H    0.997 --    11 C    0.955
    61   1 H    0.994 --    12 C    0.951
    62   1 H    0.997 --    14 C    0.960
    63   1 H    0.998 --    16 C    0.968
    64   1 H    0.998 --    17 C    0.971
    65   1 H    0.998 --    18 C    0.971
    66   1 H    0.998 --    19 C    0.968
    67   1 H    0.997 --    21 C    0.968
    68   1 H    0.999 --    22 C    0.968
    69   1 H    0.994 --    26 C    0.965
    70   1 H    0.994 --    27 C    0.965
    71   1 H    0.994 --    33 C    0.965
    72   1 H    0.997 --    34 C    0.968
    73   1 H    0.995 --    36 C    0.920
    74   1 H    0.877 --    38 O    0.851
    75   1 H    0.995 --    43 C    0.966
    76   1 H    0.994 --    44 C    0.965
    77   1 H    0.995 --    50 C    0.966
    78   1 H    0.997 --    51 C    0.967
 ---------------------------------------------------------------------------

molecular dipole:
                 x           y           z       tot (Debye)
 q only:       -0.145       2.227       1.795
   full:       -0.157       1.686       1.829       6.334

           -------------------------------------------------
          | TOTAL ENERGY             -149.499465057589 Eh   |
          | GRADIENT NORM               0.000378820466 Eh/Î± |
          | HOMO-LUMO GAP               2.688844175912 eV   |
           -------------------------------------------------

 * finished run on 2022/03/16 at 22:34:46.029
