   * xtb version 6.3.3 (4ae9cef) compiled by 'conda@95abc7406d43' on 2020-10-14
          program call               : xtb acid_169.xyz --opt --chrg 0 --uhf 0 --gfn 2
          number of atoms            :                    78
          number of electrons        :                   226
          charge                     :                     0
          spin                       :                   0.0

   ID    Z sym.   atoms
    1    6 C      1-22, 24-31, 33, 34, 38-45
    2    7 N      23, 37
    3    8 O      32, 35, 36, 46
    4    1 H      47-78

          :  Hamiltonian                  GFN2-xTB          :
 * total energy  :  -124.1044832 Eh     change       -0.6477023E-08 Eh
 * total energy  :  -124.1216051 Eh     change       -0.1712194E-01 Eh
 * total energy  :  -124.1272968 Eh     change       -0.5691655E-02 Eh
 * total energy  :  -124.1294851 Eh     change       -0.2188267E-02 Eh
 * total energy  :  -124.1313606 Eh     change       -0.1875571E-02 Eh
 * total energy  :  -124.1326617 Eh     change       -0.1301058E-02 Eh
 * total energy  :  -124.1337504 Eh     change       -0.1088670E-02 Eh
 * total energy  :  -124.1348301 Eh     change       -0.1079745E-02 Eh
 * total energy  :  -124.1356431 Eh     change       -0.8129902E-03 Eh
 * total energy  :  -124.1365942 Eh     change       -0.9511522E-03 Eh
 * total energy  :  -124.1406394 Eh     change       -0.2332407E-04 Eh
 * total energy  :  -124.1406521 Eh     change       -0.1268649E-04 Eh
 * total energy  :  -124.1406526 Eh     change       -0.4869648E-06 Eh
 * total energy  :  -124.1406601 Eh     change       -0.7515592E-05 Eh
 * total energy  :  -124.1406611 Eh     change       -0.9810872E-06 Eh
 * total energy  :  -124.1406696 Eh     change       -0.8489281E-05 Eh
 * total energy  :  -124.1406726 Eh     change       -0.2984256E-05 Eh
 * total energy  :  -124.1406728 Eh     change       -0.2010457E-06 Eh
 * total energy  :  -124.1406762 Eh     change       -0.3359016E-05 Eh
   *** GEOMETRY OPTIMIZATION CONVERGED AFTER 45 ITERATIONS ***

 final structure:
================
78
 xtb: 6.3.3 (4ae9cef)
C        -4.49881653896367   -3.79606903804453    0.67004487165815
C        -4.93219437047136   -3.26419924162517    1.85111976800791
C        -4.19725962321414   -2.24039346853738    2.46343767636491
C        -3.05548758454709   -1.75775606548328    1.88454028891934
C        -2.58851414054091   -2.27164079574892    0.65574061410638
C        -3.32541133851189   -3.32233917523929    0.04788931864253
C        -2.87152378785273   -3.88072871872603   -1.16528834342979
C        -1.72854461724115   -3.42273334135775   -1.74960427651243
C        -1.00586684278895   -2.37166602311575   -1.16627856220525
C        -1.42326791675435   -1.78212852690838   -0.00303229613515
C        -0.65655985740939   -0.66574116719064    0.65073141913595
C         0.65112653764733   -0.15613394122941   -0.00949732628070
C         1.84664708653259   -1.04015398582807    0.22652664248612
C         2.22078249228304   -1.28026149083482    1.52635544056151
C         3.31940876685671   -2.08690187093922    1.84140356989277
C         4.05270499254984   -2.65484792774373    0.84090685853947
C         3.72155287423628   -2.42378076601240   -0.50928730227539
C         2.60650357764323   -1.60223402623213   -0.83745739737691
C         2.34678328840210   -1.37877542720133   -2.20800268891717
C         3.11982932677433   -1.94191760757371   -3.18444380907020
C         4.20663876404147   -2.76084274731401   -2.85292617385240
C         4.49964693262680   -2.99103276849508   -1.54009388691904
N         0.79095721113141    1.15776020268037    0.62715363936214
C         1.66831639873989    2.14231260052568    0.29663430682470
C         2.81914988971352    1.69819174277059   -0.54773005476336
C         2.78684776120906    1.88611289903875   -1.92947885027236
C         1.59863587109641    2.53151892358101   -2.57762042178558
C         3.87881185603786    1.46901167983764   -2.67838682797590
C         4.98043173423855    0.89152940037949   -2.07260422083409
C         5.01554349174258    0.73916819460456   -0.69795233463402
C         3.93613116337488    1.14726579172630    0.06388357809053
O         1.51775630584617    3.28086155201137    0.69064300234747
C        -0.43013637445836    1.49642418614249    1.34246336287756
C        -0.28742128556755    1.32231373315325    2.85942544304368
O         0.93888273571068    1.58963894638061    3.28435312330421
O        -1.19135665134212    1.00096084656784    3.58228239617005
N        -1.40492542112566    0.58613719340346    0.81047808083260
C        -2.42128179800053    0.97986869942630   -0.02161550830460
C        -2.83066286195620    2.40894062374713    0.17021465945461
C        -2.37615454185952    3.36239730163274   -0.73200944348522
C        -2.75293866036539    4.68637387083259   -0.59546256896875
C        -3.59397186279512    5.05313714596742    0.44062385645966
C        -4.06065897831910    4.09879630891660    1.32758856886727
C        -3.69107841282203    2.76528020880781    1.20971896424946
C        -4.19326838688694    1.73193906399543    2.16794776692601
O        -2.95831852356007    0.24089703489433   -0.81339857029944
H        -5.05116365513846   -4.59093017188803    0.18889304054429
H        -5.83522219874113   -3.62789622763270    2.31939283377908
H        -4.53853016911280   -1.82870741321006    3.40211768977397
H        -2.51577348841081   -0.96871521018568    2.38318209177098
H        -3.44427732870783   -4.67784160523120   -1.61712670049882
H        -1.36900878366054   -3.85442162465655   -2.67205376086216
H        -0.10742478612165   -2.04357913252193   -1.66115873384257
H        -0.40216086076692   -0.99807973801872    1.66855496879924
H         0.46634593628512   -0.00264331070241   -1.07667391571615
H         1.67069312842908   -0.82140011560144    2.33448850725419
H         3.57730105601617   -2.25141532645063    2.87700130440860
H         4.90267558900029   -3.28243022122717    1.06630442737940
H         1.53518190289027   -0.73798280643153   -2.51438712751690
H         2.89645675979271   -1.75039430020038   -4.22353270338215
H         4.80685269646945   -3.19774557087333   -3.63695364908696
H         5.33970627286176   -3.61258972037409   -1.26485064591460
H         1.36086817962057    3.46672414070253   -2.07270195345646
H         0.71884684493611    1.88920430821305   -2.51431242987641
H         1.79482383072899    2.73716302502278   -3.62707438243767
H         3.86528469607428    1.60108196621937   -3.75081109300300
H         5.81628346644133    0.56763211576084   -2.67459079809619
H         5.87876078802331    0.30263105528021   -0.21914077361608
H         3.95210533008461    1.03899191242957    1.13803749740528
H        -0.68031938276908    2.55378724686977    1.16967308567671
H         0.99192323862294    1.55191872405834    4.25390812582697
H        -1.72461900512393    3.06301657739828   -1.54069892294039
H        -2.39207615299737    5.42523818294267   -1.29453475420615
H        -3.89325412100796    6.08454834828227    0.55413264747901
H        -4.72676429673957    4.39084585383866    2.12669939654981
H        -5.03015769504299    2.11691905009290    2.74526112460464
H        -4.51008722081258    0.83753351702994    1.63415213730391
H        -3.40073725223061    1.44497744143530    2.85886411307399

          :  Hamiltonian                  GFN2-xTB          :
         :: total energy            -124.140676156906 Eh    ::
         :: gradient norm              0.000340712239 Eh/a0 ::
         :: HOMO-LUMO gap              2.641587220071 eV    ::
         :: SCC energy              -126.177358729897 Eh    ::
         :: -> dispersion             -0.122724668040 Eh    ::
         :: repulsion energy           2.031611409985 Eh    ::

    * Orbital Energies and Occupations

         #    Occupation            Energy/Eh            Energy/eV
      -------------------------------------------------------------
         1        2.0000           -0.7733044             -21.0427
       ...           ...                  ...                  ...
       101        2.0000           -0.4146684             -11.2837
       102        2.0000           -0.4112370             -11.1903
       103        2.0000           -0.4100476             -11.1580
       104        2.0000           -0.4087516             -11.1227
       105        2.0000           -0.4078676             -11.0986
       106        2.0000           -0.4041787             -10.9983
       107        2.0000           -0.4015550             -10.9269
       108        2.0000           -0.3965843             -10.7916
       109        2.0000           -0.3960467             -10.7770
       110        2.0000           -0.3950880             -10.7509
       111        2.0000           -0.3913479             -10.6491
       112        2.0000           -0.3876012             -10.5472
       113        2.0000           -0.3713768             -10.1057 (HOMO)
       114                         -0.2743003              -7.4641 (LUMO)
       115                         -0.2630427              -7.1578
       116                         -0.2558762              -6.9627
       117                         -0.2409021              -6.5553
       118                         -0.2339742              -6.3668
       119                         -0.2327645              -6.3338
       120                         -0.2288280              -6.2267
       121                         -0.2244931              -6.1088
       122                         -0.2235141              -6.0821
       123                         -0.2205956              -6.0027
       124                         -0.2145132              -5.8372
       ...                                ...                  ...
       216                          0.6977735              18.9874
      -------------------------------------------------------------
                  HL-Gap            0.0970765 Eh            2.6416 eV

     #   Z          covCN         q      C6AA      Î±(0)
     1   6 C        2.921    -0.033    28.832     8.805
     2   6 C        2.915    -0.030    28.740     8.791
     3   6 C        2.917    -0.029    28.730     8.790
     4   6 C        2.917    -0.037    28.913     8.817
     5   6 C        2.987     0.017    27.627     8.622
     6   6 C        2.989     0.019    27.585     8.615
     7   6 C        2.919    -0.034    28.836     8.806
     8   6 C        2.915    -0.028    28.710     8.786
     9   6 C        2.920    -0.036    28.894     8.815
    10   6 C        2.965     0.010    27.785     8.646
    11   6 C        3.873     0.049    19.706     6.312
    12   6 C        3.824     0.041    19.870     6.343
    13   6 C        2.965    -0.005    28.154     8.703
    14   6 C        2.925    -0.033    28.834     8.806
    15   6 C        2.913    -0.030    28.749     8.792
    16   6 C        2.922    -0.035    28.860     8.810
    17   6 C        2.989     0.015    27.662     8.628
    18   6 C        2.982     0.009    27.808     8.650
    19   6 C        2.917    -0.033    28.829     8.805
    20   6 C        2.917    -0.028    28.695     8.784
    21   6 C        2.915    -0.028    28.712     8.787
    22   6 C        2.922    -0.033    28.826     8.805
    23   7 N        2.768    -0.133    23.878     7.257
    24   6 C        2.764     0.278    22.294     7.733
    25   6 C        2.982    -0.022    28.558     8.766
    26   6 C        2.968     0.021    27.538     8.608
    27   6 C        3.757    -0.103    22.516     6.765
    28   6 C        2.925    -0.037    28.915     8.818
    29   6 C        2.919    -0.029    28.721     8.788
    30   6 C        2.920    -0.031    28.771     8.796
    31   6 C        2.923    -0.025    28.630     8.775
    32   8 O        0.859    -0.431    22.301     6.332
    33   6 C        3.816     0.095    19.007     6.205
    34   6 C        2.689     0.355    20.973     7.495
    35   8 O        1.659    -0.350    19.902     6.022
    36   8 O        0.856    -0.397    21.621     6.234
    37   7 N        2.767    -0.128    23.774     7.242
    38   6 C        2.760     0.283    22.210     7.718
    39   6 C        2.982    -0.031    28.763     8.797
    40   6 C        2.922    -0.026    28.661     8.779
    41   6 C        2.919    -0.031    28.783     8.798
    42   6 C        2.919    -0.029    28.719     8.788
    43   6 C        2.925    -0.037    28.925     8.820
    44   6 C        2.967     0.022    27.504     8.602
    45   6 C        3.758    -0.117    22.799     6.808
    46   8 O        0.858    -0.406    21.798     6.260
    47   1 H        0.926     0.033     2.547     2.496
    48   1 H        0.926     0.031     2.574     2.509
    49   1 H        0.926     0.033     2.543     2.494
    50   1 H        0.926     0.041     2.431     2.438
    51   1 H        0.926     0.036     2.509     2.477
    52   1 H        0.926     0.033     2.544     2.494
    53   1 H        0.926     0.031     2.566     2.505
    54   1 H        0.923     0.049     2.328     2.386
    55   1 H        0.924     0.044     2.399     2.422
    56   1 H        0.926     0.030     2.582     2.513
    57   1 H        0.926     0.037     2.494     2.470
    58   1 H        0.926     0.039     2.466     2.456
    59   1 H        0.926     0.029     2.600     2.521
    60   1 H        0.926     0.036     2.504     2.474
    61   1 H        0.926     0.036     2.501     2.473
    62   1 H        0.926     0.037     2.492     2.468
    63   1 H        0.925     0.057     2.235     2.338
    64   1 H        0.924     0.035     2.511     2.478
    65   1 H        0.925     0.046     2.370     2.407
    66   1 H        0.926     0.037     2.484     2.465
    67   1 H        0.926     0.035     2.517     2.481
    68   1 H        0.926     0.034     2.524     2.485
    69   1 H        0.926     0.034     2.526     2.486
    70   1 H        0.923     0.095     1.836     2.119
    71   1 H        0.804     0.343     0.604     1.221
    72   1 H        0.926     0.030     2.587     2.515
    73   1 H        0.926     0.038     2.475     2.460
    74   1 H        0.926     0.037     2.492     2.469
    75   1 H        0.926     0.038     2.470     2.458
    76   1 H        0.925     0.046     2.365     2.405
    77   1 H        0.925     0.052     2.297     2.370
    78   1 H        0.925     0.069     2.102     2.267

Wiberg/Mayer (AO) data.
largest (>0.10) Wiberg bond orders for each atom

     #   Z sym  total        # sym  WBO       # sym  WBO       # sym  WBO
 ---------------------------------------------------------------------------
     1   6 C    3.991 --     2 C    1.553     6 C    1.283    47 H    0.968
                             4 C    0.118
     2   6 C    3.992 --     1 C    1.553     3 C    1.327    48 H    0.971
     3   6 C    3.992 --     4 C    1.549     2 C    1.327    49 H    0.971
     4   6 C    3.992 --     3 C    1.549     5 C    1.290    50 H    0.963
                             1 C    0.118
     5   6 C    3.989 --     4 C    1.290     6 C    1.259    10 C    1.238
     6   6 C    3.990 --     1 C    1.283     7 C    1.271     5 C    1.259
     7   6 C    3.991 --     8 C    1.563     6 C    1.271    51 H    0.968
                            10 C    0.114
     8   6 C    3.992 --     7 C    1.563     9 C    1.316    52 H    0.971
     9   6 C    3.990 --    10 C    1.535     8 C    1.316    53 H    0.961
    10   6 C    3.983 --     9 C    1.535     5 C    1.238    11 C    0.997
                             7 C    0.114
    11   6 C    3.961 --    10 C    0.997    12 C    0.954    37 N    0.950
                            54 H    0.940
    12   6 C    3.964 --    13 C    0.996    11 C    0.954    23 N    0.951
                            55 H    0.947
    13   6 C    3.985 --    14 C    1.519    18 C    1.252    12 C    0.996
                            16 C    0.115
    14   6 C    3.991 --    13 C    1.519    15 C    1.330    56 H    0.964
    15   6 C    3.992 --    16 C    1.550    14 C    1.330    57 H    0.970
    16   6 C    3.989 --    15 C    1.550    17 C    1.280    58 H    0.968
                            13 C    0.115
    17   6 C    3.990 --    22 C    1.280    16 C    1.280    18 C    1.251
    18   6 C    3.988 --    19 C    1.283    13 C    1.252    17 C    1.251
    19   6 C    3.992 --    20 C    1.552    18 C    1.283    59 H    0.957
                            22 C    0.118
    20   6 C    3.990 --    19 C    1.552    21 C    1.323    60 H    0.971
    21   6 C    3.992 --    22 C    1.556    20 C    1.323    61 H    0.970
    22   6 C    3.991 --    21 C    1.556    17 C    1.280    62 H    0.968
                            19 C    0.118
    23   7 N    3.446 --    24 C    1.209    33 C    0.967    12 C    0.951
                            32 O    0.188
    24   6 C    3.942 --    32 O    1.691    23 N    1.209    25 C    0.958
    25   6 C    3.986 --    31 C    1.412    26 C    1.378    24 C    0.958
                            29 C    0.109
    26   6 C    3.988 --    28 C    1.414    25 C    1.378    27 C    1.026
                            30 C    0.107
    27   6 C    3.996 --    26 C    1.026    65 H    0.985    63 H    0.972
                            64 H    0.968
    28   6 C    3.991 --    29 C    1.442    26 C    1.414    66 H    0.968
                            31 C    0.109
    29   6 C    3.992 --    28 C    1.442    30 C    1.438    67 H    0.971
                            25 C    0.109
    30   6 C    3.992 --    29 C    1.438    31 C    1.438    68 H    0.970
                            26 C    0.107
    31   6 C    3.991 --    30 C    1.438    25 C    1.412    69 H    0.970
                            28 C    0.109
    32   8 O    2.014 --    24 C    1.691    23 N    0.188
    33   6 C    3.969 --    37 N    0.997    23 N    0.967    34 C    0.926
                            70 H    0.918
    34   6 C    3.919 --    36 O    1.759    35 O    1.167    33 C    0.926
    35   8 O    2.234 --    34 C    1.167    71 H    0.856    36 O    0.182
    36   8 O    2.050 --    34 C    1.759    35 O    0.182
    37   7 N    3.427 --    38 C    1.173    33 C    0.997    11 C    0.950
                            46 O    0.178
    38   6 C    3.937 --    46 O    1.727    37 N    1.173    39 C    0.954
    39   6 C    3.985 --    40 C    1.411    44 C    1.371    38 C    0.954
                            42 C    0.108
    40   6 C    3.991 --    41 C    1.437    39 C    1.411    72 H    0.970
                            43 C    0.109
    41   6 C    3.991 --    42 C    1.437    40 C    1.437    73 H    0.970
                            44 C    0.108
    42   6 C    3.992 --    43 C    1.443    41 C    1.437    74 H    0.971
                            39 C    0.108
    43   6 C    3.991 --    42 C    1.443    44 C    1.413    75 H    0.968
                            40 C    0.109
    44   6 C    3.988 --    43 C    1.413    39 C    1.371    45 C    1.030
                            41 C    0.108
    45   6 C    3.994 --    44 C    1.030    76 H    0.984    77 H    0.973
                            78 H    0.958
    46   8 O    2.046 --    38 C    1.727    37 N    0.178
    47   1 H    0.998 --     1 C    0.968
    48   1 H    0.998 --     2 C    0.971
    49   1 H    0.998 --     3 C    0.971
    50   1 H    0.998 --     4 C    0.963
    51   1 H    0.998 --     7 C    0.968
    52   1 H    0.998 --     8 C    0.971
    53   1 H    0.999 --     9 C    0.961
    54   1 H    0.997 --    11 C    0.940
    55   1 H    0.998 --    12 C    0.947
    56   1 H    0.999 --    14 C    0.964
    57   1 H    0.998 --    15 C    0.970
    58   1 H    0.997 --    16 C    0.968
    59   1 H    0.999 --    19 C    0.957
    60   1 H    0.998 --    20 C    0.971
    61   1 H    0.998 --    21 C    0.970
    62   1 H    0.998 --    22 C    0.968
    63   1 H    0.997 --    27 C    0.972
    64   1 H    0.999 --    27 C    0.968
    65   1 H    0.998 --    27 C    0.985
    66   1 H    0.998 --    28 C    0.968
    67   1 H    0.998 --    29 C    0.971
    68   1 H    0.998 --    30 C    0.970
    69   1 H    0.998 --    31 C    0.970
    70   1 H    0.990 --    33 C    0.918
    71   1 H    0.881 --    35 O    0.856
    72   1 H    0.999 --    40 C    0.970
    73   1 H    0.998 --    41 C    0.970
    74   1 H    0.998 --    42 C    0.971
    75   1 H    0.998 --    43 C    0.968
    76   1 H    0.998 --    45 C    0.984
    77   1 H    0.997 --    45 C    0.973
    78   1 H    0.995 --    45 C    0.958
 ---------------------------------------------------------------------------

molecular dipole:
                 x           y           z       tot (Debye)
 q only:        1.139      -0.996       0.189
   full:        1.340      -0.789       0.277       4.014

           -------------------------------------------------
          | TOTAL ENERGY             -124.140676156906 Eh   |
          | GRADIENT NORM               0.000340712239 Eh/Î± |
          | HOMO-LUMO GAP               2.641587220071 eV   |
           -------------------------------------------------

 * finished run on 2022/03/16 at 22:01:42.480
