   * xtb version 6.3.3 (4ae9cef) compiled by 'conda@95abc7406d43' on 2020-10-14
          program call               : xtb acid_228.xyz --opt --chrg 0 --uhf 0 --gfn 2
          number of atoms            :                    68
          number of electrons        :                   202
          charge                     :                     0
          spin                       :                   0.0

   ID    Z sym.   atoms
    1    6 C      1-14, 16-21, 23, 24, 26, 27, 31-34, 36-39
    2    7 N      15, 30
    3    8 O      22, 25, 28, 29, 35, 40
    4    1 H      41-68

          :  Hamiltonian                  GFN2-xTB          :
 * total energy  :  -113.0556113 Eh     change       -0.1252744E-08 Eh
 * total energy  :  -113.0692025 Eh     change       -0.1359121E-01 Eh
 * total energy  :  -113.0731962 Eh     change       -0.3993688E-02 Eh
 * total energy  :  -113.0744233 Eh     change       -0.1227083E-02 Eh
 * total energy  :  -113.0751323 Eh     change       -0.7089557E-03 Eh
 * total energy  :  -113.0755284 Eh     change       -0.3960793E-03 Eh
 * total energy  :  -113.0758557 Eh     change       -0.3273564E-03 Eh
 * total energy  :  -113.0761450 Eh     change       -0.2892930E-03 Eh
 * total energy  :  -113.0764102 Eh     change       -0.2651789E-03 Eh
 * total energy  :  -113.0766425 Eh     change       -0.2323005E-03 Eh
 * total energy  :  -113.0785875 Eh     change       -0.1105539E-04 Eh
 * total energy  :  -113.0786022 Eh     change       -0.1469703E-04 Eh
 * total energy  :  -113.0786143 Eh     change       -0.1211271E-04 Eh
 * total energy  :  -113.0786305 Eh     change       -0.1625172E-04 Eh
 * total energy  :  -113.0786429 Eh     change       -0.1238554E-04 Eh
 * total energy  :  -113.0786431 Eh     change       -0.1972422E-06 Eh
 * total energy  :  -113.0786501 Eh     change       -0.6965781E-05 Eh
 * total energy  :  -113.0786582 Eh     change       -0.8111608E-05 Eh
 * total energy  :  -113.0786625 Eh     change       -0.4356488E-05 Eh
   *** GEOMETRY OPTIMIZATION CONVERGED AFTER 42 ITERATIONS ***

 final structure:
================
68
 xtb: 6.3.3 (4ae9cef)
C         3.01619878788999   -2.37111074592573    1.01276894659611
C         4.15752312201166   -3.06683783262370    1.36630172608003
C         4.28747512910172   -4.40353150888365    1.02964475354025
C         3.27231471667454   -5.04040008362777    0.33714410190520
C         2.13319415528422   -4.34293668709798   -0.02367718127855
C         2.00012072337919   -3.00295162319536    0.30790561684352
C         0.74336079473909   -2.25606967901548   -0.04922589115208
C        -0.17715770751472   -2.06947369583110    1.17058566533309
C        -1.32409926882197   -3.04494133009487    1.16325756711462
C        -1.31661605668967   -4.13065169691419    2.02650983617792
C        -2.34921644712145   -5.05093251461242    1.99764066784526
C        -3.39820607237309   -4.88938526960842    1.10917495257099
C        -3.40776055601947   -3.80794109686639    0.24441813344551
C        -2.37218375758859   -2.89143556841792    0.26480935293084
N        -0.61366318936694   -0.68281614109789    1.06949585012393
C        -1.49429970073418   -0.15771452566895    1.96119826327548
C        -1.83373132326046    1.27777489746377    1.69608621213214
C        -1.07703666423503    2.29564293676864    2.26744856609367
C        -1.41518794328077    3.61135587547037    2.02040188234419
C        -2.49121183010084    3.92929083057299    1.20780672567646
C        -3.25133788129577    2.91394285911312    0.63838099730749
O        -4.31356020249773    3.10574400114382   -0.19054531972521
C        -4.74974830028508    4.42107072104623   -0.43602031653405
C        -2.91897229969328    1.58257479320467    0.89603570716718
O        -1.95339556175189   -0.80300028646785    2.87645413790808
C         0.08008431308230    0.05541184920636    0.04428491133881
C        -0.88595984338516    0.51775448592224   -1.06698321269271
O        -0.80936975021846    1.82954885696558   -1.27424566104989
O        -1.59947927979931   -0.21711777471312   -1.68844062506713
N         1.02644181654748   -0.89537541904382   -0.49114923304907
C         1.79535546136857   -0.70149177023827   -1.60178772507054
C         1.92856141529547    0.72186313443406   -2.03683128923983
C         2.48348754405666    1.67285119699409   -1.19926643003338
C         2.62804661386582    2.99300178390340   -1.62589692147283
O         3.18233238206433    3.84464048448264   -0.72280859672755
C         3.39198284340160    5.18473315384940   -1.09941115920016
C         2.20577364894529    3.34540703610673   -2.90346772527611
C         1.66688188631422    2.38221298527138   -3.74097272070454
C         1.53239830487872    1.07276236297872   -3.32360800445823
O         2.33898164022048   -1.62084057113041   -2.17271106933395
H         2.91585824990999   -1.32752105453856    1.27565241185863
H         4.94751033352319   -2.56511877403435    1.90573522264157
H         5.17976079218341   -4.94629106385552    1.30461192454153
H         3.36982227912490   -6.08259949234661    0.07172459885367
H         1.34320320688298   -4.83769270844323   -0.56895462409283
H         0.21246789988617   -2.79296187722650   -0.84700925324001
H         0.39338326814923   -2.19084597975297    2.10199789961123
H        -0.50071578216298   -4.25328614941618    2.72386636703953
H        -2.33732113274699   -5.89237528904133    2.67428390820416
H        -4.20787779619373   -5.60401868289204    1.09156439059174
H        -4.22354623809255   -3.67844896946945   -0.45138475249057
H        -2.37773162237985   -2.05489344698092   -0.41825848376619
H        -0.24122900990950    2.05326186780548    2.90593927906579
H        -0.83537697274544    4.40757059953777    2.46285411896134
H        -2.72792722729602    4.96655023384680    1.03132185413178
H        -5.04752979945201    4.92441875619224    0.48863784271651
H        -3.98027643589055    5.01403453389750   -0.94139724652987
H        -5.61607898851157    4.32640281174118   -1.08866609954534
H        -3.52397194396365    0.80247299185694    0.46028685557144
H         0.57624046159305    0.95054869232815    0.44894770175138
H        -1.41974413919883    2.10293583659931   -1.97937599654912
H         2.83759055426201    1.41291898257825   -0.21370813992299
H         3.86354298675684    5.66078529131623   -0.24126359176614
H         2.44763822880209    5.69246075170017   -1.32048818604557
H         4.05786328590059    5.25919486167335   -1.96474368998365
H         2.30009326387586    4.35880538526411   -3.26004269375018
H         1.35422879210933    2.66394386733245   -4.73559045729178
H         1.12180282250461    0.31911960051833   -3.97724865224455

          :  Hamiltonian                  GFN2-xTB          :
         :: total energy            -113.078662541881 Eh    ::
         :: gradient norm              0.000622208853 Eh/a0 ::
         :: HOMO-LUMO gap              3.239486463782 eV    ::
         :: SCC energy              -114.736401598418 Eh    ::
         :: -> dispersion             -0.091875589983 Eh    ::
         :: repulsion energy           1.655129974365 Eh    ::

    * Orbital Energies and Occupations

         #    Occupation            Energy/Eh            Energy/eV
      -------------------------------------------------------------
         1        2.0000           -0.7749044             -21.0862
       ...           ...                  ...                  ...
        89        2.0000           -0.4206378             -11.4461
        90        2.0000           -0.4188844             -11.3984
        91        2.0000           -0.4165521             -11.3350
        92        2.0000           -0.4072028             -11.0806
        93        2.0000           -0.4058601             -11.0440
        94        2.0000           -0.4045162             -11.0074
        95        2.0000           -0.4036237             -10.9832
        96        2.0000           -0.3990917             -10.8598
        97        2.0000           -0.3954774             -10.7615
        98        2.0000           -0.3944344             -10.7331
        99        2.0000           -0.3937116             -10.7134
       100        2.0000           -0.3902324             -10.6188
       101        2.0000           -0.3882166             -10.5639 (HOMO)
       102                         -0.2691677              -7.3244 (LUMO)
       103                         -0.2510829              -6.8323
       104                         -0.2392412              -6.5101
       105                         -0.2310612              -6.2875
       106                         -0.2286868              -6.2229
       107                         -0.2272381              -6.1835
       108                         -0.2223952              -6.0517
       109                         -0.2191688              -5.9639
       110                         -0.2172198              -5.9109
       111                         -0.2154776              -5.8634
       112                         -0.2052430              -5.5849
       ...                                ...                  ...
       188                          0.6720650              18.2878
      -------------------------------------------------------------
                  HL-Gap            0.1190489 Eh            3.2395 eV

     #   Z          covCN         q      C6AA      Î±(0)
     1   6 C        2.924    -0.030    28.743     8.792
     2   6 C        2.920    -0.027    28.671     8.781
     3   6 C        2.920    -0.029    28.715     8.788
     4   6 C        2.920    -0.025    28.628     8.774
     5   6 C        2.924    -0.028    28.704     8.786
     6   6 C        2.974     0.014    27.700     8.633
     7   6 C        3.827     0.046    19.784     6.329
     8   6 C        3.822     0.046    19.795     6.331
     9   6 C        2.974     0.011    27.757     8.642
    10   6 C        2.924    -0.029    28.733     8.790
    11   6 C        2.920    -0.026    28.657     8.779
    12   6 C        2.920    -0.029    28.722     8.788
    13   6 C        2.920    -0.026    28.652     8.778
    14   6 C        2.923    -0.033    28.822     8.804
    15   7 N        2.766    -0.111    23.430     7.189
    16   6 C        2.763     0.272    22.402     7.751
    17   6 C        2.978    -0.019    28.466     8.752
    18   6 C        2.921    -0.040    28.990     8.830
    19   6 C        2.921    -0.027    28.684     8.783
    20   6 C        2.917    -0.066    29.651     8.929
    21   6 C        2.866     0.146    24.831     8.168
    22   8 O        1.706    -0.267    18.431     5.796
    23   6 C        3.644     0.036    20.313     6.478
    24   6 C        2.924    -0.053    29.325     8.881
    25   8 O        0.859    -0.408    21.846     6.267
    26   6 C        3.750     0.088    19.181     6.246
    27   6 C        2.688     0.351    21.048     7.508
    28   8 O        1.659    -0.371    20.290     6.081
    29   8 O        0.856    -0.377    21.219     6.176
    30   7 N        2.764    -0.116    23.533     7.205
    31   6 C        2.766     0.272    22.411     7.753
    32   6 C        2.976    -0.019    28.473     8.753
    33   6 C        2.924    -0.055    29.367     8.887
    34   6 C        2.866     0.148    24.780     8.160
    35   8 O        1.706    -0.265    18.389     5.790
    36   6 C        3.644     0.035    20.317     6.479
    37   6 C        2.917    -0.065    29.629     8.926
    38   6 C        2.921    -0.030    28.746     8.792
    39   6 C        2.922    -0.036    28.908     8.817
    40   8 O        0.859    -0.407    21.811     6.262
    41   1 H        0.926     0.028     2.611     2.527
    42   1 H        0.926     0.036     2.509     2.477
    43   1 H        0.926     0.036     2.499     2.472
    44   1 H        0.926     0.039     2.468     2.457
    45   1 H        0.926     0.037     2.485     2.465
    46   1 H        0.923     0.061     2.183     2.311
    47   1 H        0.923     0.056     2.244     2.343
    48   1 H        0.926     0.033     2.545     2.495
    49   1 H        0.926     0.036     2.502     2.474
    50   1 H        0.926     0.035     2.522     2.483
    51   1 H        0.926     0.037     2.494     2.469
    52   1 H        0.926     0.049     2.334     2.389
    53   1 H        0.926     0.039     2.465     2.455
    54   1 H        0.926     0.043     2.404     2.425
    55   1 H        0.926     0.041     2.441     2.443
    56   1 H        0.924     0.045     2.387     2.416
    57   1 H        0.924     0.039     2.465     2.455
    58   1 H        0.925     0.066     2.132     2.283
    59   1 H        0.926     0.054     2.265     2.353
    60   1 H        0.923     0.066     2.128     2.281
    61   1 H        0.804     0.346     0.599     1.215
    62   1 H        0.926     0.048     2.347     2.396
    63   1 H        0.925     0.066     2.135     2.285
    64   1 H        0.924     0.041     2.433     2.439
    65   1 H        0.924     0.044     2.396     2.421
    66   1 H        0.926     0.041     2.433     2.439
    67   1 H        0.926     0.042     2.418     2.432
    68   1 H        0.926     0.048     2.344     2.394

Wiberg/Mayer (AO) data.
largest (>0.10) Wiberg bond orders for each atom

     #   Z sym  total        # sym  WBO       # sym  WBO       # sym  WBO
 ---------------------------------------------------------------------------
     1   6 C    3.992 --     2 C    1.448     6 C    1.410    41 H    0.969
                             4 C    0.112
     2   6 C    3.992 --     1 C    1.448     3 C    1.436    42 H    0.971
                             5 C    0.111
     3   6 C    3.991 --     4 C    1.441     2 C    1.436    43 H    0.971
                             6 C    0.109
     4   6 C    3.992 --     5 C    1.443     3 C    1.441    44 H    0.971
                             1 C    0.112
     5   6 C    3.990 --     4 C    1.443     6 C    1.415    45 H    0.968
                             2 C    0.111
     6   6 C    3.985 --     5 C    1.415     1 C    1.410     7 C    0.990
                             3 C    0.109
     7   6 C    3.960 --     6 C    0.990     8 C    0.954    30 N    0.953
                            46 H    0.952
     8   6 C    3.960 --     9 C    0.989     7 C    0.954    47 H    0.953
                            15 N    0.952
     9   6 C    3.985 --    10 C    1.415    14 C    1.411     8 C    0.989
                            12 C    0.109
    10   6 C    3.990 --    11 C    1.443     9 C    1.415    48 H    0.969
                            13 C    0.111
    11   6 C    3.992 --    10 C    1.443    12 C    1.440    49 H    0.971
                            14 C    0.112
    12   6 C    3.991 --    11 C    1.440    13 C    1.437    50 H    0.971
                             9 C    0.109
    13   6 C    3.992 --    14 C    1.447    12 C    1.437    51 H    0.971
                            10 C    0.111
    14   6 C    3.990 --    13 C    1.447     9 C    1.411    52 H    0.964
                            11 C    0.112
    15   7 N    3.464 --    16 C    1.206    26 C    0.988     8 C    0.952
                            25 O    0.194
    16   6 C    3.947 --    25 O    1.707    15 N    1.206    17 C    0.952
    17   6 C    3.987 --    24 C    1.438    18 C    1.385    16 C    0.952
                            20 C    0.101
    18   6 C    3.990 --    19 C    1.449    17 C    1.385    53 H    0.970
    19   6 C    3.991 --    18 C    1.449    20 C    1.434    54 H    0.970
                            24 C    0.108
    20   6 C    3.987 --    19 C    1.434    21 C    1.376    55 H    0.966
                            17 C    0.101
    21   6 C    3.937 --    20 C    1.376    24 C    1.347    22 O    1.065
    22   8 O    2.235 --    21 C    1.065    23 C    0.984
    23   6 C    3.944 --    22 O    0.984    58 H    0.979    56 H    0.977
                            57 H    0.977
    24   6 C    3.987 --    17 C    1.438    21 C    1.347    59 H    0.966
                            19 C    0.108
    25   8 O    2.033 --    16 C    1.707    15 N    0.194
    26   6 C    3.972 --    15 N    0.988    30 N    0.984    60 H    0.944
                            27 C    0.907
    27   6 C    3.917 --    29 O    1.783    28 O    1.150    26 C    0.907
    28   8 O    2.214 --    27 C    1.150    61 H    0.854    29 O    0.182
    29   8 O    2.070 --    27 C    1.783    28 O    0.182
    30   7 N    3.447 --    31 C    1.190    26 C    0.984     7 C    0.953
                            40 O    0.186
    31   6 C    3.946 --    40 O    1.708    30 N    1.190    32 C    0.966
    32   6 C    3.987 --    33 C    1.431    39 C    1.384    31 C    0.966
                            37 C    0.101
    33   6 C    3.987 --    32 C    1.431    34 C    1.351    62 H    0.966
                            38 C    0.108
    34   6 C    3.938 --    37 C    1.371    33 C    1.351    35 O    1.069
    35   8 O    2.238 --    34 C    1.069    36 C    0.983
    36   6 C    3.944 --    35 O    0.983    63 H    0.979    64 H    0.977
                            65 H    0.977
    37   6 C    3.987 --    38 C    1.436    34 C    1.371    66 H    0.966
                            32 C    0.101
    38   6 C    3.991 --    39 C    1.449    37 C    1.436    67 H    0.970
                            33 C    0.108
    39   6 C    3.989 --    38 C    1.449    32 C    1.384    68 H    0.969
    40   8 O    2.035 --    31 C    1.708    30 N    0.186
    41   1 H    0.999 --     1 C    0.969
    42   1 H    0.998 --     2 C    0.971
    43   1 H    0.998 --     3 C    0.971
    44   1 H    0.998 --     4 C    0.971
    45   1 H    0.999 --     5 C    0.968
    46   1 H    0.996 --     7 C    0.952
    47   1 H    0.996 --     8 C    0.953
    48   1 H    0.999 --    10 C    0.969
    49   1 H    0.998 --    11 C    0.971
    50   1 H    0.998 --    12 C    0.971
    51   1 H    0.998 --    13 C    0.971
    52   1 H    0.998 --    14 C    0.964
    53   1 H    0.998 --    18 C    0.970
    54   1 H    0.997 --    19 C    0.970
    55   1 H    0.998 --    20 C    0.966
    56   1 H    0.998 --    23 C    0.977
    57   1 H    0.998 --    23 C    0.977
    58   1 H    0.995 --    23 C    0.979
    59   1 H    0.997 --    24 C    0.966
    60   1 H    0.995 --    26 C    0.944
    61   1 H    0.880 --    28 O    0.854
    62   1 H    0.998 --    33 C    0.966
    63   1 H    0.995 --    36 C    0.979
    64   1 H    0.998 --    36 C    0.977
    65   1 H    0.998 --    36 C    0.977
    66   1 H    0.998 --    37 C    0.966
    67   1 H    0.998 --    38 C    0.970
    68   1 H    0.998 --    39 C    0.969
 ---------------------------------------------------------------------------

molecular dipole:
                 x           y           z       tot (Debye)
 q only:        0.135       2.172      -0.395
   full:        0.074       2.950      -0.624       7.667

           -------------------------------------------------
          | TOTAL ENERGY             -113.078662541881 Eh   |
          | GRADIENT NORM               0.000622208853 Eh/Î± |
          | HOMO-LUMO GAP               3.239486463782 eV   |
           -------------------------------------------------

 * finished run on 2022/03/16 at 22:44:20.645
