   * xtb version 6.3.3 (4ae9cef) compiled by 'conda@95abc7406d43' on 2020-10-14
          program call               : xtb alk_11.xyz --opt --chrg 0 --uhf 0 --gfn 2
          number of atoms            :                    27
          number of electrons        :                    70
          charge                     :                     0
          spin                       :                   0.0

   ID    Z sym.   atoms
    1    6 C      1, 3-11, 13
    2    8 O      2, 12
    3    1 H      14-27

          :  Hamiltonian                  GFN2-xTB          :
 * total energy  :   -38.7777331 Eh     change       -0.3415614E-08 Eh
 * total energy  :   -38.7807612 Eh     change       -0.3028142E-02 Eh
 * total energy  :   -38.7811561 Eh     change       -0.3949275E-03 Eh
 * total energy  :   -38.7812271 Eh     change       -0.7095039E-04 Eh
 * total energy  :   -38.7812785 Eh     change       -0.5142829E-04 Eh
 * total energy  :   -38.7813032 Eh     change       -0.2465576E-04 Eh
 * total energy  :   -38.7813167 Eh     change       -0.1355517E-04 Eh
 * total energy  :   -38.7813318 Eh     change       -0.1504145E-04 Eh
 * total energy  :   -38.7813403 Eh     change       -0.8507793E-05 Eh
 * total energy  :   -38.7813468 Eh     change       -0.6494978E-05 Eh
 * total energy  :   -38.7813527 Eh     change       -0.5893128E-05 Eh
 * total energy  :   -38.7813586 Eh     change       -0.5969606E-05 Eh
 * total energy  :   -38.7813638 Eh     change       -0.5147780E-05 Eh
 * total energy  :   -38.7813661 Eh     change       -0.2366981E-05 Eh
   *** GEOMETRY OPTIMIZATION CONVERGED AFTER 14 ITERATIONS ***

 final structure:
================
27
 xtb: 6.3.3 (4ae9cef)
C        -3.30989030809116   -2.52873306521609   -0.40244512744111
O        -2.82696600699816   -1.21923404786181   -0.55599422054091
C        -1.56510338043522   -0.94195184737136   -0.11780166607825
C        -0.70848924084636   -1.84801788456797    0.47953486962196
C         0.56055306105365   -1.45897164300293    0.89003618545439
C         0.98941089996965   -0.15930221529889    0.71429189931535
C         2.37394416839881    0.27847141135134    1.11711275795007
C         3.24311621615273    0.38280808900650   -0.10065888926184
C         3.81445243728595    1.49596342329626   -0.51858579104488
C         0.13248710361170    0.75855650709129    0.10932021608002
C        -1.13308970982469    0.39039489997398   -0.30624601117601
O        -2.03587786460640    1.22083930464255   -0.90127133947567
C        -1.67092103404485    2.56076081326948   -1.10915764602161
H        -2.69601932017633   -3.25345348022925   -0.94852766846126
H        -3.36089612144828   -2.82040443108330    0.65246055124527
H        -4.31495319005563   -2.52247746453305   -0.82156644478454
H        -1.01530367718377   -2.87004074905301    0.63509791688280
H         1.20910575432116   -2.18716877754555    1.35441205947931
H         2.33171186059439    1.24511345433993    1.62286516143639
H         2.80177041043238   -0.45641106067106    1.80349219987215
H         3.36225391069866   -0.53855062560728   -0.65581076717151
H         4.42224086347589    1.52910997719351   -1.40705183177617
H         3.70534844914293    2.42544037548146    0.01724853939652
H         0.48210578792587    1.76922211307180   -0.03187786912710
H        -1.46155571750706    3.07394200867184   -0.16410046833856
H        -0.79951200491367    2.64597333376509   -1.76752178667991
H        -2.52992234693277    3.02812258088602   -1.58827382935494

          :  Hamiltonian                  GFN2-xTB          :
         :: total energy             -38.781366148557 Eh    ::
         :: gradient norm              0.000363191190 Eh/a0 ::
         :: HOMO-LUMO gap              3.984530204602 eV    ::
         :: SCC energy               -39.346102376091 Eh    ::
         :: -> dispersion             -0.022585119615 Eh    ::
         :: repulsion energy           0.564630685608 Eh    ::

    * Orbital Energies and Occupations

         #    Occupation            Energy/Eh            Energy/eV
      -------------------------------------------------------------
         1        2.0000           -0.7082201             -19.2717
       ...           ...                  ...                  ...
        23        2.0000           -0.4808831             -13.0855
        24        2.0000           -0.4762406             -12.9592
        25        2.0000           -0.4652057             -12.6589
        26        2.0000           -0.4580092             -12.4631
        27        2.0000           -0.4478348             -12.1862
        28        2.0000           -0.4442264             -12.0880
        29        2.0000           -0.4393515             -11.9554
        30        2.0000           -0.4322515             -11.7622
        31        2.0000           -0.4253151             -11.5734
        32        2.0000           -0.4202658             -11.4360
        33        2.0000           -0.3993604             -10.8672
        34        2.0000           -0.3862140             -10.5094
        35        2.0000           -0.3584507              -9.7539 (HOMO)
        36                         -0.2120219              -5.7694 (LUMO)
        37                         -0.2097939              -5.7088
        38                         -0.1940269              -5.2797
        39                         -0.0819259              -2.2293
        40                          0.0305152               0.8304
        41                          0.0474204               1.2904
        42                          0.1015905               2.7644
        43                          0.1172898               3.1916
        44                          0.1224387               3.3317
        45                          0.1267516               3.4491
        46                          0.1300637               3.5392
       ...                                ...                  ...
        66                          0.6823598              18.5680
      -------------------------------------------------------------
                  HL-Gap            0.1464288 Eh            3.9845 eV

     #   Z          covCN         q      C6AA      Î±(0)
     1   6 C        3.646     0.038    20.260     6.469
     2   8 O        1.705    -0.258    18.275     5.772
     3   6 C        2.866     0.119    25.371     8.256
     4   6 C        2.917    -0.073    29.815     8.954
     5   6 C        2.923    -0.054    29.338     8.883
     6   6 C        2.973     0.004    27.936     8.670
     7   6 C        3.813    -0.063    21.692     6.629
     8   6 C        2.891    -0.022    28.550     8.760
     9   6 C        2.837    -0.095    30.386     9.034
    10   6 C        2.923    -0.079    29.980     8.979
    11   6 C        2.865     0.122    25.316     8.248
    12   8 O        1.705    -0.257    18.257     5.769
    13   6 C        3.645     0.038    20.266     6.470
    14   1 H        0.924     0.039     2.469     2.457
    15   1 H        0.924     0.038     2.470     2.458
    16   1 H        0.925     0.062     2.176     2.307
    17   1 H        0.926     0.038     2.477     2.461
    18   1 H        0.926     0.033     2.544     2.494
    19   1 H        0.924     0.044     2.398     2.422
    20   1 H        0.924     0.045     2.383     2.414
    21   1 H        0.925     0.032     2.561     2.502
    22   1 H        0.926     0.033     2.537     2.491
    23   1 H        0.926     0.035     2.523     2.484
    24   1 H        0.926     0.040     2.445     2.445
    25   1 H        0.924     0.039     2.466     2.456
    26   1 H        0.924     0.039     2.458     2.452
    27   1 H        0.925     0.062     2.173     2.305

Wiberg/Mayer (AO) data.
largest (>0.10) Wiberg bond orders for each atom

     #   Z sym  total        # sym  WBO       # sym  WBO       # sym  WBO
 ---------------------------------------------------------------------------
     1   6 C    3.948 --     2 O    0.989    16 H    0.979    14 H    0.976
                            15 H    0.976
     2   8 O    2.233 --     3 C    1.058     1 C    0.989
     3   6 C    3.935 --     4 C    1.416    11 C    1.260     2 O    1.058
     4   6 C    3.985 --     3 C    1.416     5 C    1.399    17 H    0.965
     5   6 C    3.989 --     6 C    1.442     4 C    1.399    18 H    0.969
     6   6 C    3.987 --     5 C    1.442    10 C    1.371     7 C    0.994
     7   6 C    3.997 --     8 C    1.010     6 C    0.994    19 H    0.968
                            20 H    0.960
     8   6 C    3.989 --     9 C    1.976     7 C    1.010    21 H    0.967
     9   6 C    3.989 --     8 C    1.976    22 H    0.977    23 H    0.975
    10   6 C    3.984 --    11 C    1.420     6 C    1.371    24 H    0.964
    11   6 C    3.937 --    10 C    1.420     3 C    1.260    12 O    1.060
    12   8 O    2.238 --    11 C    1.060    13 C    0.989
    13   6 C    3.948 --    12 O    0.989    27 H    0.979    25 H    0.976
                            26 H    0.976
    14   1 H    0.998 --     1 C    0.976
    15   1 H    0.998 --     1 C    0.976
    16   1 H    0.996 --     1 C    0.979
    17   1 H    0.998 --     4 C    0.965
    18   1 H    0.999 --     5 C    0.969
    19   1 H    0.997 --     7 C    0.968
    20   1 H    0.998 --     7 C    0.960
    21   1 H    0.999 --     8 C    0.967
    22   1 H    0.998 --     9 C    0.977
    23   1 H    0.999 --     9 C    0.975
    24   1 H    0.998 --    10 C    0.964
    25   1 H    0.998 --    13 C    0.976
    26   1 H    0.998 --    13 C    0.976
    27   1 H    0.996 --    13 C    0.979
 ---------------------------------------------------------------------------

molecular dipole:
                 x           y           z       tot (Debye)
 q only:        0.103      -0.030       0.140
   full:        0.210      -0.075       0.183       0.733

           -------------------------------------------------
          | TOTAL ENERGY              -38.781366148557 Eh   |
          | GRADIENT NORM               0.000363191190 Eh/Î± |
          | HOMO-LUMO GAP               3.984530204602 eV   |
           -------------------------------------------------

 * finished run on 2022/03/17 at 02:19:20.397
