   * xtb version 6.3.3 (4ae9cef) compiled by 'conda@95abc7406d43' on 2020-10-14
          program call               : xtb acid_388.xyz --opt --chrg 0 --uhf 0 --gfn 2
          number of atoms            :                    62
          number of electrons        :                   194
          charge                     :                     0
          spin                       :                   0.0

   ID    Z sym.   atoms
    1    6 C      1, 3-16, 18, 20-22, 24, 25, 27, 28, 32-34, 36, 37
    2    8 O      2, 17, 23, 26, 29, 30, 35, 38
    3    7 N      19, 31
    4    1 H      39-62

          :  Hamiltonian                  GFN2-xTB          :
 * total energy  :  -110.5815692 Eh     change       -0.2073676E-08 Eh
 * total energy  :  -110.5952904 Eh     change       -0.1372122E-01 Eh
 * total energy  :  -110.6000464 Eh     change       -0.4755972E-02 Eh
 * total energy  :  -110.6017359 Eh     change       -0.1689490E-02 Eh
 * total energy  :  -110.6027207 Eh     change       -0.9848570E-03 Eh
 * total energy  :  -110.6034345 Eh     change       -0.7137974E-03 Eh
 * total energy  :  -110.6041340 Eh     change       -0.6995122E-03 Eh
 * total energy  :  -110.6048319 Eh     change       -0.6978358E-03 Eh
 * total energy  :  -110.6054121 Eh     change       -0.5801902E-03 Eh
 * total energy  :  -110.6057635 Eh     change       -0.3514708E-03 Eh
 * total energy  :  -110.6146007 Eh     change       -0.1091356E-04 Eh
 * total energy  :  -110.6146188 Eh     change       -0.1808323E-04 Eh
 * total energy  :  -110.6146407 Eh     change       -0.2184599E-04 Eh
 * total energy  :  -110.6146634 Eh     change       -0.2270205E-04 Eh
 * total energy  :  -110.6146918 Eh     change       -0.2846681E-04 Eh
 * total energy  :  -110.6147361 Eh     change       -0.4421682E-04 Eh
 * total energy  :  -110.6147951 Eh     change       -0.5903936E-04 Eh
 * total energy  :  -110.6148494 Eh     change       -0.5426875E-04 Eh
 * total energy  :  -110.6148505 Eh     change       -0.1121967E-05 Eh
   *** GEOMETRY OPTIMIZATION CONVERGED AFTER 68 ITERATIONS ***

 final structure:
================
62
 xtb: 6.3.3 (4ae9cef)
C         1.41644143539239   -2.53921518597860   -1.22265468556870
O         1.44612351320800   -1.70026959095172   -2.29380696298756
C         1.85829200161211   -2.21005428720003   -3.53875805036618
C         1.61019957188036   -3.91427776561182   -1.29238207198443
C         1.53773272313073   -4.68821699338786   -0.14611638612250
C         1.27394824109383   -4.10673681768210    1.07894282854883
C         1.08492539241427   -2.73690480424813    1.15443426487428
C         1.15838335025295   -1.94635276324278    0.02188566352271
C         0.93510604552322   -0.45737458087026    0.08686338700707
C        -0.56868334907905   -0.10843914853542    0.06204157603628
C        -0.94290120722316    0.68353746631440   -1.16437024046382
C        -0.45080842103879    1.96590959844550   -1.34467879685613
C        -0.80465707523753    2.70675813721652   -2.45886635012804
C        -1.65249553057061    2.15676827963317   -3.40114483426149
C        -2.14530414640559    0.87232647618875   -3.24176015638266
C        -1.79313473100582    0.12226842167970   -2.12672339062091
O        -2.23966613724415   -1.14341621946920   -1.87615889260627
C        -3.15437913658856   -1.72458884362145   -2.77367756560574
N        -0.77521763317337    0.65171297605972    1.28455930353254
C        -1.77789541429239    1.52427363557014    1.53370189335934
C        -2.96911008525451    1.41226414059505    0.66987654684742
C        -3.72847171334914    0.30828866680857    0.39995833002355
O        -4.75132830768826    0.62522849491165   -0.40321739076609
C        -4.66359106892649    1.94199520408934   -0.66086759383554
C        -3.59803235601274    2.48681491729621   -0.02012597876396
O        -1.68508657474749    2.32714698109857    2.44797704888137
C         0.40473352119390    0.72177922849109    2.12220968649534
C         0.69895543779331    2.20313796566745    2.45505260514359
O         0.75167675994185    2.41809973855852    3.76380190955099
O         0.94953826909633    3.02504825911844    1.61716967888526
N         1.43779621068827    0.11829554033894    1.32460469326467
C         2.78057361776358    0.25526044044608    1.49256110052490
C         3.19343322726756    0.85446879453059    2.78377149243646
C         2.99492044518539    0.36759560548195    4.04493408554182
O         3.57735568922605    1.15780589149570    4.95496963039621
C         4.15883249582267    2.16877942629444    4.28913087928509
C         3.97104698255307    2.03470389303317    2.94999147715512
O         3.57137463490106   -0.11999896681990    0.65377867763498
H         2.85089331092421   -2.66644575884388   -3.47649103083109
H         1.14310795612107   -2.94056302491354   -3.93179047792699
H         1.89815206923955   -1.35164740172616   -4.20785947308012
H         1.81798096910714   -4.39341923599790   -2.23628639454050
H         1.68935620169716   -5.75518073827708   -0.21930099565854
H         1.21656752317666   -4.71229484305360    1.97055501196746
H         0.88557861905964   -2.27100371941683    2.10852884698240
H         1.45936527319096    0.00374764194579   -0.75805451238796
H        -1.16092148997844   -1.02943714189648    0.09225530056845
H         0.19720738619531    2.39539659222250   -0.59445501104912
H        -0.42175622153917    3.70712657213398   -2.58578718300132
H        -1.94033342446798    2.72645633818266   -4.27227829608377
H        -2.80715584834807    0.46776957280808   -3.99106176729111
H        -3.37198189655255   -2.71243202028588   -2.37003163192010
H        -4.08136873387414   -1.14514124595517   -2.83144962046455
H        -2.72517834192206   -1.83165958357701   -3.77463187977737
H        -3.65262081900780   -0.70995953286456    0.72537199032051
H        -5.41099486263315    2.36911828135521   -1.29925978296917
H        -3.27121170679514    3.50501974905107   -0.03282573012663
H         0.23408246936734    0.18811477155719    3.07272871221660
H         0.85693383041264    3.36518037169675    3.94634372173994
H         2.49485399716844   -0.51091111027140    4.40126275672532
H         4.67465656316511    2.90798627123856    4.86910483788585
H         4.31415949819497    2.67975898314789    2.16850219706789

          :  Hamiltonian                  GFN2-xTB          :
         :: total energy            -110.614850496150 Eh    ::
         :: gradient norm              0.000739535631 Eh/a0 ::
         :: HOMO-LUMO gap              3.593500905988 eV    ::
         :: SCC energy              -112.059794186471 Eh    ::
         :: -> dispersion             -0.088618147430 Eh    ::
         :: repulsion energy           1.442024300701 Eh    ::

    * Orbital Energies and Occupations

         #    Occupation            Energy/Eh            Energy/eV
      -------------------------------------------------------------
         1        2.0000           -0.7534697             -20.5030
       ...           ...                  ...                  ...
        85        2.0000           -0.4304888             -11.7142
        86        2.0000           -0.4291367             -11.6774
        87        2.0000           -0.4269582             -11.6181
        88        2.0000           -0.4138341             -11.2610
        89        2.0000           -0.4110408             -11.1850
        90        2.0000           -0.4052638             -11.0278
        91        2.0000           -0.4038266             -10.9887
        92        2.0000           -0.4018291             -10.9343
        93        2.0000           -0.4007486             -10.9049
        94        2.0000           -0.3948832             -10.7453
        95        2.0000           -0.3899735             -10.6117
        96        2.0000           -0.3857801             -10.4976
        97        2.0000           -0.3807865             -10.3617 (HOMO)
        98                         -0.2487278              -6.7682 (LUMO)
        99                         -0.2393703              -6.5136
       100                         -0.2339121              -6.3651
       101                         -0.2293149              -6.2400
       102                         -0.2267946              -6.1714
       103                         -0.2200543              -5.9880
       104                         -0.2177134              -5.9243
       105                         -0.2149533              -5.8492
       106                         -0.2081151              -5.6631
       107                         -0.1603005              -4.3620
       108                         -0.1572410              -4.2787
       ...                                ...                  ...
       176                          0.6939783              18.8841
      -------------------------------------------------------------
                  HL-Gap            0.1320587 Eh            3.5935 eV

     #   Z          covCN         q      C6AA      Î±(0)
     1   6 C        2.869     0.144    24.858     8.173
     2   8 O        1.705    -0.268    18.445     5.799
     3   6 C        3.644     0.038    20.277     6.473
     4   6 C        2.917    -0.065    29.606     8.923
     5   6 C        2.921    -0.031    28.784     8.798
     6   6 C        2.917    -0.041    29.021     8.834
     7   6 C        2.923    -0.033    28.829     8.805
     8   6 C        2.973    -0.013    28.345     8.733
     9   6 C        3.826     0.046    19.791     6.330
    10   6 C        3.813     0.037    19.947     6.357
    11   6 C        2.974    -0.022    28.542     8.763
    12   6 C        2.923    -0.035    28.878     8.813
    13   6 C        2.918    -0.039    28.959     8.825
    14   6 C        2.921    -0.033    28.814     8.803
    15   6 C        2.918    -0.067    29.661     8.931
    16   6 C        2.867     0.138    24.986     8.194
    17   8 O        1.705    -0.279    18.622     5.826
    18   6 C        3.643     0.039    20.255     6.470
    19   7 N        2.766    -0.109    23.390     7.183
    20   6 C        2.766     0.275    22.342     7.741
    21   6 C        3.077    -0.040    28.899     8.814
    22   6 C        3.072     0.073    26.298     8.408
    23   8 O        1.731    -0.163    16.753     5.527
    24   6 C        3.075     0.067    26.426     8.428
    25   6 C        3.016    -0.052    29.280     8.876
    26   8 O        0.861    -0.427    22.232     6.322
    27   6 C        3.759     0.094    19.069     6.225
    28   6 C        2.689     0.371    20.715     7.449
    29   8 O        1.659    -0.361    20.115     6.055
    30   8 O        0.856    -0.399    21.664     6.240
    31   7 N        2.762    -0.115    23.495     7.199
    32   6 C        2.761     0.274    22.376     7.746
    33   6 C        3.077    -0.049    29.132     8.849
    34   6 C        3.078     0.069    26.376     8.420
    35   8 O        1.731    -0.160    16.705     5.519
    36   6 C        3.077     0.066    26.436     8.430
    37   6 C        3.018    -0.054    29.319     8.882
    38   8 O        0.859    -0.414    21.964     6.284
    39   1 H        0.924     0.047     2.356     2.400
    40   1 H        0.924     0.039     2.458     2.452
    41   1 H        0.925     0.063     2.159     2.298
    42   1 H        0.926     0.041     2.441     2.443
    43   1 H        0.926     0.039     2.464     2.455
    44   1 H        0.926     0.038     2.480     2.463
    45   1 H        0.926     0.033     2.537     2.491
    46   1 H        0.924     0.089     1.885     2.147
    47   1 H        0.924     0.067     2.122     2.278
    48   1 H        0.926     0.065     2.136     2.285
    49   1 H        0.926     0.045     2.389     2.417
    50   1 H        0.926     0.039     2.459     2.452
    51   1 H        0.926     0.039     2.463     2.454
    52   1 H        0.925     0.062     2.180     2.309
    53   1 H        0.924     0.044     2.392     2.419
    54   1 H        0.924     0.042     2.418     2.432
    55   1 H        0.926     0.058     2.221     2.330
    56   1 H        0.926     0.058     2.224     2.332
    57   1 H        0.927     0.058     2.221     2.331
    58   1 H        0.923     0.060     2.195     2.317
    59   1 H        0.804     0.346     0.598     1.215
    60   1 H        0.926     0.051     2.304     2.374
    61   1 H        0.926     0.057     2.235     2.338
    62   1 H        0.927     0.057     2.236     2.339

Wiberg/Mayer (AO) data.
largest (>0.10) Wiberg bond orders for each atom

     #   Z sym  total        # sym  WBO       # sym  WBO       # sym  WBO
 ---------------------------------------------------------------------------
     1   6 C    3.935 --     4 C    1.380     8 C    1.322     2 O    1.066
     2   8 O    2.238 --     1 C    1.066     3 C    0.982
     3   6 C    3.944 --     2 O    0.982    41 H    0.979    39 H    0.977
                            40 H    0.976
     4   6 C    3.987 --     5 C    1.435     1 C    1.380    42 H    0.966
                             7 C    0.102
     5   6 C    3.990 --     6 C    1.444     4 C    1.435    43 H    0.971
                             8 C    0.106
     6   6 C    3.991 --     5 C    1.444     7 C    1.424    44 H    0.971
     7   6 C    3.990 --     8 C    1.441     6 C    1.424    45 H    0.968
                             4 C    0.102
     8   6 C    3.983 --     7 C    1.441     1 C    1.322     9 C    0.989
                             5 C    0.106
     9   6 C    3.960 --     8 C    0.989    31 N    0.960    10 C    0.951
                            46 H    0.946
    10   6 C    3.962 --    11 C    0.990    19 N    0.957    47 H    0.952
                             9 C    0.951
    11   6 C    3.982 --    12 C    1.434    16 C    1.327    10 C    0.990
                            14 C    0.107
    12   6 C    3.987 --    11 C    1.434    13 C    1.428    48 H    0.962
                            15 C    0.103
    13   6 C    3.991 --    14 C    1.443    12 C    1.428    49 H    0.970
    14   6 C    3.990 --    13 C    1.443    15 C    1.434    50 H    0.971
                            11 C    0.107
    15   6 C    3.987 --    14 C    1.434    16 C    1.382    51 H    0.965
                            12 C    0.103
    16   6 C    3.934 --    15 C    1.382    11 C    1.327    17 O    1.055
    17   8 O    2.225 --    16 C    1.055    18 C    0.982
    18   6 C    3.944 --    17 O    0.982    52 H    0.979    54 H    0.976
                            53 H    0.976
    19   7 N    3.472 --    20 C    1.229    27 C    0.976    10 C    0.957
                            26 O    0.186
    20   6 C    3.948 --    26 O    1.642    19 N    1.229    21 C    0.991
    21   6 C    3.980 --    22 C    1.555    25 C    1.253    20 C    0.991
    22   6 C    3.913 --    21 C    1.555    23 O    1.154    55 H    0.965
                            24 C    0.146
    23   8 O    2.464 --    22 C    1.154    24 C    1.132
    24   6 C    3.906 --    25 C    1.622    23 O    1.132    56 H    0.966
                            22 C    0.146
    25   6 C    3.983 --    24 C    1.622    21 C    1.253    57 H    0.973
    26   8 O    2.043 --    20 C    1.642    19 N    0.186
    27   6 C    3.967 --    31 N    0.990    19 N    0.976    58 H    0.944
                            28 C    0.907
    28   6 C    3.924 --    30 O    1.755    29 O    1.152    27 C    0.907
    29   8 O    2.212 --    28 C    1.152    59 H    0.855    30 O    0.171
    30   8 O    2.051 --    28 C    1.755    29 O    0.171
    31   7 N    3.461 --    32 C    1.200    27 C    0.990     9 C    0.960
                            38 O    0.191
    32   6 C    3.950 --    38 O    1.693    31 N    1.200    33 C    0.978
    33   6 C    3.980 --    34 C    1.560    37 C    1.258    32 C    0.978
    34   6 C    3.912 --    33 C    1.560    35 O    1.152    60 H    0.966
                            36 C    0.148
    35   8 O    2.468 --    34 C    1.152    36 C    1.137
    36   6 C    3.906 --    37 C    1.617    35 O    1.137    61 H    0.966
                            34 C    0.148
    37   6 C    3.983 --    36 C    1.617    33 C    1.258    62 H    0.973
    38   8 O    2.025 --    32 C    1.693    31 N    0.191
    39   1 H    0.998 --     3 C    0.977
    40   1 H    0.998 --     3 C    0.976
    41   1 H    0.996 --     3 C    0.979
    42   1 H    0.998 --     4 C    0.966
    43   1 H    0.998 --     5 C    0.971
    44   1 H    0.998 --     6 C    0.971
    45   1 H    0.998 --     7 C    0.968
    46   1 H    0.992 --     9 C    0.946
    47   1 H    0.995 --    10 C    0.952
    48   1 H    0.995 --    12 C    0.962
    49   1 H    0.998 --    13 C    0.970
    50   1 H    0.998 --    14 C    0.971
    51   1 H    0.998 --    15 C    0.965
    52   1 H    0.996 --    18 C    0.979
    53   1 H    0.998 --    18 C    0.976
    54   1 H    0.998 --    18 C    0.976
    55   1 H    0.997 --    22 C    0.965
    56   1 H    0.996 --    24 C    0.966
    57   1 H    0.997 --    25 C    0.973
    58   1 H    0.996 --    27 C    0.944
    59   1 H    0.880 --    29 O    0.855
    60   1 H    0.997 --    34 C    0.966
    61   1 H    0.996 --    36 C    0.966
    62   1 H    0.997 --    37 C    0.973
 ---------------------------------------------------------------------------

molecular dipole:
                 x           y           z       tot (Debye)
 q only:       -1.151      -1.049      -1.151
   full:       -1.361      -1.127      -1.146       5.353

           -------------------------------------------------
          | TOTAL ENERGY             -110.614850496150 Eh   |
          | GRADIENT NORM               0.000739535631 Eh/Î± |
          | HOMO-LUMO GAP               3.593500905988 eV   |
           -------------------------------------------------

 * finished run on 2022/03/17 at 00:35:42.339
