   * xtb version 6.3.3 (4ae9cef) compiled by 'conda@95abc7406d43' on 2020-10-14
          program call               : xtb acid_19.xyz --opt --chrg 0 --uhf 0 --gfn 2
          number of atoms            :                    76
          number of electrons        :                   246
          charge                     :                     0
          spin                       :                   0.0

   ID    Z sym.   atoms
    1    6 C      1-22, 24-28, 32, 33, 35, 36, 40-44, 48, 49
    2    7 N      23, 29, 39, 45
    3    8 O      30, 31, 34, 37, 38, 46, 47, 50
    4    1 H      51-76

          :  Hamiltonian                  GFN2-xTB          :
 * total energy  :  -138.6893733 Eh     change       -0.4796817E-08 Eh
 * total energy  :  -138.7105651 Eh     change       -0.2119179E-01 Eh
 * total energy  :  -138.7162101 Eh     change       -0.5645017E-02 Eh
 * total energy  :  -138.7176649 Eh     change       -0.1454770E-02 Eh
 * total energy  :  -138.7184918 Eh     change       -0.8269049E-03 Eh
 * total energy  :  -138.7191272 Eh     change       -0.6353474E-03 Eh
 * total energy  :  -138.7194818 Eh     change       -0.3546119E-03 Eh
 * total energy  :  -138.7198330 Eh     change       -0.3512404E-03 Eh
 * total energy  :  -138.7200858 Eh     change       -0.2528222E-03 Eh
 * total energy  :  -138.7202952 Eh     change       -0.2093718E-03 Eh
 * total energy  :  -138.7220318 Eh     change       -0.1524262E-04 Eh
 * total energy  :  -138.7220504 Eh     change       -0.1861282E-04 Eh
 * total energy  :  -138.7220685 Eh     change       -0.1811619E-04 Eh
 * total energy  :  -138.7220839 Eh     change       -0.1532036E-04 Eh
 * total energy  :  -138.7220966 Eh     change       -0.1269569E-04 Eh
 * total energy  :  -138.7221071 Eh     change       -0.1048680E-04 Eh
 * total energy  :  -138.7221150 Eh     change       -0.7928306E-05 Eh
 * total energy  :  -138.7221204 Eh     change       -0.5407537E-05 Eh
 * total energy  :  -138.7221253 Eh     change       -0.4887727E-05 Eh
   *** GEOMETRY OPTIMIZATION CONVERGED AFTER 42 ITERATIONS ***

 final structure:
================
76
 xtb: 6.3.3 (4ae9cef)
C        -1.87117081067417    1.73062356844564   -0.93397943700938
C        -2.78273592333266    2.71079430981013   -0.66558511769907
C        -3.20569551468451    2.96422533501253    0.65579824216491
C        -4.19245054156139    3.92441402581442    0.95903365614181
C        -4.58409495605994    4.13482954393003    2.25152742102535
C        -4.00113774389300    3.40316958509003    3.29861824750668
C        -3.04148662312056    2.46622334096486    3.03667770424506
C        -2.62477874023902    2.21545527985398    1.71268330046924
C        -1.67770228806239    1.21966691050584    1.40444000305083
C        -1.32858003437480    0.95263194184483    0.10642808577609
C        -0.39461078489970   -0.17724556707071   -0.23172105613614
C         1.07840981589353    0.12013087176398    0.12878623998494
C         1.81961320329232    0.70681274782557   -1.04014101239984
C         2.12966362365643    2.03905081950987   -1.07549336952247
C         2.78637829372094    2.60205114438383   -2.18828699293769
C         3.11929632757364    3.97137775955989   -2.24621597684107
C         3.76385441707520    4.48681078296716   -3.33564205282701
C         4.10392119502179    3.65866450147912   -4.41695646191478
C         3.79289615391918    2.32789134482593   -4.39171157928306
C         3.12854026556965    1.76572431510619   -3.28252120339272
C         2.79183945605374    0.39723231541746   -3.22214400013506
C         2.14825601855866   -0.11688331269773   -2.13474509556243
N         1.58913188751911   -1.19394671434147    0.51090088413758
C         2.92281298451731   -1.36997286224170    0.75998940384281
C         3.33451497712789   -2.75947669277159    1.12627853486347
C         2.96282896302538   -3.85182779603495    0.34616284575947
C         3.40771241824622   -5.11762194968607    0.67178232240656
C         4.22621236765761   -5.28295368568492    1.78251458578997
N         4.68263886388520   -6.60777386978354    2.13067358239398
O         4.31120454468783   -7.52987997473954    1.43702449113418
O         5.40796449408588   -6.71701511663002    3.09468502418038
C         4.62243270900381   -4.19807619577949    2.55516118467396
C         4.18267994155145   -2.93476862009407    2.21552013928462
O         3.72521559851828   -0.47497267840895    0.62246933941359
C         0.51582880345103   -1.94925355120295    1.10377163833520
C         0.52852496996607   -1.80071001115356    2.64321459752690
O        -0.66259556443729   -1.51827142367003    3.14902793136186
O         1.52535095152854   -1.93267904024482    3.29579594716478
N        -0.67420962741155   -1.40879253315372    0.49611667846486
C        -1.83471992845332   -2.11187716465840    0.51182140838572
C        -2.98669006825116   -1.37989948335360   -0.11060047247745
C        -3.89976968239359   -0.74762987387570    0.72813293602891
C        -4.91148639846664    0.02233146812953    0.19289871302563
C        -5.01681647250153    0.13180395611577   -1.18817962161202
N        -6.02364782370645    0.99689957897952   -1.75250075121410
O        -6.11731652474620    1.03770653173175   -2.96002824405314
O        -6.70238895126889    1.64343091234944   -0.98454757778780
C        -4.15854861768097   -0.55702486859916   -2.03542804504461
C        -3.13891352592739   -1.31332950524250   -1.49091169769048
O        -1.91852057451744   -3.20870660490140    1.01876747821828
H        -1.56252370604060    1.53524123330056   -1.95066083770512
H        -3.20578090637237    3.29750907618794   -1.46790420971681
H        -4.63937899974300    4.48301116299043    0.15020806561662
H        -5.34597967067684    4.86529452525051    2.47735809645718
H        -4.32105691403313    3.58588970792012    4.31373745966503
H        -2.59286882021021    1.89773581180202    3.83889911237227
H        -1.26293970855114    0.63355045769918    2.21122253228141
H        -0.45640070302004   -0.37836297863684   -1.31065072355850
H         1.12654445715873    0.80912909239432    0.98402861055197
H         1.87838261562389    2.67895436816262   -0.24159056056173
H         2.85734890315753    4.60422584129223   -1.41054617901871
H         4.01825346936261    5.53580375915664   -3.37283021000959
H         4.61456752603799    4.08320862602431   -5.26868385973352
H         4.05347305963480    1.68611213000396   -5.22118757455472
H         3.05405326361718   -0.23977363521180   -4.05464033760112
H         1.89824472722418   -1.16773408459545   -2.09559415162301
H         2.34551298009053   -3.71023347537978   -0.52862113134969
H         3.13495118439608   -5.98070603051269    0.08373089446554
H         5.26922839335062   -4.36179605869910    3.40331093024761
H         4.47784838067687   -2.07328338297483    2.79213882852522
H         0.58978418195680   -3.03007240068627    0.90963917872653
H        -0.63554853320820   -1.51131564865467    4.12104560743330
H        -3.79477834650147   -0.84510921800330    1.79702062202120
H        -5.61041963267027    0.55214158058295    0.82143020086347
H        -4.29029069294565   -0.47243948260474   -3.10331645118919
H        -2.45787903275083   -1.84634577220978   -2.13690471382013

          :  Hamiltonian                  GFN2-xTB          :
         :: total energy            -138.722125276843 Eh    ::
         :: gradient norm              0.000479711295 Eh/a0 ::
         :: HOMO-LUMO gap              1.556254259723 eV    ::
         :: SCC energy              -140.721433405300 Eh    ::
         :: -> dispersion             -0.114862666352 Eh    ::
         :: repulsion energy           1.996417296357 Eh    ::

    * Orbital Energies and Occupations

         #    Occupation            Energy/Eh            Energy/eV
      -------------------------------------------------------------
         1        2.0000           -0.7927926             -21.5730
       ...           ...                  ...                  ...
       111        2.0000           -0.4424980             -12.0410
       112        2.0000           -0.4397550             -11.9663
       113        2.0000           -0.4385119             -11.9325
       114        2.0000           -0.4348125             -11.8318
       115        2.0000           -0.4327319             -11.7752
       116        2.0000           -0.4289501             -11.6723
       117        2.0000           -0.4278551             -11.6425
       118        2.0000           -0.4241338             -11.5413
       119        2.0000           -0.4217447             -11.4763
       120        2.0000           -0.4203492             -11.4383
       121        2.0000           -0.4101778             -11.1615
       122        2.0000           -0.4030314             -10.9670
       123        2.0000           -0.3918826             -10.6637 (HOMO)
       124                         -0.3346913              -9.1074 (LUMO)
       125                         -0.3271054              -8.9010
       126                         -0.2867097              -7.8018
       127                         -0.2817119              -7.6658
       128                         -0.2751037              -7.4860
       129                         -0.2733947              -7.4394
       130                         -0.2661550              -7.2424
       131                         -0.2633861              -7.1671
       132                         -0.2613047              -7.1105
       133                         -0.2546893              -6.9304
       134                         -0.2435159              -6.6264
       ...                                ...                  ...
       226                          0.6842182              18.6185
      -------------------------------------------------------------
                  HL-Gap            0.0571913 Eh            1.5563 eV

     #   Z          covCN         q      C6AA      Î±(0)
     1   6 C        2.919    -0.041    29.019     8.834
     2   6 C        2.918    -0.035    28.872     8.811
     3   6 C        2.988     0.013    27.716     8.636
     4   6 C        2.918    -0.030    28.750     8.793
     5   6 C        2.916    -0.025    28.625     8.773
     6   6 C        2.916    -0.026    28.656     8.778
     7   6 C        2.918    -0.035    28.873     8.811
     8   6 C        2.987     0.012    27.728     8.638
     9   6 C        2.923    -0.045    29.110     8.848
    10   6 C        2.968    -0.008    28.211     8.712
    11   6 C        3.822     0.035    19.973     6.360
    12   6 C        3.838     0.051    19.698     6.314
    13   6 C        2.970     0.010    27.801     8.649
    14   6 C        2.923    -0.035    28.873     8.812
    15   6 C        2.987     0.018    27.599     8.618
    16   6 C        2.918    -0.033    28.813     8.802
    17   6 C        2.916    -0.027    28.680     8.782
    18   6 C        2.916    -0.028    28.689     8.783
    19   6 C        2.918    -0.033    28.822     8.804
    20   6 C        2.988     0.015    27.659     8.627
    21   6 C        2.917    -0.032    28.804     8.801
    22   6 C        2.919    -0.033    28.820     8.803
    23   7 N        2.765    -0.124    23.693     7.229
    24   6 C        2.763     0.279    22.272     7.729
    25   6 C        2.975     0.002    27.968     8.675
    26   6 C        2.922    -0.027    28.677     8.782
    27   6 C        2.918    -0.020    28.516     8.757
    28   6 C        2.917     0.006    27.879     8.658
    29   7 N        2.759     0.547    13.510     5.459
    30   8 O        0.930    -0.383    21.314     6.191
    31   8 O        0.930    -0.380    21.256     6.183
    32   6 C        2.918    -0.016    28.416     8.741
    33   6 C        2.925    -0.006    28.178     8.705
    34   8 O        0.859    -0.396    21.604     6.232
    35   6 C        3.774     0.093    19.072     6.223
    36   6 C        2.687     0.354    20.997     7.499
    37   8 O        1.659    -0.348    19.863     6.016
    38   8 O        0.856    -0.390    21.488     6.215
    39   7 N        2.766    -0.109    23.386     7.182
    40   6 C        2.764     0.274    22.363     7.744
    41   6 C        2.978     0.004    27.935     8.670
    42   6 C        2.925    -0.016    28.409     8.741
    43   6 C        2.918    -0.018    28.455     8.747
    44   6 C        2.918     0.005    27.916     8.664
    45   7 N        2.760     0.547    13.512     5.460
    46   8 O        0.930    -0.381    21.273     6.186
    47   8 O        0.930    -0.382    21.299     6.189
    48   6 C        2.919    -0.019    28.494     8.753
    49   6 C        2.922    -0.022    28.561     8.764
    50   8 O        0.859    -0.413    21.951     6.282
    51   1 H        0.926     0.031     2.568     2.506
    52   1 H        0.926     0.044     2.394     2.419
    53   1 H        0.926     0.045     2.388     2.417
    54   1 H        0.926     0.043     2.415     2.430
    55   1 H        0.926     0.039     2.460     2.453
    56   1 H        0.926     0.033     2.539     2.492
    57   1 H        0.926     0.039     2.463     2.454
    58   1 H        0.923     0.050     2.320     2.382
    59   1 H        0.923     0.047     2.353     2.399
    60   1 H        0.926     0.036     2.505     2.475
    61   1 H        0.926     0.036     2.505     2.475
    62   1 H        0.926     0.036     2.503     2.474
    63   1 H        0.926     0.036     2.503     2.474
    64   1 H        0.926     0.036     2.500     2.472
    65   1 H        0.926     0.040     2.453     2.449
    66   1 H        0.926     0.026     2.642     2.542
    67   1 H        0.926     0.050     2.315     2.379
    68   1 H        0.926     0.085     1.925     2.170
    69   1 H        0.926     0.089     1.888     2.149
    70   1 H        0.926     0.079     1.987     2.204
    71   1 H        0.923     0.091     1.872     2.140
    72   1 H        0.804     0.348     0.593     1.210
    73   1 H        0.926     0.064     2.147     2.292
    74   1 H        0.926     0.085     1.929     2.172
    75   1 H        0.926     0.087     1.905     2.159
    76   1 H        0.926     0.056     2.242     2.342

Wiberg/Mayer (AO) data.
largest (>0.10) Wiberg bond orders for each atom

     #   Z sym  total        # sym  WBO       # sym  WBO       # sym  WBO
 ---------------------------------------------------------------------------
     1   6 C    3.990 --     2 C    1.561    10 C    1.295    51 H    0.968
     2   6 C    3.991 --     1 C    1.561     3 C    1.277    52 H    0.967
                             9 C    0.114
     3   6 C    3.990 --     4 C    1.282     2 C    1.277     8 C    1.248
     4   6 C    3.991 --     5 C    1.556     3 C    1.282    53 H    0.967
                             7 C    0.118
     5   6 C    3.989 --     4 C    1.556     6 C    1.320    54 H    0.970
     6   6 C    3.992 --     7 C    1.558     5 C    1.320    55 H    0.970
     7   6 C    3.990 --     6 C    1.558     8 C    1.278    56 H    0.968
                             4 C    0.118
     8   6 C    3.990 --     9 C    1.285     7 C    1.278     3 C    1.248
     9   6 C    3.989 --    10 C    1.520     8 C    1.285    57 H    0.962
                             2 C    0.114
    10   6 C    3.984 --     9 C    1.520     1 C    1.295    11 C    0.991
    11   6 C    3.960 --    10 C    0.991    39 N    0.957    58 H    0.952
                            12 C    0.951
    12   6 C    3.960 --    13 C    0.992    23 N    0.955    59 H    0.954
                            11 C    0.951
    13   6 C    3.983 --    14 C    1.528    22 C    1.291    12 C    0.992
    14   6 C    3.989 --    13 C    1.528    15 C    1.280    60 H    0.966
                            21 C    0.113
    15   6 C    3.990 --    14 C    1.280    16 C    1.279    20 C    1.251
    16   6 C    3.989 --    17 C    1.557    15 C    1.279    61 H    0.968
                            19 C    0.118
    17   6 C    3.992 --    16 C    1.557    18 C    1.321    62 H    0.971
    18   6 C    3.990 --    19 C    1.556    17 C    1.321    63 H    0.971
    19   6 C    3.992 --    18 C    1.556    20 C    1.282    64 H    0.968
                            16 C    0.118
    20   6 C    3.990 --    19 C    1.282    21 C    1.275    15 C    1.251
    21   6 C    3.991 --    22 C    1.566    20 C    1.275    65 H    0.968
                            14 C    0.113
    22   6 C    3.991 --    21 C    1.566    13 C    1.291    66 H    0.968
    23   7 N    3.426 --    24 C    1.177    35 C    0.989    12 C    0.955
                            34 O    0.182
    24   6 C    3.947 --    34 O    1.716    23 N    1.177    25 C    0.971
    25   6 C    3.986 --    33 C    1.395    26 C    1.391    24 C    0.971
    26   6 C    3.991 --    27 C    1.458    25 C    1.391    67 H    0.966
                            32 C    0.103
    27   6 C    3.985 --    26 C    1.458    28 C    1.380    68 H    0.959
                            33 C    0.105
    28   6 C    3.964 --    32 C    1.382    27 C    1.380    29 N    0.961
    29   7 N    3.912 --    31 O    1.456    30 O    1.452    28 C    0.961
    30   8 O    1.935 --    29 N    1.452    31 O    0.364
    31   8 O    1.939 --    29 N    1.456    30 O    0.364
    32   6 C    3.984 --    33 C    1.455    28 C    1.382    69 H    0.959
                            26 C    0.103
    33   6 C    3.985 --    32 C    1.455    25 C    1.395    70 H    0.964
                            27 C    0.105
    34   8 O    2.043 --    24 C    1.716    23 N    0.182
    35   6 C    3.969 --    39 N    0.989    23 N    0.989    71 H    0.924
                            36 C    0.908
    36   6 C    3.920 --    38 O    1.776    37 O    1.169    35 C    0.908
    37   8 O    2.238 --    36 C    1.169    72 H    0.852    38 O    0.184
    38   8 O    2.063 --    36 C    1.776    37 O    0.184
    39   7 N    3.470 --    40 C    1.214    35 C    0.989    11 C    0.957
                            50 O    0.196
    40   6 C    3.950 --    50 O    1.698    39 N    1.214    41 C    0.954
    41   6 C    3.987 --    49 C    1.403    42 C    1.395    40 C    0.954
    42   6 C    3.989 --    43 C    1.458    41 C    1.395    73 H    0.966
                            48 C    0.106
    43   6 C    3.985 --    42 C    1.458    44 C    1.378    74 H    0.959
                            49 C    0.103
    44   6 C    3.964 --    48 C    1.383    43 C    1.378    45 N    0.963
    45   7 N    3.913 --    47 O    1.453    46 O    1.453    44 C    0.963
    46   8 O    1.937 --    45 N    1.453    47 O    0.363
    47   8 O    1.937 --    45 N    1.453    46 O    0.363
    48   6 C    3.984 --    49 C    1.452    44 C    1.383    75 H    0.959
                            42 C    0.106
    49   6 C    3.990 --    48 C    1.452    41 C    1.403    76 H    0.967
                            43 C    0.103
    50   8 O    2.026 --    40 C    1.698    39 N    0.196
    51   1 H    0.999 --     1 C    0.968
    52   1 H    0.997 --     2 C    0.967
    53   1 H    0.998 --     4 C    0.967
    54   1 H    0.998 --     5 C    0.970
    55   1 H    0.998 --     6 C    0.970
    56   1 H    0.998 --     7 C    0.968
    57   1 H    0.998 --     9 C    0.962
    58   1 H    0.997 --    11 C    0.952
    59   1 H    0.997 --    12 C    0.954
    60   1 H    0.998 --    14 C    0.966
    61   1 H    0.998 --    16 C    0.968
    62   1 H    0.998 --    17 C    0.971
    63   1 H    0.998 --    18 C    0.971
    64   1 H    0.998 --    19 C    0.968
    65   1 H    0.998 --    21 C    0.968
    66   1 H    0.999 --    22 C    0.968
    67   1 H    0.997 --    26 C    0.966
    68   1 H    0.992 --    27 C    0.959
    69   1 H    0.992 --    32 C    0.959
    70   1 H    0.993 --    33 C    0.964
    71   1 H    0.991 --    35 C    0.924
    72   1 H    0.878 --    37 O    0.852
    73   1 H    0.995 --    42 C    0.966
    74   1 H    0.992 --    43 C    0.959
    75   1 H    0.992 --    48 C    0.959
    76   1 H    0.996 --    49 C    0.967
 ---------------------------------------------------------------------------

molecular dipole:
                 x           y           z       tot (Debye)
 q only:       -0.561       2.368      -0.233
   full:       -0.689       2.234      -0.023       5.943

           -------------------------------------------------
          | TOTAL ENERGY             -138.722125276843 Eh   |
          | GRADIENT NORM               0.000479711295 Eh/Î± |
          | HOMO-LUMO GAP               1.556254259723 eV   |
           -------------------------------------------------

 * finished run on 2022/03/16 at 22:19:12.130
