   * xtb version 6.3.3 (4ae9cef) compiled by 'conda@95abc7406d43' on 2020-10-14
          program call               : xtb acid_39.xyz --opt --chrg 0 --uhf 0 --gfn 2
          number of atoms            :                    66
          number of electrons        :                   238
          charge                     :                     0
          spin                       :                   0.0

   ID    Z sym.   atoms
    1    6 C      1, 2, 6-15, 19-22, 24-26, 28-31, 33, 34, 38-44
    2    9 F      3-5, 16-18
    3    7 N      23, 37
    4   17 Cl     27, 45
    5    8 O      32, 35, 36, 46
    6    1 H      47-66

          :  Hamiltonian                  GFN2-xTB          :
 * total energy  :  -138.3809394 Eh     change       -0.9570584E-08 Eh
 * total energy  :  -138.3978049 Eh     change       -0.1686552E-01 Eh
 * total energy  :  -138.4031700 Eh     change       -0.5365129E-02 Eh
 * total energy  :  -138.4046270 Eh     change       -0.1457020E-02 Eh
 * total energy  :  -138.4054154 Eh     change       -0.7883397E-03 Eh
 * total energy  :  -138.4057678 Eh     change       -0.3524169E-03 Eh
 * total energy  :  -138.4060859 Eh     change       -0.3181363E-03 Eh
 * total energy  :  -138.4065171 Eh     change       -0.4311964E-03 Eh
 * total energy  :  -138.4069845 Eh     change       -0.4674077E-03 Eh
 * total energy  :  -138.4073451 Eh     change       -0.3605683E-03 Eh
 * total energy  :  -138.4175341 Eh     change       -0.2031615E-04 Eh
 * total energy  :  -138.4175497 Eh     change       -0.1566356E-04 Eh
 * total energy  :  -138.4175629 Eh     change       -0.1316072E-04 Eh
 * total energy  :  -138.4175769 Eh     change       -0.1399773E-04 Eh
 * total energy  :  -138.4175869 Eh     change       -0.1000748E-04 Eh
 * total energy  :  -138.4175984 Eh     change       -0.1154534E-04 Eh
 * total energy  :  -138.4176087 Eh     change       -0.1024656E-04 Eh
 * total energy  :  -138.4176139 Eh     change       -0.5261730E-05 Eh
 * total energy  :  -138.4176181 Eh     change       -0.4196907E-05 Eh
   *** GEOMETRY OPTIMIZATION CONVERGED AFTER 45 ITERATIONS ***

 final structure:
================
66
 xtb: 6.3.3 (4ae9cef)
C         2.74936803631635   -2.64286853060813   -0.80579137719739
C         1.94079340262356   -3.41098895079988   -1.81379851365812
F         2.57816958328729   -4.48852883271949   -2.28613072581280
F         1.58828607064142   -2.69007486346432   -2.89182875752100
F         0.77984414542001   -3.87419565647412   -1.29415469118979
C         4.02272829962562   -3.09936617030060   -0.48818089044028
C         4.78633457632251   -2.43709551323351    0.45338140334745
C         4.27567728081068   -1.31877423637387    1.08837344194492
C         3.00926745425744   -0.86701800089295    0.77444505804638
C         2.22974182794675   -1.51073823038105   -0.17966997988249
C         0.85099663589089   -0.97102761602080   -0.46296917008577
C        -0.10945004405615   -1.18587140893006    0.72370927935993
C        -1.04429776421910   -2.34986534123009    0.51331424317834
C        -0.96453927773840   -3.53003922320634    1.25257702337324
C         0.10068275942502   -3.72390727479500    2.29451556931764
F         0.05937605290778   -4.92966847892316    2.87198824824873
F         1.34903049234052   -3.61084304660260    1.77947459186378
F         0.05169233661317   -2.83292890050314    3.30127095294837
C        -1.85860906181381   -4.56707253615713    1.01712852259653
C        -2.83373985558661   -4.43974557454237    0.04658273080891
C        -2.90994527942609   -3.27886729626751   -0.70217156489183
C        -2.01970555588332   -2.24826898192337   -0.47111818842403
N        -0.84402286509447    0.07378106236352    0.80122263750248
C        -1.91494623512092    0.20619243508452    1.62848342142814
C        -2.52842568192711    1.57495932247203    1.62701833091357
C        -3.67849901798524    1.82166144950876    0.88704520612042
Cl       -4.33742345702585    0.55343397597155   -0.08438086060138
C        -4.28559210395580    3.06560005902632    0.90555973169562
C        -3.73988063838174    4.07271395894960    1.68110876276533
C        -2.60210732002791    3.83816211950057    2.43463721758885
C        -2.00016006607996    2.59328754732960    2.40952735066825
O        -2.33143296539018   -0.70732713863108    2.30148604590751
C        -0.22962760772746    1.12788450068475    0.03293784074300
C        -1.20683893011717    1.72986688197075   -1.00572929231252
O        -1.64878180217979    0.80877565819301   -1.84361187774327
O        -1.50094943463377    2.89121769677929   -1.04389569015591
N         0.88680720467613    0.48066761230081   -0.61104316514539
C         1.76796892291329    1.07172611038500   -1.46408181543686
C         1.61482483215622    2.55965320783609   -1.57552849273068
C         2.10032250665225    3.40095562764296   -0.58302964866221
C         1.99732047048882    4.77356616511264   -0.71888367907384
C         1.40988817745592    5.31540111687945   -1.85011198375641
C         0.92976586166172    4.49154158496086   -2.85198812304395
C         1.03976886649518    3.11868232436496   -2.71077147884237
Cl        0.43437960826636    2.07337837994883   -3.94493797224550
O         2.62004548434687    0.44685055303606   -2.05058574737415
H         4.41266808611086   -3.97592614181319   -0.98116446474762
H         5.77492983104508   -2.79661635444173    0.69171347297661
H         4.86296418072005   -0.79914788041124    1.83014305953124
H         2.61403761826283    0.00730032067975    1.27088635875417
H         0.42716843465037   -1.40687231281869   -1.37342052420428
H         0.46343079855639   -1.30441430510313    1.64974078188273
H        -1.78817054699832   -5.47351920088290    1.59765223707466
H        -3.52750376403475   -5.24778695066768   -0.12517028751645
H        -3.66372093123815   -3.17355041471451   -1.46754558603785
H        -2.08388652082326   -1.34373753494306   -1.05595980387438
H        -5.17253968290066    3.23783749753334    0.31694116229477
H        -4.20866288041122    5.04429260626495    1.69677553748854
H        -2.18338665142121    4.62452256864694    3.04334860683313
H        -1.12171286453444    2.39812699387838    3.00711168594392
H         0.10430738056256    1.96469547651583    0.67058497836151
H        -2.23803700775963    1.18966979898834   -2.51694282553365
H         2.57065791968835    2.97135951820394    0.28940970830453
H         2.37680305698888    5.41984990938131    0.05733688703244
H         1.32568108815780    6.38588207091965   -1.95635022129863
H         0.47086553019323    4.90315578746074   -3.73648468741157

          :  Hamiltonian                  GFN2-xTB          :
         :: total energy            -138.417618134543 Eh    ::
         :: gradient norm              0.000663166374 Eh/a0 ::
         :: HOMO-LUMO gap              3.495411039257 eV    ::
         :: SCC energy              -140.013143001523 Eh    ::
         :: -> dispersion             -0.106380946492 Eh    ::
         :: repulsion energy           1.591266637666 Eh    ::

    * Orbital Energies and Occupations

         #    Occupation            Energy/Eh            Energy/eV
      -------------------------------------------------------------
         1        2.0000           -1.0703844             -29.1266
       ...           ...                  ...                  ...
       107        2.0000           -0.4383300             -11.9276
       108        2.0000           -0.4375791             -11.9071
       109        2.0000           -0.4364282             -11.8758
       110        2.0000           -0.4351655             -11.8415
       111        2.0000           -0.4329978             -11.7825
       112        2.0000           -0.4322742             -11.7628
       113        2.0000           -0.4301790             -11.7058
       114        2.0000           -0.4272798             -11.6269
       115        2.0000           -0.4164407             -11.3319
       116        2.0000           -0.4156540             -11.3105
       117        2.0000           -0.4142684             -11.2728
       118        2.0000           -0.4116925             -11.2027
       119        2.0000           -0.4104928             -11.1701 (HOMO)
       120                         -0.2820388              -7.6747 (LUMO)
       121                         -0.2648491              -7.2069
       122                         -0.2618404              -7.1250
       123                         -0.2592532              -7.0546
       124                         -0.2582863              -7.0283
       125                         -0.2557952              -6.9605
       126                         -0.2553578              -6.9486
       127                         -0.2544779              -6.9247
       128                         -0.2491684              -6.7802
       129                         -0.2362549              -6.4288
       130                         -0.2322324              -6.3194
       ...                                ...                  ...
       214                          0.6406286              17.4324
      -------------------------------------------------------------
                  HL-Gap            0.1284540 Eh            3.4954 eV

     #   Z          covCN         q      C6AA      Î±(0)
     1   6 C        2.977    -0.021    28.515     8.759
     2   6 C        3.335     0.486    17.291     6.586
     3   9 F        0.792    -0.199    11.225     3.958
     4   9 F        0.791    -0.203    11.269     3.965
     5   9 F        0.791    -0.223    11.474     4.001
     6   6 C        2.923    -0.017    28.438     8.745
     7   6 C        2.921    -0.020    28.495     8.754
     8   6 C        2.919    -0.016    28.405     8.740
     9   6 C        2.928    -0.022    28.560     8.764
    10   6 C        2.973     0.026    27.420     8.589
    11   6 C        3.822     0.048    19.762     6.326
    12   6 C        3.822     0.048    19.754     6.325
    13   6 C        2.972     0.025    27.445     8.593
    14   6 C        2.976    -0.022    28.550     8.765
    15   6 C        3.335     0.486    17.296     6.587
    16   9 F        0.792    -0.199    11.224     3.957
    17   9 F        0.791    -0.225    11.500     4.006
    18   9 F        0.791    -0.206    11.294     3.970
    19   6 C        2.923    -0.018    28.460     8.749
    20   6 C        2.920    -0.020    28.498     8.754
    21   6 C        2.919    -0.014    28.374     8.735
    22   6 C        2.927    -0.025    28.618     8.773
    23   7 N        2.766    -0.112    23.451     7.192
    24   6 C        2.762     0.279    22.275     7.729
    25   6 C        3.013    -0.029    28.714     8.790
    26   6 C        2.893     0.100    25.793     8.327
    27  17 Cl       0.968    -0.169   104.446    15.635
    28   6 C        2.953    -0.032    28.801     8.802
    29   6 C        2.923    -0.020    28.507     8.756
    30   6 C        2.918    -0.026    28.661     8.779
    31   6 C        2.925    -0.025    28.632     8.775
    32   8 O        0.859    -0.399    21.667     6.241
    33   6 C        3.748     0.088    19.191     6.248
    34   6 C        2.687     0.352    21.017     7.503
    35   8 O        1.659    -0.340    19.714     5.994
    36   8 O        0.856    -0.390    21.482     6.214
    37   7 N        2.767    -0.113    23.465     7.194
    38   6 C        2.762     0.279    22.273     7.729
    39   6 C        3.013    -0.030    28.727     8.792
    40   6 C        2.925    -0.027    28.670     8.781
    41   6 C        2.918    -0.028    28.704     8.786
    42   6 C        2.923    -0.021    28.528     8.759
    43   6 C        2.953    -0.032    28.785     8.800
    44   6 C        2.892     0.102    25.741     8.318
    45  17 Cl       0.969    -0.164   104.292    15.624
    46   8 O        0.859    -0.398    21.643     6.237
    47   1 H        0.926     0.071     2.078     2.254
    48   1 H        0.926     0.060     2.201     2.320
    49   1 H        0.926     0.056     2.242     2.342
    50   1 H        0.926     0.044     2.394     2.420
    51   1 H        0.924     0.072     2.058     2.244
    52   1 H        0.924     0.066     2.131     2.283
    53   1 H        0.926     0.068     2.102     2.267
    54   1 H        0.926     0.058     2.220     2.330
    55   1 H        0.926     0.056     2.243     2.342
    56   1 H        0.926     0.064     2.157     2.296
    57   1 H        0.926     0.068     2.110     2.271
    58   1 H        0.926     0.058     2.217     2.329
    59   1 H        0.926     0.055     2.259     2.350
    60   1 H        0.926     0.047     2.354     2.399
    61   1 H        0.923     0.063     2.165     2.301
    62   1 H        0.804     0.353     0.581     1.197
    63   1 H        0.926     0.045     2.386     2.416
    64   1 H        0.926     0.054     2.271     2.357
    65   1 H        0.926     0.058     2.222     2.331
    66   1 H        0.926     0.069     2.096     2.264

Wiberg/Mayer (AO) data.
largest (>0.10) Wiberg bond orders for each atom

     #   Z sym  total        # sym  WBO       # sym  WBO       # sym  WBO
 ---------------------------------------------------------------------------
     1   6 C    3.971 --     6 C    1.412    10 C    1.388     2 C    0.952
                             8 C    0.105
     2   6 C    3.822 --     3 F    0.957     1 C    0.952     4 F    0.946
                             5 F    0.929
     3   9 F    1.080 --     2 C    0.957
     4   9 F    1.077 --     2 C    0.946
     5   9 F    1.056 --     2 C    0.929
     6   6 C    3.986 --     7 C    1.444     1 C    1.412    47 H    0.965
                             9 C    0.109
     7   6 C    3.988 --     6 C    1.444     8 C    1.432    48 H    0.969
                            10 C    0.109
     8   6 C    3.990 --     9 C    1.450     7 C    1.432    49 H    0.969
                             1 C    0.105
     9   6 C    3.990 --     8 C    1.450    10 C    1.408    50 H    0.967
                             6 C    0.109
    10   6 C    3.986 --     9 C    1.408     1 C    1.388    11 C    0.994
                             7 C    0.109
    11   6 C    3.964 --    10 C    0.994    12 C    0.953    37 N    0.953
                            51 H    0.951
    12   6 C    3.964 --    13 C    0.993    11 C    0.953    23 N    0.952
                            52 H    0.952
    13   6 C    3.986 --    22 C    1.411    14 C    1.385    12 C    0.993
                            20 C    0.108
    14   6 C    3.970 --    19 C    1.413    13 C    1.385    15 C    0.952
                            21 C    0.105
    15   6 C    3.820 --    16 F    0.958    14 C    0.952    18 F    0.944
                            17 F    0.927
    16   9 F    1.081 --    15 C    0.958
    17   9 F    1.053 --    15 C    0.927
    18   9 F    1.075 --    15 C    0.944
    19   6 C    3.987 --    20 C    1.443    14 C    1.413    53 H    0.965
                            22 C    0.109
    20   6 C    3.989 --    19 C    1.443    21 C    1.434    54 H    0.969
                            13 C    0.108
    21   6 C    3.990 --    22 C    1.447    20 C    1.434    55 H    0.969
                            14 C    0.105
    22   6 C    3.988 --    21 C    1.447    13 C    1.411    56 H    0.961
                            19 C    0.109
    23   7 N    3.458 --    24 C    1.201    33 C    0.987    12 C    0.952
                            32 O    0.195
    24   6 C    3.948 --    32 O    1.714    23 N    1.201    25 C    0.950
    25   6 C    3.985 --    31 C    1.405    26 C    1.376    24 C    0.950
                            29 C    0.108
    26   6 C    3.921 --    28 C    1.405    25 C    1.376    27 Cl   0.976
                            30 C    0.100
    27  17 Cl   1.118 --    26 C    0.976
    28   6 C    3.987 --    29 C    1.441    26 C    1.405    57 H    0.965
                            31 C    0.109
    29   6 C    3.990 --    28 C    1.441    30 C    1.433    58 H    0.968
                            25 C    0.108
    30   6 C    3.991 --    31 C    1.442    29 C    1.433    59 H    0.968
                            26 C    0.100
    31   6 C    3.989 --    30 C    1.442    25 C    1.405    60 H    0.968
                            28 C    0.109
    32   8 O    2.049 --    24 C    1.714    23 N    0.195
    33   6 C    3.970 --    37 N    0.987    23 N    0.987    61 H    0.944
                            34 C    0.902
    34   6 C    3.924 --    36 O    1.774    35 O    1.180    33 C    0.902
    35   8 O    2.249 --    34 C    1.180    62 H    0.847    36 O    0.189
    36   8 O    2.060 --    34 C    1.774    35 O    0.189
    37   7 N    3.456 --    38 C    1.197    33 C    0.987    11 C    0.953
                            46 O    0.192
    38   6 C    3.948 --    46 O    1.716    37 N    1.197    39 C    0.952
    39   6 C    3.985 --    40 C    1.404    44 C    1.376    38 C    0.952
                            42 C    0.108
    40   6 C    3.990 --    41 C    1.442    39 C    1.404    63 H    0.968
                            43 C    0.109
    41   6 C    3.991 --    40 C    1.442    42 C    1.432    64 H    0.969
                            44 C    0.100
    42   6 C    3.990 --    43 C    1.442    41 C    1.432    65 H    0.968
                            39 C    0.108
    43   6 C    3.987 --    42 C    1.442    44 C    1.404    66 H    0.965
                            40 C    0.109
    44   6 C    3.922 --    43 C    1.404    39 C    1.376    45 Cl   0.980
                            41 C    0.100
    45  17 Cl   1.123 --    44 C    0.980
    46   8 O    2.050 --    38 C    1.716    37 N    0.192
    47   1 H    0.995 --     6 C    0.965
    48   1 H    0.996 --     7 C    0.969
    49   1 H    0.996 --     8 C    0.969
    50   1 H    0.998 --     9 C    0.967
    51   1 H    0.994 --    11 C    0.951
    52   1 H    0.995 --    12 C    0.952
    53   1 H    0.995 --    19 C    0.965
    54   1 H    0.996 --    20 C    0.969
    55   1 H    0.996 --    21 C    0.969
    56   1 H    0.996 --    22 C    0.961
    57   1 H    0.995 --    28 C    0.965
    58   1 H    0.996 --    29 C    0.968
    59   1 H    0.996 --    30 C    0.968
    60   1 H    0.998 --    31 C    0.968
    61   1 H    0.996 --    33 C    0.944
    62   1 H    0.875 --    35 O    0.847
    63   1 H    0.998 --    40 C    0.968
    64   1 H    0.996 --    41 C    0.969
    65   1 H    0.996 --    42 C    0.968
    66   1 H    0.995 --    43 C    0.965
 ---------------------------------------------------------------------------

molecular dipole:
                 x           y           z       tot (Debye)
 q only:       -0.111       2.489       0.497
   full:       -0.241       2.446       0.322       6.300

           -------------------------------------------------
          | TOTAL ENERGY             -138.417618134543 Eh   |
          | GRADIENT NORM               0.000663166374 Eh/Î± |
          | HOMO-LUMO GAP               3.495411039257 eV   |
           -------------------------------------------------

 * finished run on 2022/03/17 at 00:37:02.488
