   * xtb version 6.3.3 (4ae9cef) compiled by 'conda@95abc7406d43' on 2020-10-14
          program call               : xtb acid_153.xyz --opt --chrg 0 --uhf 0 --gfn 2
          number of atoms            :                    66
          number of electrons        :                   238
          charge                     :                     0
          spin                       :                   0.0

   ID    Z sym.   atoms
    1    6 C      1, 2, 6-15, 19-22, 24-26, 28-31, 33, 34, 38-44
    2    9 F      3-5, 16-18
    3    7 N      23, 37
    4   53 I      27, 45
    5    8 O      32, 35, 36, 46
    6    1 H      47-66

          :  Hamiltonian                  GFN2-xTB          :
 * total energy  :  -136.8978565 Eh     change       -0.8566019E-09 Eh
 * total energy  :  -136.9149452 Eh     change       -0.1708876E-01 Eh
 * total energy  :  -136.9201083 Eh     change       -0.5163053E-02 Eh
 * total energy  :  -136.9216405 Eh     change       -0.1532250E-02 Eh
 * total energy  :  -136.9225388 Eh     change       -0.8982070E-03 Eh
 * total energy  :  -136.9229653 Eh     change       -0.4265110E-03 Eh
 * total energy  :  -136.9233408 Eh     change       -0.3754928E-03 Eh
 * total energy  :  -136.9238086 Eh     change       -0.4678138E-03 Eh
 * total energy  :  -136.9243250 Eh     change       -0.5163888E-03 Eh
 * total energy  :  -136.9247421 Eh     change       -0.4171451E-03 Eh
 * total energy  :  -136.9270610 Eh     change       -0.1680075E-04 Eh
 * total energy  :  -136.9270731 Eh     change       -0.1211211E-04 Eh
 * total energy  :  -136.9270845 Eh     change       -0.1143883E-04 Eh
 * total energy  :  -136.9270945 Eh     change       -0.9927089E-05 Eh
 * total energy  :  -136.9271020 Eh     change       -0.7568773E-05 Eh
 * total energy  :  -136.9271086 Eh     change       -0.6531492E-05 Eh
 * total energy  :  -136.9271148 Eh     change       -0.6220345E-05 Eh
 * total energy  :  -136.9271206 Eh     change       -0.5799190E-05 Eh
 * total energy  :  -136.9271234 Eh     change       -0.2825832E-05 Eh
   *** GEOMETRY OPTIMIZATION CONVERGED AFTER 44 ITERATIONS ***

 final structure:
================
66
 xtb: 6.3.3 (4ae9cef)
C        -2.55816660818510   -2.85437604813636   -0.45298588817269
C        -2.80235017486266   -3.24597342774830    0.97718184965852
F        -3.62056932396395   -4.29654982264807    1.10289408383860
F        -3.34173841894882   -2.26905736488857    1.72949317114402
F        -1.66050508122359   -3.59582791096365    1.61818386037572
C        -3.21677942458175   -3.55437935724942   -1.45571852239717
C        -2.99352608759420   -3.24412208302059   -2.78410557306840
C        -2.09516940589386   -2.24597130800689   -3.11546690531838
C        -1.43543441715861   -1.55140638584731   -2.11920211622952
C        -1.66700923147448   -1.83114284372606   -0.77828140097712
C        -0.94335012964665   -1.02047730346115    0.26799469570908
C         0.57446462772723   -1.28252067110500    0.28542429582147
C         0.99691234594297   -2.10299514418529    1.47703756202996
C         1.41075072469504   -3.43057819863463    1.37637121142904
C         1.45650272429080   -4.12888655562815    0.04457454632127
F         2.30960425982463   -3.56922946093182   -0.82755192565571
F         0.25350732961117   -4.13473946834107   -0.57420152412057
F         1.81816143304094   -5.41381761502442    0.14226637624481
C         1.77251616464268   -4.14097333623273    2.51397686410217
C         1.72322302112591   -3.53947983470755    3.75702335889992
C         1.30555463519343   -2.22509957410285    3.86835839693700
C         0.94429800529412   -1.51953705071807    2.73726399712428
N         1.16022107927272    0.05441269531177    0.34414547192000
C         2.51557288624187    0.19639598176044    0.35984199145351
C         2.99173654487664    1.58479482292841    0.06058608643476
C         3.65959999026285    1.84185373549679   -1.13099649880908
I         3.94678162309525    0.30476364979093   -2.54692527682140
C         4.12389015826773    3.11742133326185   -1.41288863448411
C         3.93687179484166    4.13550721467016   -0.49533958620612
C         3.29551435737720    3.88339200198401    0.70662784310128
C         2.82731667645192    2.61193012771625    0.98268381585044
O         3.26041137122181   -0.72235159449889    0.60512698656608
C         0.22289619076707    1.08463111357607   -0.02291991462416
C         0.53638803687237    1.62656535628831   -1.43552152503277
O         0.51266807847972    2.95783218768455   -1.47481039093004
O         0.76580915610897    0.92905367037754   -2.37995571099696
N        -1.05241399428232    0.41252923335354   -0.00083706338826
C        -2.27680163055701    0.98972030490023   -0.12139713660921
C        -2.26944717620554    2.48374485308872   -0.23698590539515
C        -2.10110725558039    3.25696987653274    0.90586532090022
C        -2.17978433828146    4.63607532366837    0.83686586525643
C        -2.43417108773051    5.25256130028272   -0.37678304426347
C        -2.61079463832702    4.49423596943749   -1.52056179928944
C        -2.53288727093674    3.11419963997333   -1.44316955054821
I        -2.76575295852818    1.96020962121847   -3.20029605250385
O        -3.30003916562422    0.34603114175426   -0.10689779164822
H        -3.90502376736999   -4.34197404920667   -1.19179778881945
H        -3.51615720735134   -3.78721854055079   -3.55579947354128
H        -1.90458621333724   -2.00183548601607   -4.14902546663598
H        -0.73020061963911   -0.78098654220465   -2.39110592481698
H        -1.36741111100467   -1.19981174966861    1.26148882019927
H         0.88675113357930   -1.75234878417207   -0.65300695512499
H         2.09176308030006   -5.16712769071706    2.42184857648247
H         2.00735881421435   -4.09804883362274    4.63494014510347
H         1.25856531190238   -1.74979781130308    4.83645739689320
H         0.61941297461555   -0.49293487911519    2.82612621943820
H         4.63453649714917    3.30875361165858   -2.34422396021012
H         4.30230404776578    5.12622453017512   -0.71824782329653
H         3.16401724363143    4.67446566866489    1.42842532327415
H         2.34503763930046    2.40140607416438    1.92643938141483
H         0.24922498382286    1.93397960477904    0.67789751230711
H         0.69266901359139    3.27777897898807   -2.37588908559984
H        -1.92650991553741    2.76604484348670    1.85258451958695
H        -2.04961569994724    5.22774202886015    1.72982653314690
H        -2.50091517945035    6.32799288740186   -0.43659913832187
H        -2.81459642216786    4.97235634312173   -2.46633172511108

          :  Hamiltonian                  GFN2-xTB          :
         :: total energy            -136.927123402431 Eh    ::
         :: gradient norm              0.000261886969 Eh/a0 ::
         :: HOMO-LUMO gap              3.104071555384 eV    ::
         :: SCC energy              -138.527444899023 Eh    ::
         :: -> dispersion             -0.111644799540 Eh    ::
         :: repulsion energy           1.595717698765 Eh    ::

    * Orbital Energies and Occupations

         #    Occupation            Energy/Eh            Energy/eV
      -------------------------------------------------------------
         1        2.0000           -0.8733631             -23.7654
       ...           ...                  ...                  ...
       107        2.0000           -0.4444638             -12.0945
       108        2.0000           -0.4396506             -11.9635
       109        2.0000           -0.4373234             -11.9002
       110        2.0000           -0.4334676             -11.7953
       111        2.0000           -0.4317364             -11.7481
       112        2.0000           -0.4296562             -11.6915
       113        2.0000           -0.4218100             -11.4780
       114        2.0000           -0.4208761             -11.4526
       115        2.0000           -0.4157254             -11.3125
       116        2.0000           -0.4148582             -11.2889
       117        2.0000           -0.4139857             -11.2651
       118        2.0000           -0.4086950             -11.1212
       119        2.0000           -0.4054428             -11.0327 (HOMO)
       120                         -0.2913702              -7.9286 (LUMO)
       121                         -0.2730811              -7.4309
       122                         -0.2714361              -7.3862
       123                         -0.2681826              -7.2976
       124                         -0.2667753              -7.2593
       125                         -0.2646991              -7.2028
       126                         -0.2584633              -7.0331
       127                         -0.2544588              -6.9242
       128                         -0.2493583              -6.7854
       129                         -0.2458272              -6.6893
       130                         -0.2404979              -6.5443
       ...                                ...                  ...
       214                          0.6388336              17.3835
      -------------------------------------------------------------
                  HL-Gap            0.1140725 Eh            3.1041 eV

     #   Z          covCN         q      C6AA      Î±(0)
     1   6 C        2.976    -0.022    28.542     8.763
     2   6 C        3.335     0.486    17.296     6.588
     3   9 F        0.792    -0.199    11.226     3.958
     4   9 F        0.791    -0.206    11.300     3.971
     5   9 F        0.791    -0.226    11.504     4.007
     6   6 C        2.923    -0.018    28.463     8.749
     7   6 C        2.920    -0.019    28.490     8.753
     8   6 C        2.919    -0.014    28.360     8.733
     9   6 C        2.926    -0.026    28.650     8.778
    10   6 C        2.972     0.021    27.525     8.606
    11   6 C        3.821     0.050    19.722     6.320
    12   6 C        3.823     0.050    19.727     6.321
    13   6 C        2.973     0.025    27.451     8.594
    14   6 C        2.976    -0.019    28.481     8.754
    15   6 C        3.335     0.486    17.290     6.587
    16   9 F        0.791    -0.200    11.232     3.959
    17   9 F        0.791    -0.221    11.457     3.998
    18   9 F        0.792    -0.199    11.228     3.958
    19   6 C        2.923    -0.017    28.432     8.744
    20   6 C        2.921    -0.020    28.503     8.755
    21   6 C        2.919    -0.017    28.432     8.744
    22   6 C        2.927    -0.023    28.581     8.767
    23   7 N        2.767    -0.121    23.619     7.218
    24   6 C        2.795     0.280    22.261     7.729
    25   6 C        3.096    -0.028    28.585     8.762
    26   6 C        2.958     0.054    26.780     8.488
    27  53 I        1.254    -0.086   378.309    33.576
    28   6 C        3.055    -0.033    28.766     8.796
    29   6 C        2.922    -0.026    28.648     8.777
    30   6 C        2.918    -0.028    28.695     8.784
    31   6 C        2.924    -0.029    28.732     8.790
    32   8 O        0.859    -0.391    21.498     6.217
    33   6 C        3.747     0.094    19.095     6.233
    34   6 C        2.688     0.348    21.098     7.517
    35   8 O        1.659    -0.377    20.412     6.099
    36   8 O        0.860    -0.355    20.804     6.115
    37   7 N        2.765    -0.118    23.558     7.209
    38   6 C        2.788     0.278    22.298     7.735
    39   6 C        3.101    -0.023    28.456     8.742
    40   6 C        2.926    -0.026    28.662     8.780
    41   6 C        2.918    -0.026    28.659     8.779
    42   6 C        2.923    -0.024    28.613     8.772
    43   6 C        3.050    -0.031    28.717     8.789
    44   6 C        2.959     0.056    26.742     8.482
    45  53 I        1.244    -0.112   380.216    33.660
    46   8 O        0.859    -0.397    21.622     6.234
    47   1 H        0.926     0.068     2.109     2.271
    48   1 H        0.926     0.059     2.213     2.327
    49   1 H        0.926     0.062     2.172     2.305
    50   1 H        0.926     0.071     2.079     2.255
    51   1 H        0.924     0.067     2.115     2.274
    52   1 H        0.924     0.076     2.020     2.223
    53   1 H        0.926     0.072     2.068     2.249
    54   1 H        0.926     0.059     2.205     2.322
    55   1 H        0.926     0.055     2.258     2.350
    56   1 H        0.926     0.042     2.416     2.431
    57   1 H        0.926     0.062     2.176     2.307
    58   1 H        0.926     0.052     2.298     2.370
    59   1 H        0.926     0.049     2.332     2.388
    60   1 H        0.926     0.039     2.468     2.457
    61   1 H        0.923     0.061     2.189     2.314
    62   1 H        0.804     0.351     0.585     1.202
    63   1 H        0.926     0.042     2.424     2.435
    64   1 H        0.926     0.050     2.314     2.379
    65   1 H        0.926     0.053     2.288     2.365
    66   1 H        0.926     0.061     2.190     2.314

Wiberg/Mayer (AO) data.
largest (>0.10) Wiberg bond orders for each atom

     #   Z sym  total        # sym  WBO       # sym  WBO       # sym  WBO
 ---------------------------------------------------------------------------
     1   6 C    3.969 --     6 C    1.415    10 C    1.383     2 C    0.952
                             8 C    0.106
     2   6 C    3.820 --     3 F    0.958     1 C    0.952     4 F    0.944
                             5 F    0.926
     3   9 F    1.080 --     2 C    0.958
     4   9 F    1.074 --     2 C    0.944
     5   9 F    1.053 --     2 C    0.926
     6   6 C    3.987 --     7 C    1.441     1 C    1.415    47 H    0.966
                             9 C    0.108
     7   6 C    3.988 --     6 C    1.441     8 C    1.437    48 H    0.969
                            10 C    0.108
     8   6 C    3.989 --     9 C    1.442     7 C    1.437    49 H    0.968
                             1 C    0.106
     9   6 C    3.987 --     8 C    1.442    10 C    1.415    50 H    0.958
                             6 C    0.108
    10   6 C    3.986 --     9 C    1.415     1 C    1.383    11 C    0.991
                             7 C    0.108
    11   6 C    3.962 --    10 C    0.991    12 C    0.956    51 H    0.952
                            37 N    0.949
    12   6 C    3.962 --    13 C    0.993    11 C    0.956    52 H    0.951
                            23 N    0.951
    13   6 C    3.986 --    22 C    1.410    14 C    1.387    12 C    0.993
                            20 C    0.109
    14   6 C    3.972 --    19 C    1.415    13 C    1.387    15 C    0.951
                            21 C    0.105
    15   6 C    3.824 --    18 F    0.956    14 C    0.951    16 F    0.949
                            17 F    0.930
    16   9 F    1.081 --    15 C    0.949
    17   9 F    1.057 --    15 C    0.930
    18   9 F    1.079 --    15 C    0.956
    19   6 C    3.986 --    20 C    1.443    14 C    1.415    53 H    0.965
                            22 C    0.109
    20   6 C    3.988 --    19 C    1.443    21 C    1.433    54 H    0.969
                            13 C    0.109
    21   6 C    3.990 --    22 C    1.448    20 C    1.433    55 H    0.969
                            14 C    0.105
    22   6 C    3.991 --    21 C    1.448    13 C    1.410    56 H    0.968
                            19 C    0.109
    23   7 N    3.445 --    24 C    1.190    33 C    0.990    12 C    0.951
                            32 O    0.188
    24   6 C    3.947 --    32 O    1.720    23 N    1.190    25 C    0.956
    25   6 C    3.987 --    31 C    1.399    26 C    1.388    24 C    0.956
                            29 C    0.106
    26   6 C    3.964 --    28 C    1.412    25 C    1.388    27 I    0.996
                            30 C    0.101
    27  53 I    1.168 --    26 C    0.996
    28   6 C    3.989 --    29 C    1.444    26 C    1.412    57 H    0.966
                            31 C    0.109
    29   6 C    3.990 --    28 C    1.444    30 C    1.428    58 H    0.968
                            25 C    0.106
    30   6 C    3.991 --    31 C    1.445    29 C    1.428    59 H    0.969
                            26 C    0.101
    31   6 C    3.991 --    30 C    1.445    25 C    1.399    60 H    0.967
                            28 C    0.109
    32   8 O    2.059 --    24 C    1.720    23 N    0.188
    33   6 C    3.972 --    23 N    0.990    37 N    0.985    61 H    0.944
                            34 C    0.904
    34   6 C    3.922 --    36 O    1.787    35 O    1.145    33 C    0.904
    35   8 O    2.208 --    34 C    1.145    62 H    0.850    36 O    0.181
    36   8 O    2.097 --    34 C    1.787    35 O    0.181
    37   7 N    3.459 --    38 C    1.202    33 C    0.985    11 C    0.949
                            46 O    0.193
    38   6 C    3.947 --    46 O    1.710    37 N    1.202    39 C    0.953
    39   6 C    3.986 --    40 C    1.399    44 C    1.398    38 C    0.953
                            42 C    0.108
    40   6 C    3.990 --    41 C    1.443    39 C    1.399    63 H    0.967
                            43 C    0.109
    41   6 C    3.991 --    40 C    1.443    42 C    1.433    64 H    0.969
                            44 C    0.102
    42   6 C    3.990 --    43 C    1.440    41 C    1.433    65 H    0.968
                            39 C    0.108
    43   6 C    3.989 --    42 C    1.440    44 C    1.418    66 H    0.966
                            40 C    0.109
    44   6 C    3.958 --    43 C    1.418    39 C    1.398    45 I    0.978
                            41 C    0.102
    45  53 I    1.119 --    44 C    0.978
    46   8 O    2.053 --    38 C    1.710    37 N    0.193
    47   1 H    0.995 --     6 C    0.966
    48   1 H    0.996 --     7 C    0.969
    49   1 H    0.995 --     8 C    0.968
    50   1 H    0.995 --     9 C    0.958
    51   1 H    0.995 --    11 C    0.952
    52   1 H    0.994 --    12 C    0.951
    53   1 H    0.994 --    19 C    0.965
    54   1 H    0.996 --    20 C    0.969
    55   1 H    0.996 --    21 C    0.969
    56   1 H    0.998 --    22 C    0.968
    57   1 H    0.996 --    28 C    0.966
    58   1 H    0.997 --    29 C    0.968
    59   1 H    0.996 --    30 C    0.969
    60   1 H    0.998 --    31 C    0.967
    61   1 H    0.996 --    33 C    0.944
    62   1 H    0.876 --    35 O    0.850
    63   1 H    0.998 --    40 C    0.967
    64   1 H    0.996 --    41 C    0.969
    65   1 H    0.997 --    42 C    0.968
    66   1 H    0.996 --    43 C    0.966
 ---------------------------------------------------------------------------

molecular dipole:
                 x           y           z       tot (Debye)
 q only:        0.414       3.256       0.544
   full:        0.309       4.037       1.615      11.080

           -------------------------------------------------
          | TOTAL ENERGY             -136.927123402431 Eh   |
          | GRADIENT NORM               0.000261886969 Eh/Î± |
          | HOMO-LUMO GAP               3.104071555384 eV   |
           -------------------------------------------------

 * finished run on 2022/03/16 at 21:54:09.134
