   * xtb version 6.3.3 (4ae9cef) compiled by 'conda@95abc7406d43' on 2020-10-14
          program call               : xtb acid_49.xyz --opt --chrg 0 --uhf 0 --gfn 2
          number of atoms            :                    66
          number of electrons        :                   266
          charge                     :                     0
          spin                       :                   0.0

   ID    Z sym.   atoms
    1    6 C      1, 2, 6-15, 19-22, 24-27, 32, 33, 35, 36, 40-43, 48, 49
    2    9 F      3-5, 16-18, 28-30, 44-46
    3    7 N      23, 39
    4    8 O      31, 34, 37, 38, 47, 50
    5    1 H      51-66

          :  Hamiltonian                  GFN2-xTB          :
 * total energy  :  -159.4850614 Eh     change       -0.2111108E-08 Eh
 * total energy  :  -159.5014797 Eh     change       -0.1641829E-01 Eh
 * total energy  :  -159.5061692 Eh     change       -0.4689503E-02 Eh
 * total energy  :  -159.5071886 Eh     change       -0.1019379E-02 Eh
 * total energy  :  -159.5078087 Eh     change       -0.6201145E-03 Eh
 * total energy  :  -159.5081652 Eh     change       -0.3564758E-03 Eh
 * total energy  :  -159.5084990 Eh     change       -0.3337879E-03 Eh
 * total energy  :  -159.5088048 Eh     change       -0.3057872E-03 Eh
 * total energy  :  -159.5091425 Eh     change       -0.3377410E-03 Eh
 * total energy  :  -159.5095063 Eh     change       -0.3638081E-03 Eh
 * total energy  :  -159.5119389 Eh     change       -0.1294308E-04 Eh
 * total energy  :  -159.5119502 Eh     change       -0.1126191E-04 Eh
 * total energy  :  -159.5119606 Eh     change       -0.1040391E-04 Eh
 * total energy  :  -159.5119713 Eh     change       -0.1072062E-04 Eh
 * total energy  :  -159.5119820 Eh     change       -0.1070572E-04 Eh
 * total energy  :  -159.5119917 Eh     change       -0.9661883E-05 Eh
 * total energy  :  -159.5120008 Eh     change       -0.9063736E-05 Eh
 * total energy  :  -159.5120104 Eh     change       -0.9647827E-05 Eh
 * total energy  :  -159.5120139 Eh     change       -0.3550453E-05 Eh
   *** GEOMETRY OPTIMIZATION CONVERGED AFTER 44 ITERATIONS ***

 final structure:
================
66
 xtb: 6.3.3 (4ae9cef)
C        -1.16085325413312    2.59900190243542    2.31303598139237
C        -1.42045781247018    3.76817599908244    1.40066595897000
F        -0.45756370402619    3.93764338590441    0.46702759811446
F        -2.56964672673719    3.64742648560965    0.70944338345766
F        -1.50278173983770    4.93176294413230    2.05280115500564
C        -1.15455003591558    2.81820220839255    3.68396360871897
C        -0.94093447031331    1.76612962955892    4.55572674760632
C        -0.73763843847991    0.49308562783998    4.05744015343703
C        -0.73996046680823    0.27566556042434    2.69148779805486
C        -0.95087875494744    1.31533098236625    1.79857682429486
C        -0.92408306417914    1.07925785838694    0.30522136201364
C         0.48632412864227    1.31447198300116   -0.27005687298525
C         0.48153887990307    1.79775448286596   -1.70882335087536
C         1.62700416562006    2.36654961494870   -2.28361993248883
C         2.93634374816050    2.40780420548699   -1.53880741223897
F         3.92288518070867    2.96633785138996   -2.24631235150936
F         2.89733715265155    3.05506476757880   -0.37259348357532
F         3.36149483868306    1.14121047554569   -1.26954315971200
C         1.61093813768065    2.83382067368407   -3.59159492550629
C         0.46434348065104    2.72789480241517   -4.35695689658526
C        -0.65881673494656    2.13023020630610   -3.81790067059811
C        -0.64870829545447    1.67335538201551   -2.51095795004332
N         1.08932431979359   -0.02231351972705   -0.16685186439305
C         2.01169061391406   -0.25785447040866    0.83906621105774
C         2.51723846537684   -1.65109326366538    0.90580142586617
C         2.99010973827893   -2.26027116598829    2.04636006231320
C         2.97520926530196   -1.80699226458468    3.47404669754674
F         3.21862112714290   -2.82739002288932    4.30541721379470
F         3.87434711122129   -0.86215190698542    3.74185812670952
F         1.77015034271302   -1.31839507421023    3.81370215264187
O         3.47878964207315   -3.47501802412366    1.77008274954602
C         3.35324156221941   -3.66303647667864    0.45345575882818
C         2.76781288432537   -2.58639273723834   -0.13904431588410
O         2.44397338092952    0.61576582312055    1.54543050762443
C         0.04846169401943   -0.95589803959853   -0.51915521802861
C         0.05672448294217   -1.22891791405448   -2.05588482897639
O         1.21266561464509   -0.95704677096056   -2.64770646446612
O        -0.87208398447995   -1.71352805392034   -2.62639089748034
N        -1.16716641123578   -0.31490661110732   -0.05213302032051
C        -2.41119118091408   -0.84492085076214    0.08069082808074
C        -2.54325349353752   -2.27291365936609   -0.31599155399180
C        -3.25000837367469   -2.74173623874189   -1.39199123232769
C        -3.95029990545120   -1.98998197777801   -2.47701012827295
F        -3.53104671172707   -0.72110828979816   -2.54512818116113
F        -3.76192570264970   -2.53727088541789   -3.68055758768303
F        -5.28102155151809   -1.94305819241505   -2.29049749697651
O        -3.23247671484900   -4.08189014196362   -1.42658477299720
C        -2.52810409254774   -4.49282708448653   -0.37024773224494
C        -2.07354192886410   -3.43237334893615    0.35467671461555
O        -3.33968945625123   -0.19280776206840    0.49450764237780
H        -1.31826719743173    3.81381386795882    4.06565152465684
H        -0.93691793832664    1.94395019351791    5.61927008479080
H        -0.56839787956723   -0.33460120170307    4.72703524924888
H        -0.58358078716683   -0.72541164728978    2.31993654438121
H        -1.68533229880720    1.70412490973399   -0.16532646952319
H         1.06291197805479    1.99007457132097    0.36556030273258
H         2.50127867216577    3.27685488443041   -4.00934125852079
H         0.45859128186799    3.09766147989374   -5.36976295786744
H        -1.55389600196624    2.01196173347203   -4.40746093388050
H        -1.54676571734388    1.20679940818954   -2.14032407972225
H         3.71166740099114   -4.58981876249765    0.05153763717552
H         2.57054330963505   -2.47078209227718   -1.18399434515641
H         0.19349371971581   -1.93241858857796   -0.03502050022518
H         1.83164061975279   -0.48686576493379   -2.05665637823587
H        -2.41871424785068   -5.55018181789048   -0.23158242671484
H        -1.50614086537546   -3.46500827797897    1.26233264612389

          :  Hamiltonian                  GFN2-xTB          :
         :: total energy            -159.512013949219 Eh    ::
         :: gradient norm              0.000343927582 Eh/a0 ::
         :: HOMO-LUMO gap              3.130881478857 eV    ::
         :: SCC energy              -160.971935585400 Eh    ::
         :: -> dispersion             -0.100363654750 Eh    ::
         :: repulsion energy           1.455439373182 Eh    ::

    * Orbital Energies and Occupations

         #    Occupation            Energy/Eh            Energy/eV
      -------------------------------------------------------------
         1        2.0000           -0.9052918             -24.6342
       ...           ...                  ...                  ...
       121        2.0000           -0.4698392             -12.7850
       122        2.0000           -0.4684356             -12.7468
       123        2.0000           -0.4666540             -12.6983
       124        2.0000           -0.4621243             -12.5750
       125        2.0000           -0.4617696             -12.5654
       126        2.0000           -0.4563907             -12.4190
       127        2.0000           -0.4523761             -12.3098
       128        2.0000           -0.4479264             -12.1887
       129        2.0000           -0.4460656             -12.1381
       130        2.0000           -0.4459743             -12.1356
       131        2.0000           -0.4379587             -11.9175
       132        2.0000           -0.4324628             -11.7679
       133        2.0000           -0.4279035             -11.6438 (HOMO)
       134                         -0.3128457              -8.5130 (LUMO)
       135                         -0.2887887              -7.8583
       136                         -0.2828123              -7.6957
       137                         -0.2736116              -7.4453
       138                         -0.2728396              -7.4243
       139                         -0.2714858              -7.3875
       140                         -0.2701715              -7.3517
       141                         -0.2615059              -7.1159
       142                         -0.2495604              -6.7909
       143                         -0.2129817              -5.7955
       144                         -0.2109615              -5.7406
       ...                                ...                  ...
       216                          0.6470799              17.6079
      -------------------------------------------------------------
                  HL-Gap            0.1150578 Eh            3.1309 eV

     #   Z          covCN         q      C6AA      Î±(0)
     1   6 C        2.977    -0.029    28.729     8.792
     2   6 C        3.335     0.484    17.322     6.593
     3   9 F        0.791    -0.220    11.447     3.997
     4   9 F        0.791    -0.207    11.305     3.972
     5   9 F        0.792    -0.196    11.195     3.952
     6   6 C        2.923    -0.019    28.474     8.751
     7   6 C        2.920    -0.019    28.483     8.752
     8   6 C        2.919    -0.014    28.374     8.735
     9   6 C        2.925    -0.020    28.496     8.754
    10   6 C        2.970     0.016    27.639     8.624
    11   6 C        3.827     0.039    19.906     6.348
    12   6 C        3.852     0.033    19.978     6.357
    13   6 C        2.966     0.003    27.952     8.672
    14   6 C        2.977    -0.033    28.825     8.807
    15   6 C        3.335     0.486    17.300     6.589
    16   9 F        0.792    -0.196    11.197     3.953
    17   9 F        0.791    -0.192    11.153     3.945
    18   9 F        0.790    -0.233    11.585     4.021
    19   6 C        2.923    -0.021    28.537     8.760
    20   6 C        2.919    -0.018    28.457     8.748
    21   6 C        2.919    -0.013    28.331     8.728
    22   6 C        2.924    -0.030    28.747     8.793
    23   7 N        2.764    -0.147    24.183     7.304
    24   6 C        2.758     0.280    22.268     7.728
    25   6 C        3.068    -0.042    28.967     8.825
    26   6 C        3.142     0.091    25.742     8.302
    27   6 C        3.330     0.492    17.294     6.600
    28   9 F        0.792    -0.188    11.116     3.938
    29   9 F        0.791    -0.176    10.990     3.916
    30   9 F        0.791    -0.200    11.230     3.959
    31   8 O        1.730    -0.131    16.275     5.447
    32   6 C        3.079     0.082    26.092     8.374
    33   6 C        3.017    -0.067    29.639     8.930
    34   8 O        0.859    -0.369    21.061     6.153
    35   6 C        3.775     0.071    19.418     6.279
    36   6 C        2.684     0.348    21.093     7.516
    37   8 O        1.658    -0.352    19.941     6.028
    38   8 O        0.856    -0.351    20.731     6.105
    39   7 N        2.767    -0.116    23.524     7.204
    40   6 C        2.757     0.278    22.294     7.732
    41   6 C        3.074    -0.035    28.800     8.799
    42   6 C        3.148     0.094    25.656     8.286
    43   6 C        3.330     0.492    17.284     6.597
    44   9 F        0.791    -0.194    11.169     3.948
    45   9 F        0.792    -0.183    11.062     3.929
    46   9 F        0.791    -0.194    11.172     3.948
    47   8 O        1.730    -0.133    16.304     5.452
    48   6 C        3.086     0.079    26.142     8.381
    49   6 C        3.022    -0.064    29.562     8.919
    50   8 O        0.860    -0.391    21.509     6.218
    51   1 H        0.926     0.072     2.065     2.247
    52   1 H        0.926     0.063     2.163     2.300
    53   1 H        0.926     0.066     2.135     2.285
    54   1 H        0.926     0.036     2.505     2.475
    55   1 H        0.924     0.092     1.864     2.135
    56   1 H        0.924     0.105     1.743     2.064
    57   1 H        0.926     0.073     2.056     2.242
    58   1 H        0.926     0.066     2.132     2.284
    59   1 H        0.926     0.071     2.069     2.250
    60   1 H        0.926     0.068     2.104     2.268
    61   1 H        0.926     0.090     1.877     2.142
    62   1 H        0.927     0.072     2.067     2.248
    63   1 H        0.923     0.069     2.102     2.267
    64   1 H        0.803     0.345     0.600     1.216
    65   1 H        0.926     0.082     1.955     2.187
    66   1 H        0.926     0.056     2.250     2.346

Wiberg/Mayer (AO) data.
largest (>0.10) Wiberg bond orders for each atom

     #   Z sym  total        # sym  WBO       # sym  WBO       # sym  WBO
 ---------------------------------------------------------------------------
     1   6 C    3.970 --     6 C    1.422    10 C    1.374     2 C    0.951
                             8 C    0.108
     2   6 C    3.822 --     5 F    0.960     1 C    0.951     4 F    0.942
                             3 F    0.931
     3   9 F    1.058 --     2 C    0.931
     4   9 F    1.073 --     2 C    0.942
     5   9 F    1.083 --     2 C    0.960
     6   6 C    3.987 --     7 C    1.435     1 C    1.422    51 H    0.965
                             9 C    0.107
     7   6 C    3.988 --     8 C    1.443     6 C    1.435    52 H    0.968
                            10 C    0.108
     8   6 C    3.988 --     7 C    1.443     9 C    1.435    53 H    0.968
                             1 C    0.108
     9   6 C    3.991 --     8 C    1.435    10 C    1.424    54 H    0.967
                             6 C    0.107
    10   6 C    3.986 --     9 C    1.424     1 C    1.374    11 C    0.989
                             7 C    0.108
    11   6 C    3.961 --    10 C    0.989    39 N    0.961    12 C    0.960
                            55 H    0.941
    12   6 C    3.957 --    13 C    0.988    11 C    0.960    23 N    0.948
                            56 H    0.944
    13   6 C    3.985 --    22 C    1.422    14 C    1.375    12 C    0.988
                            20 C    0.108
    14   6 C    3.969 --    19 C    1.422    13 C    1.375    15 C    0.949
                            21 C    0.107
    15   6 C    3.821 --    17 F    0.961    16 F    0.960    14 C    0.949
                            18 F    0.914
    16   9 F    1.083 --    15 C    0.960
    17   9 F    1.093 --    15 C    0.961
    18   9 F    1.045 --    15 C    0.914
    19   6 C    3.986 --    20 C    1.435    14 C    1.422    57 H    0.964
                            22 C    0.106
    20   6 C    3.988 --    21 C    1.443    19 C    1.435    58 H    0.968
                            13 C    0.108
    21   6 C    3.987 --    20 C    1.443    22 C    1.433    59 H    0.967
                            14 C    0.107
    22   6 C    3.988 --    21 C    1.433    13 C    1.422    60 H    0.959
                            19 C    0.106
    23   7 N    3.405 --    24 C    1.134    35 C    0.992    12 C    0.948
                            34 O    0.172
    24   6 C    3.951 --    34 O    1.749    23 N    1.134    25 C    0.994
    25   6 C    3.976 --    26 C    1.504    33 C    1.264    24 C    0.994
    26   6 C    3.909 --    25 C    1.504    31 O    1.152    27 C    0.952
                            32 C    0.140
    27   6 C    3.856 --    29 F    0.966    28 F    0.958    26 C    0.952
                            30 F    0.944
    28   9 F    1.085 --    27 C    0.958
    29   9 F    1.103 --    27 C    0.966
    30   9 F    1.075 --    27 C    0.944
    31   8 O    2.496 --    26 C    1.152    32 C    1.151
    32   6 C    3.902 --    33 C    1.605    31 O    1.151    61 H    0.960
                            26 C    0.140
    33   6 C    3.980 --    32 C    1.605    25 C    1.264    62 H    0.967
    34   8 O    2.079 --    24 C    1.749    23 N    0.172
    35   6 C    3.967 --    23 N    0.992    39 N    0.978    63 H    0.933
                            36 C    0.896
    36   6 C    3.928 --    38 O    1.802    37 O    1.166    35 C    0.896
    37   8 O    2.237 --    36 C    1.166    64 H    0.831    38 O    0.175
    38   8 O    2.093 --    36 C    1.802    37 O    0.175
    39   7 N    3.462 --    40 C    1.199    35 C    0.978    11 C    0.961
                            50 O    0.196
    40   6 C    3.955 --    50 O    1.713    39 N    1.199    41 C    0.966
    41   6 C    3.979 --    42 C    1.528    49 C    1.274    40 C    0.966
    42   6 C    3.909 --    41 C    1.528    47 O    1.140    43 C    0.956
                            48 C    0.145
    43   6 C    3.854 --    45 F    0.962    42 C    0.956    44 F    0.955
                            46 F    0.945
    44   9 F    1.082 --    43 C    0.955
    45   9 F    1.092 --    43 C    0.962
    46   9 F    1.081 --    43 C    0.945
    47   8 O    2.492 --    48 C    1.158    42 C    1.140
    48   6 C    3.903 --    49 C    1.593    47 O    1.158    65 H    0.962
                            42 C    0.145
    49   6 C    3.979 --    48 C    1.593    41 C    1.274    66 H    0.973
    50   8 O    2.047 --    40 C    1.713    39 N    0.196
    51   1 H    0.994 --     6 C    0.965
    52   1 H    0.995 --     7 C    0.968
    53   1 H    0.995 --     8 C    0.968
    54   1 H    0.998 --     9 C    0.967
    55   1 H    0.991 --    11 C    0.941
    56   1 H    0.988 --    12 C    0.944
    57   1 H    0.994 --    19 C    0.964
    58   1 H    0.995 --    20 C    0.968
    59   1 H    0.994 --    21 C    0.967
    60   1 H    0.995 --    22 C    0.959
    61   1 H    0.991 --    32 C    0.960
    62   1 H    0.994 --    33 C    0.967
    63   1 H    0.995 --    35 C    0.933
    64   1 H    0.881 --    37 O    0.831
    65   1 H    0.992 --    48 C    0.962
    66   1 H    0.997 --    49 C    0.973
 ---------------------------------------------------------------------------

molecular dipole:
                 x           y           z       tot (Debye)
 q only:        1.074      -1.920      -0.327
   full:        1.371      -2.220      -0.140       6.640

           -------------------------------------------------
          | TOTAL ENERGY             -159.512013949219 Eh   |
          | GRADIENT NORM               0.000343927582 Eh/Î± |
          | HOMO-LUMO GAP               3.130881478857 eV   |
           -------------------------------------------------

 * finished run on 2022/03/17 at 01:45:24.944
