   * xtb version 6.3.3 (4ae9cef) compiled by 'conda@95abc7406d43' on 2020-10-14
          program call               : xtb acid_55.xyz --opt --chrg 0 --uhf 0 --gfn 2
          number of atoms            :                    72
          number of electrons        :                   218
          charge                     :                     0
          spin                       :                   0.0

   ID    Z sym.   atoms
    1    6 C      1-22, 24-26, 28-30, 32, 33, 37-39, 41-43
    2    7 N      23, 36
    3    8 O      27, 31, 34, 35, 40, 44
    4    1 H      45-72

          :  Hamiltonian                  GFN2-xTB          :
 * total energy  :  -121.6323528 Eh     change       -0.4067218E-08 Eh
 * total energy  :  -121.6475753 Eh     change       -0.1522246E-01 Eh
 * total energy  :  -121.6527809 Eh     change       -0.5205601E-02 Eh
 * total energy  :  -121.6548661 Eh     change       -0.2085242E-02 Eh
 * total energy  :  -121.6563998 Eh     change       -0.1533714E-02 Eh
 * total energy  :  -121.6572289 Eh     change       -0.8290393E-03 Eh
 * total energy  :  -121.6579708 Eh     change       -0.7418968E-03 Eh
 * total energy  :  -121.6586825 Eh     change       -0.7116842E-03 Eh
 * total energy  :  -121.6592856 Eh     change       -0.6031241E-03 Eh
 * total energy  :  -121.6598840 Eh     change       -0.5984164E-03 Eh
 * total energy  :  -121.6742010 Eh     change       -0.7924250E-05 Eh
 * total energy  :  -121.6742073 Eh     change       -0.6364665E-05 Eh
 * total energy  :  -121.6742133 Eh     change       -0.6031482E-05 Eh
 * total energy  :  -121.6742210 Eh     change       -0.7656472E-05 Eh
 * total energy  :  -121.6742309 Eh     change       -0.9879428E-05 Eh
 * total energy  :  -121.6742419 Eh     change       -0.1106462E-04 Eh
 * total energy  :  -121.6742519 Eh     change       -0.9950191E-05 Eh
 * total energy  :  -121.6742592 Eh     change       -0.7326245E-05 Eh
 * total energy  :  -121.6742622 Eh     change       -0.2985519E-05 Eh
   *** GEOMETRY OPTIMIZATION CONVERGED AFTER 185 ITERATIONS ***

 final structure:
================
72
 xtb: 6.3.3 (4ae9cef)
C        -1.97382455625341    2.56771792811255    0.15674638268076
C        -2.57188800853045    3.53325631155005    0.91399843379864
C        -2.67330880212926    3.39588975380689    2.31395142907693
C        -3.29718100955659    4.36767789441379    3.12316416140652
C        -3.38046349408294    4.20029654031199    4.47704217928645
C        -2.84269380282222    3.05422674262883    5.08376721782270
C        -2.23061480586650    2.09507999585861    4.32699176346849
C        -2.13002151620523    2.23693820253291    2.92714281074157
C        -1.50727439025400    1.26506781856178    2.11969623038433
C        -1.43932938240843    1.41435971866302    0.75982115912874
C        -0.74965253017685    0.39493434738330   -0.10539782617945
C         0.77750053608305    0.59541084013629   -0.11084497350831
C         1.22980997498690    1.33688530948912   -1.33935928377915
C         1.64123045800783    2.63914357101483   -1.25491792499610
C         2.02527514823501    3.35456121629586   -2.40672626952899
C         2.45488685760274    4.69646976601487   -2.34542248566428
C         2.82880509329630    5.36204155318994   -3.47901584731896
C         2.78890593779777    4.71773605664460   -4.72547937557780
C         2.37507152960605    3.41826490222929   -4.81765291186407
C         1.98330391037595    2.70380691208923   -3.66703102574134
C         1.54889199937828    1.36273382348285   -3.72452471414966
C         1.17517189675312    0.69704028065423   -2.59355132412426
N         1.30246899485201   -0.76202443646408   -0.04592747323840
C         2.61140761859794   -1.03286685441395   -0.29244025079823
C         2.93474978298487   -2.48401836176765   -0.32061410988541
C         3.14916667294556   -3.23206361574041   -1.44204270991089
O         3.45034052735341   -4.49637624454293   -1.11756982635226
C         3.45383847801100   -4.56938568124518    0.22561156881647
C         3.14541737474471   -3.36495830399103    0.78441964422321
C         3.05071794018635   -3.02427447037068    2.23107239347287
O         3.43076171543057   -0.16262432943322   -0.48361954466552
C         0.29289629072781   -1.73865256779896    0.27688796701937
C         0.15452557921588   -2.78937056102595   -0.84455056726908
O         0.27618315595901   -4.03010101622079   -0.37992416325547
O        -0.07236558821293   -2.52308731539665   -1.99130026210918
N        -0.92212059944415   -0.96530605525540    0.38594036113840
C        -2.17878200785311   -1.48884310066665    0.48812423921864
C        -2.22829967930674   -2.91268110757274    0.89547217949537
C        -1.78974259844234   -3.49559504898403    2.04923086370729
O        -2.07485057912238   -4.80338905736242    2.05810960500102
C        -2.70075992546145   -5.07975594800649    0.89822221198241
C        -2.84120680511404   -3.95929449810877    0.13687056784619
C        -3.46417367350662   -3.80577235363872   -1.20326700651106
O        -3.16974953531697   -0.82597295498372    0.27684609633506
H        -1.90473600724189    2.67656435266615   -0.91564175638485
H        -2.98409785436621    4.41635415950155    0.44748076266229
H        -3.71100266321807    5.24737350609330    2.65108844465229
H        -3.86167176622375    4.94751194930506    5.09098647180381
H        -2.91861141809684    2.93778269336638    6.15507237922940
H        -1.81710325277263    1.21035948006949    4.79031002946833
H        -1.09533617755117    0.38414359936087    2.59283370014922
H        -1.14328804539654    0.46226180944381   -1.12895139038244
H         1.09185379948363    1.14459909095973    0.78770040999193
H         1.68095143744009    3.13672274303596   -0.29611008575667
H         2.48499835692505    5.18731061409802   -1.38310986932189
H         3.15896020871391    6.38925755317733   -3.42487826977009
H         3.08938768633066    5.25887399561540   -5.61090646224924
H         2.34315132698597    2.91793727612386   -5.77521839756368
H         1.51488633902382    0.86853950942668   -4.68495184965245
H         0.84097229117335   -0.32916316321554   -2.64968880095480
H         3.10403067615217   -2.97464984616320   -2.48139810164059
H         3.69095196214973   -5.51642441997722    0.66739992812017
H         3.85256812096011   -3.50684830130236    2.78500817656990
H         3.12496516440626   -1.94847997288901    2.36950961614197
H         2.10360385209061   -3.37036020142805    2.64688365753508
H         0.51919827729335   -2.26815559214949    1.21451042309328
H         0.16842193728450   -4.68498912175145   -1.08997435537679
H        -1.31082714817494   -3.08860426180419    2.91799150089329
H        -3.00430659906270   -6.09423252075109    0.73322998756074
H        -2.71763117861212   -3.50773788538718   -1.93974457944790
H        -4.21831396605280   -3.02186539533777   -1.16708141472417
H        -3.92500354267534   -4.73721125215544   -1.52030274430903

          :  Hamiltonian                  GFN2-xTB          :
         :: total energy            -121.674262210896 Eh    ::
         :: gradient norm              0.000304528254 Eh/a0 ::
         :: HOMO-LUMO gap              2.736597495721 eV    ::
         :: SCC energy              -123.501213512534 Eh    ::
         :: -> dispersion             -0.102076298832 Eh    ::
         :: repulsion energy           1.824775201186 Eh    ::

    * Orbital Energies and Occupations

         #    Occupation            Energy/Eh            Energy/eV
      -------------------------------------------------------------
         1        2.0000           -0.7813978             -21.2629
       ...           ...                  ...                  ...
        97        2.0000           -0.4190132             -11.4019
        98        2.0000           -0.4171638             -11.3516
        99        2.0000           -0.4131433             -11.2422
       100        2.0000           -0.4117747             -11.2050
       101        2.0000           -0.4099100             -11.1542
       102        2.0000           -0.4061112             -11.0508
       103        2.0000           -0.4055121             -11.0345
       104        2.0000           -0.4040959             -10.9960
       105        2.0000           -0.4014607             -10.9243
       106        2.0000           -0.3972092             -10.8086
       107        2.0000           -0.3934308             -10.7058
       108        2.0000           -0.3804799             -10.3534
       109        2.0000           -0.3756292             -10.2214 (HOMO)
       110                         -0.2750611              -7.4848 (LUMO)
       111                         -0.2623145              -7.1379
       112                         -0.2570687              -6.9952
       113                         -0.2427060              -6.6044
       114                         -0.2324178              -6.3244
       115                         -0.2311066              -6.2887
       116                         -0.2268724              -6.1735
       117                         -0.2209206              -6.0116
       118                         -0.2171272              -5.9083
       119                         -0.1911009              -5.2001
       120                         -0.1862480              -5.0681
       ...                                ...                  ...
       204                          0.6993892              19.0313
      -------------------------------------------------------------
                  HL-Gap            0.1005681 Eh            2.7366 eV

     #   Z          covCN         q      C6AA      Î±(0)
     1   6 C        2.920    -0.031    28.779     8.797
     2   6 C        2.918    -0.032    28.788     8.798
     3   6 C        2.988     0.015    27.678     8.630
     4   6 C        2.918    -0.033    28.827     8.804
     5   6 C        2.916    -0.029    28.733     8.790
     6   6 C        2.916    -0.029    28.724     8.789
     7   6 C        2.918    -0.034    28.844     8.807
     8   6 C        2.987     0.016    27.642     8.624
     9   6 C        2.922    -0.036    28.906     8.817
    10   6 C        2.970     0.012    27.748     8.640
    11   6 C        3.828     0.047    19.764     6.326
    12   6 C        3.823     0.047    19.776     6.328
    13   6 C        2.971     0.011    27.763     8.643
    14   6 C        2.922    -0.036    28.890     8.814
    15   6 C        2.987     0.017    27.617     8.620
    16   6 C        2.918    -0.033    28.832     8.805
    17   6 C        2.916    -0.029    28.731     8.790
    18   6 C        2.916    -0.030    28.740     8.791
    19   6 C        2.918    -0.034    28.840     8.807
    20   6 C        2.987     0.015    27.680     8.630
    21   6 C        2.918    -0.032    28.805     8.801
    22   6 C        2.918    -0.034    28.847     8.808
    23   7 N        2.766    -0.111    23.426     7.188
    24   6 C        2.758     0.275    22.350     7.742
    25   6 C        3.080    -0.062    29.455     8.898
    26   6 C        3.067     0.070    26.362     8.419
    27   8 O        1.729    -0.172    16.886     5.548
    28   6 C        3.080     0.055    26.675     8.467
    29   6 C        3.057    -0.012    28.252     8.717
    30   6 C        3.754    -0.108    22.622     6.782
    31   8 O        0.859    -0.410    21.876     6.271
    32   6 C        3.751     0.088    19.177     6.245
    33   6 C        2.688     0.351    21.032     7.505
    34   8 O        1.659    -0.369    20.265     6.077
    35   8 O        0.856    -0.385    21.375     6.199
    36   7 N        2.765    -0.121    23.631     7.220
    37   6 C        2.760     0.275    22.342     7.741
    38   6 C        3.079    -0.062    29.457     8.898
    39   6 C        3.065     0.067    26.440     8.432
    40   8 O        1.729    -0.169    16.851     5.543
    41   6 C        3.078     0.053    26.734     8.477
    42   6 C        3.057    -0.007    28.131     8.698
    43   6 C        3.754    -0.110    22.665     6.789
    44   8 O        0.859    -0.407    21.815     6.262
    45   1 H        0.926     0.036     2.505     2.475
    46   1 H        0.926     0.040     2.451     2.448
    47   1 H        0.926     0.034     2.527     2.486
    48   1 H        0.926     0.032     2.553     2.499
    49   1 H        0.926     0.032     2.559     2.502
    50   1 H        0.926     0.030     2.581     2.512
    51   1 H        0.925     0.028     2.613     2.528
    52   1 H        0.923     0.062     2.179     2.309
    53   1 H        0.923     0.053     2.286     2.364
    54   1 H        0.926     0.034     2.531     2.488
    55   1 H        0.926     0.033     2.542     2.493
    56   1 H        0.926     0.031     2.567     2.505
    57   1 H        0.926     0.031     2.569     2.507
    58   1 H        0.926     0.033     2.546     2.495
    59   1 H        0.926     0.037     2.484     2.465
    60   1 H        0.926     0.044     2.395     2.420
    61   1 H        0.926     0.059     2.210     2.325
    62   1 H        0.926     0.056     2.243     2.342
    63   1 H        0.925     0.055     2.258     2.350
    64   1 H        0.925     0.052     2.291     2.367
    65   1 H        0.924     0.046     2.375     2.410
    66   1 H        0.923     0.066     2.134     2.285
    67   1 H        0.804     0.346     0.598     1.215
    68   1 H        0.926     0.048     2.344     2.394
    69   1 H        0.926     0.054     2.268     2.355
    70   1 H        0.925     0.053     2.284     2.364
    71   1 H        0.925     0.071     2.074     2.252
    72   1 H        0.925     0.045     2.377     2.411

Wiberg/Mayer (AO) data.
largest (>0.10) Wiberg bond orders for each atom

     #   Z sym  total        # sym  WBO       # sym  WBO       # sym  WBO
 ---------------------------------------------------------------------------
     1   6 C    3.990 --     2 C    1.563    10 C    1.295    45 H    0.968
     2   6 C    3.991 --     1 C    1.563     3 C    1.277    46 H    0.968
                             9 C    0.115
     3   6 C    3.990 --     4 C    1.282     2 C    1.277     8 C    1.250
     4   6 C    3.992 --     5 C    1.557     3 C    1.282    47 H    0.968
                             7 C    0.118
     5   6 C    3.990 --     4 C    1.557     6 C    1.321    48 H    0.971
     6   6 C    3.992 --     7 C    1.558     5 C    1.321    49 H    0.971
     7   6 C    3.990 --     6 C    1.558     8 C    1.279    50 H    0.968
                             4 C    0.118
     8   6 C    3.990 --     9 C    1.283     7 C    1.279     3 C    1.250
     9   6 C    3.990 --    10 C    1.525     8 C    1.283    51 H    0.966
                             2 C    0.115
    10   6 C    3.984 --     9 C    1.525     1 C    1.295    11 C    0.990
    11   6 C    3.958 --    10 C    0.990    36 N    0.955    12 C    0.952
                            52 H    0.951
    12   6 C    3.958 --    13 C    0.990    53 H    0.954    11 C    0.952
                            23 N    0.952
    13   6 C    3.984 --    14 C    1.528    22 C    1.291    12 C    0.990
    14   6 C    3.989 --    13 C    1.528    15 C    1.280    54 H    0.966
                            21 C    0.114
    15   6 C    3.990 --    14 C    1.280    16 C    1.280    20 C    1.252
    16   6 C    3.989 --    17 C    1.557    15 C    1.280    55 H    0.968
                            19 C    0.118
    17   6 C    3.992 --    16 C    1.557    18 C    1.322    56 H    0.971
    18   6 C    3.990 --    19 C    1.555    17 C    1.322    57 H    0.971
    19   6 C    3.992 --    18 C    1.555    20 C    1.283    58 H    0.968
                            16 C    0.118
    20   6 C    3.990 --    19 C    1.283    21 C    1.275    15 C    1.252
    21   6 C    3.991 --    22 C    1.567    20 C    1.275    59 H    0.968
                            14 C    0.114
    22   6 C    3.990 --    21 C    1.567    13 C    1.291    60 H    0.965
    23   7 N    3.463 --    24 C    1.204    32 C    0.988    12 C    0.952
                            31 O    0.195
    24   6 C    3.949 --    31 O    1.702    23 N    1.204    25 C    0.965
    25   6 C    3.976 --    26 C    1.565    29 C    1.233    24 C    0.965
    26   6 C    3.912 --    25 C    1.565    27 O    1.148    61 H    0.966
                            28 C    0.149
    27   8 O    2.455 --    26 C    1.148    28 C    1.126
    28   6 C    3.900 --    29 C    1.585    27 O    1.126    62 H    0.966
                            26 C    0.149
    29   6 C    3.982 --    28 C    1.585    25 C    1.233    30 C    1.031
    30   6 C    3.996 --    29 C    1.031    64 H    0.983    63 H    0.977
                            65 H    0.968
    31   8 O    2.033 --    24 C    1.702    23 N    0.195
    32   6 C    3.972 --    23 N    0.988    36 N    0.984    66 H    0.943
                            33 C    0.909
    33   6 C    3.918 --    35 O    1.776    34 O    1.151    32 C    0.909
    34   8 O    2.214 --    33 C    1.151    67 H    0.853    35 O    0.180
    35   8 O    2.064 --    33 C    1.776    34 O    0.180
    36   7 N    3.443 --    37 C    1.185    32 C    0.984    11 C    0.955
                            44 O    0.186
    37   6 C    3.948 --    44 O    1.706    36 N    1.185    38 C    0.979
    38   6 C    3.977 --    39 C    1.563    42 C    1.226    37 C    0.979
    39   6 C    3.912 --    38 C    1.563    40 O    1.150    68 H    0.966
                            41 C    0.146
    40   8 O    2.457 --    39 C    1.150    41 C    1.122
    41   6 C    3.899 --    42 C    1.588    40 O    1.122    69 H    0.966
                            39 C    0.146
    42   6 C    3.983 --    41 C    1.588    38 C    1.226    43 C    1.036
    43   6 C    3.994 --    42 C    1.036    72 H    0.985    71 H    0.969
                            70 H    0.969
    44   8 O    2.036 --    37 C    1.706    36 N    0.186
    45   1 H    0.998 --     1 C    0.968
    46   1 H    0.997 --     2 C    0.968
    47   1 H    0.998 --     4 C    0.968
    48   1 H    0.999 --     5 C    0.971
    49   1 H    0.999 --     6 C    0.971
    50   1 H    0.999 --     7 C    0.968
    51   1 H    0.999 --     9 C    0.966
    52   1 H    0.995 --    11 C    0.951
    53   1 H    0.996 --    12 C    0.954
    54   1 H    0.998 --    14 C    0.966
    55   1 H    0.998 --    16 C    0.968
    56   1 H    0.999 --    17 C    0.971
    57   1 H    0.999 --    18 C    0.971
    58   1 H    0.998 --    19 C    0.968
    59   1 H    0.998 --    21 C    0.968
    60   1 H    0.998 --    22 C    0.965
    61   1 H    0.996 --    26 C    0.966
    62   1 H    0.996 --    28 C    0.966
    63   1 H    0.997 --    30 C    0.977
    64   1 H    0.997 --    30 C    0.983
    65   1 H    0.998 --    30 C    0.968
    66   1 H    0.995 --    32 C    0.943
    67   1 H    0.880 --    34 O    0.853
    68   1 H    0.997 --    39 C    0.966
    69   1 H    0.997 --    41 C    0.966
    70   1 H    0.997 --    43 C    0.969
    71   1 H    0.995 --    43 C    0.969
    72   1 H    0.998 --    43 C    0.985
 ---------------------------------------------------------------------------

molecular dipole:
                 x           y           z       tot (Debye)
 q only:       -0.129      -0.662       0.581
   full:       -0.048      -1.274       0.643       3.630

           -------------------------------------------------
          | TOTAL ENERGY             -121.674262210896 Eh   |
          | GRADIENT NORM               0.000304528254 Eh/Î± |
          | HOMO-LUMO GAP               2.736597495721 eV   |
           -------------------------------------------------

 * finished run on 2022/03/17 at 01:50:30.049
