   * xtb version 6.3.3 (4ae9cef) compiled by 'conda@95abc7406d43' on 2020-10-14
          program call               : xtb acid_199.xyz --opt --chrg 0 --uhf 0 --gfn 2
          number of atoms            :                    76
          number of electrons        :                   230
          charge                     :                     0
          spin                       :                   0.0

   ID    Z sym.   atoms
    1    6 C      1, 2, 6-15, 19-22, 24-29, 31, 32, 36-41
    2    9 F      3-5, 16-18
    3    7 N      23, 35
    4    8 O      30, 33, 34, 42
    5    1 H      43-76

          :  Hamiltonian                  GFN2-xTB          :
 * total energy  :  -132.1857289 Eh     change       -0.6613163E-09 Eh
 * total energy  :  -132.1985579 Eh     change       -0.1282893E-01 Eh
 * total energy  :  -132.2023878 Eh     change       -0.3829908E-02 Eh
 * total energy  :  -132.2036886 Eh     change       -0.1300777E-02 Eh
 * total energy  :  -132.2043937 Eh     change       -0.7051454E-03 Eh
 * total energy  :  -132.2046938 Eh     change       -0.3001093E-03 Eh
 * total energy  :  -132.2049083 Eh     change       -0.2145222E-03 Eh
 * total energy  :  -132.2050612 Eh     change       -0.1528193E-03 Eh
 * total energy  :  -132.2051919 Eh     change       -0.1307796E-03 Eh
 * total energy  :  -132.2052810 Eh     change       -0.8908990E-04 Eh
 * total energy  :  -132.2060227 Eh     change       -0.1122719E-04 Eh
 * total energy  :  -132.2060335 Eh     change       -0.1080234E-04 Eh
 * total energy  :  -132.2060444 Eh     change       -0.1089769E-04 Eh
 * total energy  :  -132.2060547 Eh     change       -0.1033412E-04 Eh
 * total energy  :  -132.2060640 Eh     change       -0.9290303E-05 Eh
 * total energy  :  -132.2060714 Eh     change       -0.7383816E-05 Eh
 * total energy  :  -132.2060778 Eh     change       -0.6370935E-05 Eh
 * total energy  :  -132.2060831 Eh     change       -0.5267026E-05 Eh
 * total energy  :  -132.2060872 Eh     change       -0.4137746E-05 Eh
   *** GEOMETRY OPTIMIZATION CONVERGED AFTER 41 ITERATIONS ***

 final structure:
================
76
 xtb: 6.3.3 (4ae9cef)
C        -1.80316209413974   -1.79792389560607   -2.56001615362755
C        -1.25934903686228   -3.19756184023092   -2.63397410084802
F        -1.67875774255591   -3.86463060630245   -3.71621074312032
F         0.09587647138722   -3.21661070496609   -2.70543674054647
F        -1.57262364380157   -3.96404107521260   -1.58046916418974
C        -2.70208805851621   -1.38292456674409   -3.53466907054328
C        -3.20781651477620   -0.09732380853053   -3.51581569857169
C        -2.80794546576307    0.78336463635051   -2.52615766561493
C        -1.91266780754822    0.37170199497595   -1.55874828527966
C        -1.40644341981620   -0.92333772348288   -1.54893408457063
C        -0.43947461952240   -1.30556215464646   -0.45620124077883
C         0.92480420707987   -0.58022329344938   -0.60109169229098
C         1.99031354316577   -1.53066461456014   -1.09658753785722
C         2.49557544971328   -1.50467648806344   -2.39918050212641
C         2.02463807280630   -0.48959262516211   -3.40448633861646
F         2.30644696399968    0.78105144756859   -3.02918114018636
F         0.69452199063171   -0.51202205896029   -3.60529672898291
F         2.58544756523697   -0.64036042266715   -4.60629811198900
C         3.44468242507919   -2.43632850440428   -2.80381539399367
C         3.89917216939464   -3.39884372630981   -1.92225111441413
C         3.40012513896934   -3.43828179864336   -0.63229350639935
C         2.45450454868265   -2.51421532589924   -0.22952482604319
N         1.20542474622860   -0.09711255030024    0.74260530896454
C         2.21935065683050    0.70717366907396    1.13417144545337
C         3.16240198906328    1.19028188060611    0.06758906293435
C         4.13992898433027    2.24180638506826    0.59313519627071
C         3.44820952581975    3.58079296525561    0.84268943990624
C         4.39098618463845    4.64811438966017    1.39794196601852
C         5.44074690867105    5.10624813312889    0.39206874609274
O         2.33930249283183    0.99126619790666    2.32294115865142
C         0.14509818614781   -0.44272244832334    1.68061733395685
C         0.60590845651392   -1.56253111936305    2.67014049048298
O         1.54964668592428   -1.18882275986532    3.50594361994850
O         0.11668849253813   -2.65545915409453    2.65236708935443
N        -0.93595780400294   -0.85750990031938    0.83998768555543
C        -2.20925241749154   -1.18731646322679    1.22744478507707
C        -2.58374701608671   -0.78487173040668    2.63762428167886
C        -4.09362022803366   -0.86782492834582    2.85725550048521
C        -4.84517358256871    0.22288001686463    2.09786175226555
C        -6.34935232565068    0.15441491556449    2.34856282945192
C        -7.10096716808348    1.23045044466326    1.57473817045903
O        -2.96400687915691   -1.72306588461745    0.45020722460787
H        -3.00471965089451   -2.07155858110554   -4.30773189315586
H        -3.90980740563471    0.21418926424962   -4.27321526232609
H        -3.19441594234816    1.79112608643669   -2.50623422439397
H        -1.61143595919630    1.05737272126410   -0.78015760304713
H        -0.28550363274604   -2.38955754696405   -0.42231712842221
H         0.81081876844103    0.27802132164095   -1.27170019152984
H         3.82072377486706   -2.40846800670719   -3.81427233233192
H         4.63211091886516   -4.11980838638889   -2.24768026326681
H         3.73590636237002   -4.19357043334911    0.06085208212667
H         2.05981439889542   -2.56564880727595    0.77325262741455
H         2.59153281425070    1.60361596720982   -0.76543726600885
H         3.70965136461576    0.32073414444860   -0.30706377243521
H         4.93510624242781    2.36661184260913   -0.14162817597573
H         4.58163802362962    1.88572090078612    1.52502725646216
H         2.63997067553761    3.42483566536978    1.55945138005062
H         3.00850041767874    3.94062766270571   -0.09124336578460
H         4.88501166799826    4.26033918328159    2.29105645136128
H         3.79430191072675    5.51197706489479    1.69990356711812
H         6.11890941094599    4.29698931671178    0.13459292661058
H         4.96487340151261    5.46107867616130   -0.51973617051220
H         6.03029005093967    5.91960921594891    0.80843243120521
H        -0.11311933490616    0.44753101810605    2.27880015061216
H         1.89358305905160   -0.27030858214479    3.30168907126929
H        -2.23236362457535    0.22955585595782    2.84071723349111
H        -2.07212365253994   -1.46771384143188    3.31960219855438
H        -4.30280734911649   -0.78033715168112    3.92546384437938
H        -4.44110721828804   -1.84408065546999    2.51795732978994
H        -4.47373696289214    1.20508693911577    2.40475504852526
H        -4.65293850705580    0.10640853919923    1.02991508968197
H        -6.54457404184719    0.27200402917778    3.41736685844628
H        -6.71600868231887   -0.82953698592183    2.05037359384233
H        -6.75978653089251    2.22172677673704    1.86681948855410
H        -8.16930171234996    1.16557863880683    1.76714094815006
H        -6.93638708645097    1.11265824364215    0.50599682453095

          :  Hamiltonian                  GFN2-xTB          :
         :: total energy            -132.206087198309 Eh    ::
         :: gradient norm              0.000411014141 Eh/a0 ::
         :: HOMO-LUMO gap              3.249056694771 eV    ::
         :: SCC energy              -133.693591550970 Eh    ::
         :: -> dispersion             -0.092796160752 Eh    ::
         :: repulsion energy           1.484294670373 Eh    ::

    * Orbital Energies and Occupations

         #    Occupation            Energy/Eh            Energy/eV
      -------------------------------------------------------------
         1        2.0000           -0.8947093             -24.3463
       ...           ...                  ...                  ...
       103        2.0000           -0.4451317             -12.1126
       104        2.0000           -0.4397597             -11.9665
       105        2.0000           -0.4383733             -11.9287
       106        2.0000           -0.4373230             -11.9002
       107        2.0000           -0.4348921             -11.8340
       108        2.0000           -0.4335737             -11.7981
       109        2.0000           -0.4323962             -11.7661
       110        2.0000           -0.4307972             -11.7226
       111        2.0000           -0.4290169             -11.6741
       112        2.0000           -0.4279616             -11.6454
       113        2.0000           -0.4198147             -11.4237
       114        2.0000           -0.4059251             -11.0458
       115        2.0000           -0.4007856             -10.9059 (HOMO)
       116                         -0.2813850              -7.6569 (LUMO)
       117                         -0.2718414              -7.3972
       118                         -0.2628948              -7.1537
       119                         -0.2578815              -7.0173
       120                         -0.2553060              -6.9472
       121                         -0.2538595              -6.9079
       122                         -0.2215340              -6.0282
       123                         -0.1500006              -4.0817
       124                         -0.1344861              -3.6596
       125                         -0.0576922              -1.5699
       126                         -0.0371687              -1.0114
       ...                                ...                  ...
       202                          0.6402152              17.4211
      -------------------------------------------------------------
                  HL-Gap            0.1194006 Eh            3.2491 eV

     #   Z          covCN         q      C6AA      Î±(0)
     1   6 C        2.976    -0.020    28.500     8.757
     2   6 C        3.335     0.486    17.289     6.586
     3   9 F        0.792    -0.200    11.235     3.959
     4   9 F        0.791    -0.229    11.538     4.012
     5   9 F        0.791    -0.197    11.208     3.955
     6   6 C        2.923    -0.017    28.446     8.746
     7   6 C        2.920    -0.021    28.522     8.758
     8   6 C        2.918    -0.017    28.436     8.745
     9   6 C        2.927    -0.024    28.605     8.771
    10   6 C        2.972     0.027    27.399     8.586
    11   6 C        3.830     0.051    19.692     6.314
    12   6 C        3.813     0.038    19.934     6.355
    13   6 C        2.970     0.007    27.853     8.657
    14   6 C        2.975    -0.030    28.741     8.794
    15   6 C        3.335     0.485    17.301     6.588
    16   9 F        0.791    -0.219    11.437     3.995
    17   9 F        0.791    -0.214    11.378     3.984
    18   9 F        0.792    -0.195    11.182     3.950
    19   6 C        2.923    -0.020    28.504     8.755
    20   6 C        2.920    -0.020    28.499     8.754
    21   6 C        2.918    -0.015    28.389     8.737
    22   6 C        2.927    -0.026    28.658     8.779
    23   7 N        2.761    -0.117    23.554     7.208
    24   6 C        2.759     0.269    22.457     7.760
    25   6 C        3.806    -0.085    22.118     6.695
    26   6 C        3.803    -0.055    21.565     6.611
    27   6 C        3.802    -0.059    21.643     6.623
    28   6 C        3.800    -0.055    21.557     6.611
    29   6 C        3.751    -0.104    22.555     6.773
    30   8 O        0.860    -0.454    22.786     6.400
    31   6 C        3.759     0.076    19.360     6.273
    32   6 C        2.683     0.347    21.103     7.518
    33   8 O        1.654    -0.370    20.272     6.078
    34   8 O        0.856    -0.367    21.037     6.149
    35   7 N        2.762    -0.126    23.724     7.234
    36   6 C        2.757     0.279    22.275     7.729
    37   6 C        3.805    -0.086    22.132     6.697
    38   6 C        3.804    -0.056    21.572     6.612
    39   6 C        3.803    -0.060    21.647     6.624
    40   6 C        3.801    -0.054    21.549     6.609
    41   6 C        3.752    -0.103    22.522     6.768
    42   8 O        0.859    -0.408    21.832     6.265
    43   1 H        0.926     0.070     2.083     2.257
    44   1 H        0.926     0.059     2.213     2.326
    45   1 H        0.926     0.056     2.249     2.345
    46   1 H        0.926     0.047     2.359     2.402
    47   1 H        0.924     0.070     2.088     2.260
    48   1 H        0.924     0.062     2.178     2.308
    49   1 H        0.926     0.072     2.062     2.245
    50   1 H        0.926     0.064     2.155     2.296
    51   1 H        0.926     0.066     2.130     2.282
    52   1 H        0.926     0.059     2.205     2.322
    53   1 H        0.924     0.067     2.122     2.278
    54   1 H        0.924     0.057     2.235     2.338
    55   1 H        0.925     0.043     2.406     2.426
    56   1 H        0.924     0.055     2.256     2.349
    57   1 H        0.924     0.040     2.455     2.450
    58   1 H        0.924     0.031     2.574     2.509
    59   1 H        0.924     0.035     2.515     2.480
    60   1 H        0.924     0.032     2.552     2.498
    61   1 H        0.925     0.034     2.530     2.488
    62   1 H        0.925     0.035     2.514     2.480
    63   1 H        0.925     0.035     2.521     2.483
    64   1 H        0.923     0.067     2.124     2.279
    65   1 H        0.799     0.367     0.551     1.166
    66   1 H        0.924     0.041     2.433     2.439
    67   1 H        0.924     0.066     2.134     2.284
    68   1 H        0.924     0.036     2.501     2.473
    69   1 H        0.924     0.059     2.207     2.323
    70   1 H        0.924     0.024     2.668     2.554
    71   1 H        0.924     0.043     2.413     2.429
    72   1 H        0.924     0.029     2.602     2.523
    73   1 H        0.924     0.035     2.512     2.478
    74   1 H        0.925     0.032     2.561     2.503
    75   1 H        0.925     0.034     2.526     2.485
    76   1 H        0.925     0.035     2.522     2.483

Wiberg/Mayer (AO) data.
largest (>0.10) Wiberg bond orders for each atom

     #   Z sym  total        # sym  WBO       # sym  WBO       # sym  WBO
 ---------------------------------------------------------------------------
     1   6 C    3.971 --     6 C    1.413    10 C    1.387     2 C    0.952
                             8 C    0.105
     2   6 C    3.822 --     3 F    0.956     5 F    0.953     1 C    0.952
                             4 F    0.922
     3   9 F    1.079 --     2 C    0.956
     4   9 F    1.049 --     2 C    0.922
     5   9 F    1.084 --     2 C    0.953
     6   6 C    3.987 --     7 C    1.444     1 C    1.413    43 H    0.965
                             9 C    0.109
     7   6 C    3.988 --     6 C    1.444     8 C    1.432    44 H    0.969
                            10 C    0.109
     8   6 C    3.990 --     9 C    1.450     7 C    1.432    45 H    0.969
                             1 C    0.105
     9   6 C    3.990 --     8 C    1.450    10 C    1.407    46 H    0.967
                             6 C    0.109
    10   6 C    3.986 --     9 C    1.407     1 C    1.387    11 C    0.994
                             7 C    0.109
    11   6 C    3.969 --    10 C    0.994    35 N    0.961    47 H    0.953
                            12 C    0.948
    12   6 C    3.968 --    13 C    0.991    23 N    0.966    48 H    0.951
                            11 C    0.948
    13   6 C    3.986 --    22 C    1.412    14 C    1.382    12 C    0.991
                            20 C    0.108
    14   6 C    3.968 --    19 C    1.413    13 C    1.382    15 C    0.951
                            21 C    0.105
    15   6 C    3.820 --    18 F    0.962    14 C    0.951    17 F    0.940
                            16 F    0.928
    16   9 F    1.058 --    15 C    0.928
    17   9 F    1.068 --    15 C    0.940
    18   9 F    1.086 --    15 C    0.962
    19   6 C    3.986 --    20 C    1.442    14 C    1.413    49 H    0.965
                            22 C    0.108
    20   6 C    3.987 --    19 C    1.442    21 C    1.435    50 H    0.968
                            13 C    0.108
    21   6 C    3.988 --    22 C    1.445    20 C    1.435    51 H    0.968
                            14 C    0.105
    22   6 C    3.989 --    21 C    1.445    13 C    1.412    52 H    0.963
                            19 C    0.108
    23   7 N    3.481 --    24 C    1.250    12 C    0.966    31 C    0.965
                            30 O    0.175
    24   6 C    3.939 --    30 O    1.605    23 N    1.250    25 C    0.991
    25   6 C    3.992 --    26 C    1.003    24 C    0.991    53 H    0.951
                            54 H    0.946
    26   6 C    3.991 --    27 C    1.009    25 C    1.003    55 H    0.974
                            56 H    0.974
    27   6 C    3.997 --    26 C    1.009    28 C    1.007    58 H    0.977
                            57 H    0.976
    28   6 C    3.997 --    29 C    1.020    27 C    1.007    60 H    0.978
                            59 H    0.978
    29   6 C    3.997 --    28 C    1.020    62 H    0.988    63 H    0.987
                            61 H    0.986
    30   8 O    2.017 --    24 C    1.605    23 N    0.175
    31   6 C    3.959 --    35 N    1.005    23 N    0.965    64 H    0.937
                            32 C    0.884
    32   6 C    3.932 --    34 O    1.776    33 O    1.207    31 C    0.884
    33   8 O    2.238 --    32 C    1.207    65 H    0.761    34 O    0.185
    34   8 O    2.081 --    32 C    1.776    33 O    0.185
    35   7 N    3.425 --    36 C    1.168    31 C    1.005    11 C    0.961
                            42 O    0.175
    36   6 C    3.940 --    42 O    1.721    35 N    1.168    37 C    0.974
    37   6 C    3.994 --    38 C    1.004    36 C    0.974    66 H    0.960
                            67 H    0.951
    38   6 C    3.992 --    39 C    1.008    37 C    1.004    68 H    0.977
                            69 H    0.974
    39   6 C    3.997 --    38 C    1.008    40 C    1.008    70 H    0.977
                            71 H    0.976
    40   6 C    3.997 --    41 C    1.019    39 C    1.008    72 H    0.979
                            73 H    0.978
    41   6 C    3.997 --    40 C    1.019    74 H    0.988    76 H    0.988
                            75 H    0.987
    42   8 O    2.041 --    36 C    1.721    35 N    0.175
    43   1 H    0.995 --     6 C    0.965
    44   1 H    0.996 --     7 C    0.969
    45   1 H    0.996 --     8 C    0.969
    46   1 H    0.997 --     9 C    0.967
    47   1 H    0.995 --    11 C    0.953
    48   1 H    0.996 --    12 C    0.951
    49   1 H    0.994 --    19 C    0.965
    50   1 H    0.995 --    20 C    0.968
    51   1 H    0.995 --    21 C    0.968
    52   1 H    0.996 --    22 C    0.963
    53   1 H    0.995 --    25 C    0.951
    54   1 H    0.996 --    25 C    0.946
    55   1 H    0.998 --    26 C    0.974
    56   1 H    0.997 --    26 C    0.974
    57   1 H    0.998 --    27 C    0.976
    58   1 H    0.999 --    27 C    0.977
    59   1 H    0.999 --    28 C    0.978
    60   1 H    0.999 --    28 C    0.978
    61   1 H    0.999 --    29 C    0.986
    62   1 H    0.999 --    29 C    0.988
    63   1 H    0.999 --    29 C    0.987
    64   1 H    0.995 --    31 C    0.937
    65   1 H    0.865 --    33 O    0.761
    66   1 H    0.998 --    37 C    0.960
    67   1 H    0.995 --    37 C    0.951
    68   1 H    0.998 --    38 C    0.977
    69   1 H    0.996 --    38 C    0.974
    70   1 H    0.999 --    39 C    0.977
    71   1 H    0.998 --    39 C    0.976
    72   1 H    0.999 --    40 C    0.979
    73   1 H    0.999 --    40 C    0.978
    74   1 H    0.999 --    41 C    0.988
    75   1 H    0.998 --    41 C    0.987
    76   1 H    0.999 --    41 C    0.988
 ---------------------------------------------------------------------------

molecular dipole:
                 x           y           z       tot (Debye)
 q only:        0.990       1.693      -0.315
   full:        1.177       1.941      -0.391       5.855

           -------------------------------------------------
          | TOTAL ENERGY             -132.206087198309 Eh   |
          | GRADIENT NORM               0.000411014141 Eh/Î± |
          | HOMO-LUMO GAP               3.249056694771 eV   |
           -------------------------------------------------

 * finished run on 2022/03/16 at 22:24:52.474
