   * xtb version 6.3.3 (4ae9cef) compiled by 'conda@95abc7406d43' on 2020-10-14
          program call               : xtb acid_172.xyz --opt --chrg 0 --uhf 0 --gfn 2
          number of atoms            :                    70
          number of electrons        :                   218
          charge                     :                     0
          spin                       :                   0.0

   ID    Z sym.   atoms
    1    6 C      1, 3-16, 18, 20-23, 25-28, 30, 31, 35-42
    2    8 O      2, 17, 29, 32, 33, 44
    3    7 N      19, 24, 34, 43
    4    1 H      45-70

          :  Hamiltonian                  GFN2-xTB          :
 * total energy  :  -122.0786909 Eh     change       -0.1418286E-08 Eh
 * total energy  :  -122.0947052 Eh     change       -0.1601429E-01 Eh
 * total energy  :  -122.0990204 Eh     change       -0.4315208E-02 Eh
 * total energy  :  -122.1007160 Eh     change       -0.1695631E-02 Eh
 * total energy  :  -122.1019556 Eh     change       -0.1239609E-02 Eh
 * total energy  :  -122.1024283 Eh     change       -0.4726365E-03 Eh
 * total energy  :  -122.1033811 Eh     change       -0.9527714E-03 Eh
 * total energy  :  -122.1038831 Eh     change       -0.5020403E-03 Eh
 * total energy  :  -122.1045423 Eh     change       -0.6591598E-03 Eh
 * total energy  :  -122.1052151 Eh     change       -0.6728917E-03 Eh
 * total energy  :  -122.1115548 Eh     change       -0.8353212E-05 Eh
 * total energy  :  -122.1115630 Eh     change       -0.8195090E-05 Eh
 * total energy  :  -122.1115694 Eh     change       -0.6403655E-05 Eh
 * total energy  :  -122.1115769 Eh     change       -0.7537783E-05 Eh
 * total energy  :  -122.1115831 Eh     change       -0.6222477E-05 Eh
 * total energy  :  -122.1115880 Eh     change       -0.4899972E-05 Eh
 * total energy  :  -122.1115950 Eh     change       -0.6949733E-05 Eh
 * total energy  :  -122.1116007 Eh     change       -0.5759444E-05 Eh
 * total energy  :  -122.1116053 Eh     change       -0.4571716E-05 Eh
   *** GEOMETRY OPTIMIZATION CONVERGED AFTER 64 ITERATIONS ***

 final structure:
================
70
 xtb: 6.3.3 (4ae9cef)
C         1.75130314347187   -3.54768344221652    0.35876164844454
O         0.95403842041320   -4.05307233710268   -0.62403174342403
C         1.20150683369810   -5.35842369567040   -1.08683957768410
C         2.73234640212325   -4.27031783467374    1.02742369423333
C         3.47688297854505   -3.67306237123123    2.03052264412577
C         3.25423646576701   -2.35580985312433    2.38321555327461
C         2.28175135832389   -1.62807219716103    1.71921803367621
C         1.53528816635816   -2.20767071461814    0.70724734284881
C         0.47842430694219   -1.41628125298553   -0.01677315570232
C        -0.75329914984802   -1.15447970509149    0.86697234602013
C        -1.96729940540418   -1.91062571213971    0.39656532551775
C        -2.48121862270487   -2.94310319047009    1.15990849985066
C        -3.57848892128762   -3.66912307194359    0.73044528726225
C        -4.17287849785159   -3.35177240353012   -0.47516984591258
C        -3.67499387261018   -2.32090623424465   -1.25397752062007
C        -2.56943695253753   -1.59512126480222   -0.83028714111036
O        -2.01021184102674   -0.56614503949681   -1.53671541358248
C        -2.49675793408086   -0.29501868223760   -2.83264688430838
N        -0.94442194788564    0.28940901737230    0.80299194270500
C        -1.98711144644124    0.86852057810499    1.44406518935516
C        -2.09370941698231    2.35250617569110    1.24824003460644
C        -1.83961000829224    3.21193255833189    2.32251770510791
C        -1.42267829789194    2.68330737246526    3.56925668577696
N        -1.07695624212135    2.28392099150694    4.58491343009745
C        -1.97564726305089    4.59043450996267    2.16201289417540
C        -2.37494437984334    5.10405429960985    0.94264196846353
C        -2.64716699873737    4.25288552049419   -0.11856746316376
C        -2.50839791419227    2.88190642574905    0.03337154659996
O        -2.77725574476275    0.24471424755161    2.11598257774827
C         0.05033053524767    0.96415122687520    0.00898060179207
C         0.79200266460422    2.04299112699301    0.84192017774038
O         0.64770754540549    3.30820905633924    0.42207485963264
O         1.46079378437878    1.77139248409458    1.79149002365067
N         0.95652654782424   -0.08586497721260   -0.37571592059611
C         2.11763721135278    0.05802998786045   -1.05564982460316
C         2.61920864613756    1.46405625366506   -1.22490804896098
C         3.74094369645813    1.84087138068050   -0.49897572633939
C         4.29328026146749    3.09932234515468   -0.66207498436736
C         3.74744972034923    3.99142992514552   -1.57334142967658
C         2.64601037219586    3.62817930803824   -2.32136110356100
C         2.07619477468266    2.36358634652036   -2.15014576145706
C         0.93052727531926    2.03084510237609   -2.90418888251959
N        -0.03182045953174    1.82262182298678   -3.49471200131635
O         2.76268960944931   -0.88425333761281   -1.46111093061835
H         1.03296843858936   -6.10244206956331   -0.30162867482212
H         2.21898041313277   -5.45914712196474   -1.47642247711144
H         0.48824656324653   -5.52180485113481   -1.89331273484921
H         2.92678129789190   -5.30000029153515    0.77269311789447
H         4.23638600310970   -4.24979096653518    2.53733025821973
H         3.83270668371049   -1.89421437692582    3.16825698145608
H         2.10512799547896   -0.59541169731485    1.98445369364847
H         0.19778243961543   -1.95386100783105   -0.92854686088525
H        -0.54685167775740   -1.42953905646771    1.90865477791217
H        -2.01453826450921   -3.17535494618622    2.10491499239097
H        -3.96880331431904   -4.47104208325642    1.33736432785712
H        -5.03440157951433   -3.90388926366985   -0.82028911845967
H        -4.15912576788390   -2.08907300485847   -2.18939837963602
H        -3.52722429349683    0.07460402258059   -2.80510860651958
H        -2.44554600568871   -1.18135596614084   -3.47102551257797
H        -1.84041182244592    0.47460566723750   -3.23840745057718
H        -1.77009160819556    5.24298985012137    2.99680889942318
H        -2.48344906926112    6.17074151127850    0.81967369786473
H        -2.97412959676676    4.65625391461075   -1.06528064936998
H        -2.73635575501020    2.21477598289447   -0.78544058093920
H        -0.41297255610190    1.42286816659369   -0.88546078275715
H         0.02928617191439    3.40828017368681   -0.31748587194810
H         4.16721353855562    1.13791310863928    0.19995355323762
H         5.15625121631310    3.38341664453676   -0.08022408080130
H         4.18366677247109    4.96982380068625   -1.70356169757668
H         2.21573337348592    4.30818711451593   -3.04206147424060

          :  Hamiltonian                  GFN2-xTB          :
         :: total energy            -122.111605303581 Eh    ::
         :: gradient norm              0.000863596369 Eh/a0 ::
         :: HOMO-LUMO gap              2.147519966513 eV    ::
         :: SCC energy              -123.984993451961 Eh    ::
         :: -> dispersion             -0.105130364685 Eh    ::
         :: repulsion energy           1.869021143571 Eh    ::

    * Orbital Energies and Occupations

         #    Occupation            Energy/Eh            Energy/eV
      -------------------------------------------------------------
         1        2.0000           -0.7847070             -21.3530
       ...           ...                  ...                  ...
        97        2.0000           -0.4369639             -11.8904
        98        2.0000           -0.4352309             -11.8432
        99        2.0000           -0.4306541             -11.7187
       100        2.0000           -0.4255159             -11.5789
       101        2.0000           -0.4232916             -11.5184
       102        2.0000           -0.4149857             -11.2923
       103        2.0000           -0.4124651             -11.2237
       104        2.0000           -0.4069097             -11.0726
       105        2.0000           -0.4039890             -10.9931
       106        2.0000           -0.4008196             -10.9069
       107        2.0000           -0.3978270             -10.8254
       108        2.0000           -0.3840421             -10.4503
       109        2.0000           -0.3770991             -10.2614 (HOMO)
       110                         -0.2981792              -8.1139 (LUMO)
       111                         -0.2872844              -7.8174
       112                         -0.2802122              -7.6250
       113                         -0.2656238              -7.2280
       114                         -0.2599519              -7.0737
       115                         -0.2355998              -6.4110
       116                         -0.2311621              -6.2902
       117                         -0.2270289              -6.1778
       118                         -0.2223222              -6.0497
       119                         -0.2203467              -5.9959
       120                         -0.2168573              -5.9010
       ...                                ...                  ...
       202                          1.1715759              31.8802
      -------------------------------------------------------------
                  HL-Gap            0.0789199 Eh            2.1475 eV

     #   Z          covCN         q      C6AA      Î±(0)
     1   6 C        2.868     0.144    24.858     8.173
     2   8 O        1.705    -0.272    18.516     5.810
     3   6 C        3.644     0.037    20.282     6.473
     4   6 C        2.918    -0.064    29.594     8.921
     5   6 C        2.921    -0.030    28.759     8.794
     6   6 C        2.918    -0.039    28.964     8.825
     7   6 C        2.923    -0.036    28.887     8.814
     8   6 C        2.975    -0.014    28.351     8.734
     9   6 C        3.823     0.047    19.769     6.327
    10   6 C        3.822     0.050    19.718     6.319
    11   6 C        2.973    -0.011    28.276     8.722
    12   6 C        2.925    -0.026    28.651     8.778
    13   6 C        2.918    -0.037    28.911     8.817
    14   6 C        2.921    -0.030    28.750     8.793
    15   6 C        2.918    -0.064    29.603     8.922
    16   6 C        2.866     0.141    24.922     8.183
    17   8 O        1.704    -0.288    18.782     5.851
    18   6 C        3.642     0.033    20.359     6.487
    19   7 N        2.765    -0.101    23.214     7.156
    20   6 C        2.763     0.272    22.398     7.751
    21   6 C        2.982    -0.016    28.399     8.742
    22   6 C        2.975     0.029    27.356     8.579
    23   6 C        1.911     0.116    28.234     8.581
    24   7 N        0.911    -0.205    25.452     7.296
    25   6 C        2.926    -0.015    28.396     8.739
    26   6 C        2.918    -0.025    28.630     8.774
    27   6 C        2.918    -0.029    28.715     8.787
    28   6 C        2.920    -0.037    28.924     8.819
    29   8 O        0.859    -0.405    21.790     6.259
    30   6 C        3.744     0.084    19.255     6.260
    31   6 C        2.686     0.344    21.159     7.528
    32   8 O        1.659    -0.368    20.241     6.073
    33   8 O        0.856    -0.333    20.389     6.054
    34   7 N        2.764    -0.102    23.244     7.161
    35   6 C        2.764     0.271    22.424     7.755
    36   6 C        2.978    -0.011    28.283     8.724
    37   6 C        2.924    -0.013    28.327     8.728
    38   6 C        2.919    -0.012    28.320     8.727
    39   6 C        2.918    -0.021    28.528     8.759
    40   6 C        2.929    -0.019    28.485     8.753
    41   6 C        2.974     0.009    27.807     8.650
    42   6 C        1.913     0.111    28.354     8.600
    43   7 N        0.911    -0.248    26.456     7.439
    44   8 O        0.859    -0.408    21.832     6.265
    45   1 H        0.924     0.041     2.433     2.439
    46   1 H        0.924     0.047     2.361     2.403
    47   1 H        0.925     0.062     2.179     2.309
    48   1 H        0.926     0.040     2.445     2.445
    49   1 H        0.926     0.039     2.462     2.454
    50   1 H        0.926     0.041     2.434     2.440
    51   1 H        0.926     0.053     2.283     2.363
    52   1 H        0.924     0.083     1.945     2.181
    53   1 H        0.924     0.068     2.108     2.271
    54   1 H        0.926     0.046     2.365     2.405
    55   1 H        0.926     0.042     2.417     2.431
    56   1 H        0.926     0.040     2.452     2.448
    57   1 H        0.926     0.041     2.440     2.443
    58   1 H        0.924     0.036     2.501     2.473
    59   1 H        0.924     0.042     2.424     2.435
    60   1 H        0.925     0.079     1.991     2.207
    61   1 H        0.926     0.055     2.254     2.348
    62   1 H        0.926     0.049     2.333     2.388
    63   1 H        0.926     0.047     2.360     2.402
    64   1 H        0.926     0.046     2.367     2.406
    65   1 H        0.922     0.045     2.382     2.414
    66   1 H        0.804     0.326     0.649     1.265
    67   1 H        0.926     0.062     2.174     2.306
    68   1 H        0.926     0.058     2.228     2.334
    69   1 H        0.926     0.052     2.297     2.370
    70   1 H        0.926     0.048     2.345     2.395

Wiberg/Mayer (AO) data.
largest (>0.10) Wiberg bond orders for each atom

     #   Z sym  total        # sym  WBO       # sym  WBO       # sym  WBO
 ---------------------------------------------------------------------------
     1   6 C    3.935 --     4 C    1.379     8 C    1.326     2 O    1.061
     2   8 O    2.232 --     1 C    1.061     3 C    0.982
     3   6 C    3.944 --     2 O    0.982    47 H    0.980    46 H    0.977
                            45 H    0.976
     4   6 C    3.987 --     5 C    1.437     1 C    1.379    48 H    0.965
                             7 C    0.103
     5   6 C    3.990 --     6 C    1.442     4 C    1.437    49 H    0.971
                             8 C    0.106
     6   6 C    3.991 --     5 C    1.442     7 C    1.427    50 H    0.971
     7   6 C    3.989 --     8 C    1.436     6 C    1.427    51 H    0.964
                             4 C    0.103
     8   6 C    3.981 --     7 C    1.436     1 C    1.326     9 C    0.990
                             5 C    0.106
     9   6 C    3.955 --     8 C    0.990    10 C    0.957    52 H    0.948
                            34 N    0.947
    10   6 C    3.959 --    11 C    0.991     9 C    0.957    53 H    0.953
                            19 N    0.948
    11   6 C    3.982 --    12 C    1.436    16 C    1.327    10 C    0.991
                            14 C    0.107
    12   6 C    3.988 --    11 C    1.436    13 C    1.426    54 H    0.967
                            15 C    0.103
    13   6 C    3.991 --    14 C    1.445    12 C    1.426    55 H    0.970
    14   6 C    3.990 --    13 C    1.445    15 C    1.433    56 H    0.971
                            11 C    0.107
    15   6 C    3.987 --    14 C    1.433    16 C    1.385    57 H    0.965
                            12 C    0.103
    16   6 C    3.935 --    15 C    1.385    11 C    1.327    17 O    1.053
    17   8 O    2.215 --    16 C    1.053    18 C    0.979
    18   6 C    3.939 --    17 O    0.979    59 H    0.977    58 H    0.977
                            60 H    0.968
    19   7 N    3.478 --    20 C    1.218    30 C    0.987    10 C    0.948
                            29 O    0.198
    20   6 C    3.951 --    29 O    1.698    19 N    1.218    21 C    0.952
    21   6 C    3.986 --    28 C    1.414    22 C    1.339    20 C    0.952
                            26 C    0.105
    22   6 C    3.990 --    25 C    1.367    21 C    1.339    23 C    1.086
                            27 C    0.100
    23   6 C    3.949 --    24 N    2.819    22 C    1.086
    24   7 N    2.989 --    23 C    2.819
    25   6 C    3.989 --    26 C    1.454    22 C    1.367    61 H    0.968
                            28 C    0.106
    26   6 C    3.991 --    25 C    1.454    27 C    1.427    62 H    0.969
                            21 C    0.105
    27   6 C    3.966 --    28 C    1.435    26 C    1.427    63 H    0.970
                            22 C    0.100
    28   6 C    3.991 --    27 C    1.435    21 C    1.414    64 H    0.966
                            25 C    0.106
    29   8 O    2.040 --    20 C    1.698    19 N    0.198
    30   6 C    3.973 --    34 N    0.990    19 N    0.987    65 H    0.934
                            31 C    0.902
    31   6 C    3.921 --    33 O    1.817    32 O    1.127    30 C    0.902
    32   8 O    2.209 --    31 C    1.127    66 H    0.860    33 O    0.168
    33   8 O    2.107 --    31 C    1.817    32 O    0.168
    34   7 N    3.479 --    35 C    1.223    30 C    0.990     9 C    0.947
                            44 O    0.198
    35   6 C    3.952 --    44 O    1.692    34 N    1.223    36 C    0.952
    36   6 C    3.985 --    37 C    1.414    41 C    1.330    35 C    0.952
                            39 C    0.102
    37   6 C    3.988 --    38 C    1.439    36 C    1.414    67 H    0.966
                            40 C    0.105
    38   6 C    3.963 --    37 C    1.439    39 C    1.423    68 H    0.968
    39   6 C    3.991 --    40 C    1.459    38 C    1.423    69 H    0.968
                            36 C    0.102
    40   6 C    3.990 --    39 C    1.459    41 C    1.351    70 H    0.969
                            37 C    0.105
    41   6 C    3.988 --    40 C    1.351    36 C    1.330    42 C    1.103
    42   6 C    3.946 --    43 N    2.779    41 C    1.103
    43   7 N    2.979 --    42 C    2.779
    44   8 O    2.037 --    35 C    1.692    34 N    0.198
    45   1 H    0.998 --     3 C    0.976
    46   1 H    0.998 --     3 C    0.977
    47   1 H    0.996 --     3 C    0.980
    48   1 H    0.998 --     4 C    0.965
    49   1 H    0.998 --     5 C    0.971
    50   1 H    0.998 --     6 C    0.971
    51   1 H    0.997 --     7 C    0.964
    52   1 H    0.992 --     9 C    0.948
    53   1 H    0.995 --    10 C    0.953
    54   1 H    0.997 --    12 C    0.967
    55   1 H    0.998 --    13 C    0.970
    56   1 H    0.998 --    14 C    0.971
    57   1 H    0.998 --    15 C    0.965
    58   1 H    0.999 --    18 C    0.977
    59   1 H    0.998 --    18 C    0.977
    60   1 H    0.993 --    18 C    0.968
    61   1 H    0.996 --    25 C    0.968
    62   1 H    0.996 --    26 C    0.969
    63   1 H    0.997 --    27 C    0.970
    64   1 H    0.997 --    28 C    0.966
    65   1 H    0.998 --    30 C    0.934
    66   1 H    0.894 --    32 O    0.860
    67   1 H    0.995 --    37 C    0.966
    68   1 H    0.996 --    38 C    0.968
    69   1 H    0.995 --    39 C    0.968
    70   1 H    0.997 --    40 C    0.969
 ---------------------------------------------------------------------------

molecular dipole:
                 x           y           z       tot (Debye)
 q only:        0.112       0.723      -1.633
   full:        0.087       1.185      -2.331       6.650

           -------------------------------------------------
          | TOTAL ENERGY             -122.111605303581 Eh   |
          | GRADIENT NORM               0.000863596369 Eh/Î± |
          | HOMO-LUMO GAP               2.147519966513 eV   |
           -------------------------------------------------

 * finished run on 2022/03/16 at 22:04:00.099
