   * xtb version 6.3.3 (4ae9cef) compiled by 'conda@95abc7406d43' on 2020-10-14
          program call               : xtb acid_446.xyz --opt --chrg 0 --uhf 0 --gfn 2
          number of atoms            :                    78
          number of electrons        :                   226
          charge                     :                     0
          spin                       :                   0.0

   ID    Z sym.   atoms
    1    6 C      1-22, 24-31, 33, 34, 38-45
    2    7 N      23, 37
    3    8 O      32, 35, 36, 46
    4    1 H      47-78

          :  Hamiltonian                  GFN2-xTB          :
 * total energy  :  -124.0909788 Eh     change       -0.3433101E-08 Eh
 * total energy  :  -124.1058609 Eh     change       -0.1488218E-01 Eh
 * total energy  :  -124.1099513 Eh     change       -0.4090327E-02 Eh
 * total energy  :  -124.1113956 Eh     change       -0.1444377E-02 Eh
 * total energy  :  -124.1125283 Eh     change       -0.1132707E-02 Eh
 * total energy  :  -124.1131701 Eh     change       -0.6417867E-03 Eh
 * total energy  :  -124.1138448 Eh     change       -0.6746393E-03 Eh
 * total energy  :  -124.1147433 Eh     change       -0.8985301E-03 Eh
 * total energy  :  -124.1153199 Eh     change       -0.5766382E-03 Eh
 * total energy  :  -124.1161329 Eh     change       -0.8129323E-03 Eh
 * total energy  :  -124.1536623 Eh     change       -0.5183100E-05 Eh
 * total energy  :  -124.1536714 Eh     change       -0.9069861E-05 Eh
 * total energy  :  -124.1536787 Eh     change       -0.7342661E-05 Eh
 * total energy  :  -124.1536886 Eh     change       -0.9871877E-05 Eh
 * total energy  :  -124.1536968 Eh     change       -0.8189569E-05 Eh
 * total energy  :  -124.1537021 Eh     change       -0.5318870E-05 Eh
 * total energy  :  -124.1537074 Eh     change       -0.5330666E-05 Eh
 * total energy  :  -124.1537130 Eh     change       -0.5529979E-05 Eh
 * total energy  :  -124.1537176 Eh     change       -0.4692912E-05 Eh
   *** GEOMETRY OPTIMIZATION CONVERGED AFTER 179 ITERATIONS ***

 final structure:
================
78
 xtb: 6.3.3 (4ae9cef)
C        -2.03949257445403   -0.59089906332296    1.73741955112743
C        -3.23444050411333   -0.30909973854449    2.33302310086706
C        -4.04271353434827    0.74961036220815    1.86845479530712
C        -5.30033303773581    1.04069181232871    2.43553475238044
C        -6.06115840574478    2.06917879245663    1.95430822888995
C        -5.59711201331112    2.85699332068924    0.88886597773722
C        -4.38029328856318    2.60311123249389    0.32148065344821
C        -3.57502659172390    1.54470409586147    0.79023009760971
C        -2.33386046880681    1.23483348363060    0.20188515869193
C        -1.58849516859378    0.17480491280573    0.64382586829683
C        -0.30332703203981   -0.19720645536236   -0.04048672823812
C         0.94400944101502    0.03947782904414    0.83684457821957
C         1.56675756158210    1.37864587520405    0.55876545971621
C         1.39728107433561    2.42014898604063    1.43021211726686
C         1.94835569068140    3.68899492251094    1.16181766919757
C         1.79245124822607    4.77489383895538    2.04832574854815
C         2.34835323986777    5.99124524773141    1.76672702920680
C         3.08396931592723    6.17886569419180    0.58596795559061
C         3.25043978002381    5.14677141242162   -0.29463409912828
C         2.68992470251575    3.87981496157917   -0.03301990978460
C         2.84266860115178    2.79151699864458   -0.91741399676613
C         2.28987203008802    1.57691428468666   -0.63346792385813
N         1.81449487017985   -1.07014715139686    0.46827852703174
C         3.07223734765611   -1.15883274187377    1.01189355817805
C         3.80535129765449   -2.41173492127982    0.66746217999512
C         4.29913490314446   -3.21196523623588    1.68803830044733
C         4.99253037026962   -4.36742364491085    1.37361433258830
C         5.21231074566283   -4.71151498102892    0.05220393506156
C         4.74829622404971   -3.90407338107486   -0.98055991294670
C         4.98736831736380   -4.28241619835730   -2.41134460844448
C         4.03971964068940   -2.75549291749328   -0.65905871831476
O         3.55551285195417   -0.25558730067974    1.65474330462348
C         1.01227339900062   -2.20855213139300    0.11560916793589
C         0.78913518902589   -3.14446492534426    1.34784223351396
O         0.10594739483300   -4.23811478028132    1.09291226835117
O         1.23109052199747   -2.86559872036747    2.42581950800892
N        -0.23686395334477   -1.62174274457956   -0.34638716340094
C        -1.17267288439272   -2.34559878414341   -0.98545674120667
C        -2.36528774470614   -1.59464359608892   -1.46222866429046
C        -2.27172959475939   -0.66500743383163   -2.48947738892654
C        -3.38754836331059    0.05175272306898   -2.89558069259762
C        -3.29874775621793    1.05261118335621   -4.00630769026500
C        -4.59913758393190   -0.17521878839781   -2.25159118439825
C        -4.70253055770147   -1.12104149595769   -1.24912807678448
C        -3.59073231386236   -1.84489298017553   -0.85873962155691
O        -1.05088400453820   -3.56185117997572   -1.12826406638383
H        -1.43441295980144   -1.41188998574090    2.09535672047094
H        -3.58162768258665   -0.90244057307929    3.16629051466440
H        -5.65253242228320    0.43325898713007    3.25685831253081
H        -7.02511509100354    2.28492764260967    2.39100359857448
H        -6.21166962244942    3.66647273002711    0.52316309021590
H        -4.01609401036765    3.20589259691034   -0.49805206239703
H        -1.98559818537216    1.83715070429083   -0.62525994547743
H        -0.20124921756568    0.38025630430485   -0.96862242088248
H         0.68147827937551   -0.03107256993345    1.90152354924212
H         0.84275196410542    2.27669060270110    2.34664102274189
H         1.22796635042022    4.62418735720547    2.95731624536974
H         2.22801794498512    6.81769599350139    2.45190389099533
H         3.51852828438967    7.14638818247703    0.38092399353261
H         3.81777581351709    5.28628320254313   -1.20406618333520
H         3.41034799932862    2.93633730839414   -1.82574586518759
H         2.41890304462278    0.74602581040240   -1.31245650109492
H         4.12029573515351   -2.92938933046926    2.71287475943928
H         5.36798601989290   -4.99997666220696    2.16389850579633
H         5.75776339206282   -5.61337336941821   -0.18623770847948
H         5.96560646272013   -4.74300943319050   -2.52945190685816
H         4.92702442828975   -3.41181696520557   -3.06056211627560
H         4.23638143615640   -5.00356762620391   -2.73732995885242
H         3.68629541163617   -2.10705990836141   -1.45021396234811
H         1.46773455527677   -2.80992504741813   -0.68610396047593
H        -0.29240942128930   -4.23310783447524    0.17244281853186
H        -1.32328740177412   -0.50450939236064   -2.98317430390021
H        -3.79320636001839    0.66608806131438   -4.89723517732919
H        -2.26394467013336    1.27084333396719   -4.25774444799817
H        -3.79747318805319    1.97843278970738   -3.72625079560438
H        -5.46964800854022    0.39220661868665   -2.54671856709333
H        -5.65226369633310   -1.29475864208926   -0.76648151429151
H        -3.66142156712173   -2.58570056377858   -0.07744449476132

          :  Hamiltonian                  GFN2-xTB          :
         :: total energy            -124.153717644416 Eh    ::
         :: gradient norm              0.000849084891 Eh/a0 ::
         :: HOMO-LUMO gap              2.798414858833 eV    ::
         :: SCC energy              -126.188104982121 Eh    ::
         :: -> dispersion             -0.112718280482 Eh    ::
         :: repulsion energy           2.031169106240 Eh    ::

    * Orbital Energies and Occupations

         #    Occupation            Energy/Eh            Energy/eV
      -------------------------------------------------------------
         1        2.0000           -0.7494181             -20.3927
       ...           ...                  ...                  ...
       101        2.0000           -0.4228488             -11.5063
       102        2.0000           -0.4198605             -11.4250
       103        2.0000           -0.4182899             -11.3822
       104        2.0000           -0.4159094             -11.3175
       105        2.0000           -0.4150532             -11.2942
       106        2.0000           -0.4105664             -11.1721
       107        2.0000           -0.4075121             -11.0890
       108        2.0000           -0.4020615             -10.9406
       109        2.0000           -0.3977024             -10.8220
       110        2.0000           -0.3934604             -10.7066
       111        2.0000           -0.3925202             -10.6810
       112        2.0000           -0.3870920             -10.5333
       113        2.0000           -0.3784285             -10.2976 (HOMO)
       114                         -0.2755886              -7.4991 (LUMO)
       115                         -0.2614121              -7.1134
       116                         -0.2608042              -7.0968
       117                         -0.2473484              -6.7307
       118                         -0.2444478              -6.6518
       119                         -0.2404789              -6.5438
       120                         -0.2402374              -6.5372
       121                         -0.2311953              -6.2911
       122                         -0.2265680              -6.1652
       123                         -0.2230278              -6.0689
       124                         -0.2037839              -5.5452
       ...                                ...                  ...
       216                          0.6955752              18.9276
      -------------------------------------------------------------
                  HL-Gap            0.1028399 Eh            2.7984 eV

     #   Z          covCN         q      C6AA      Î±(0)
     1   6 C        2.919    -0.035    28.860     8.810
     2   6 C        2.918    -0.033    28.812     8.802
     3   6 C        2.988     0.014    27.698     8.633
     4   6 C        2.918    -0.033    28.823     8.804
     5   6 C        2.916    -0.028    28.707     8.786
     6   6 C        2.916    -0.028    28.698     8.785
     7   6 C        2.919    -0.034    28.838     8.806
     8   6 C        2.987     0.015    27.675     8.630
     9   6 C        2.923    -0.041    29.018     8.834
    10   6 C        2.970    -0.005    28.138     8.701
    11   6 C        3.823     0.039    19.908     6.349
    12   6 C        3.837     0.051    19.687     6.312
    13   6 C        2.970     0.012    27.732     8.638
    14   6 C        2.923    -0.035    28.883     8.813
    15   6 C        2.987     0.018    27.608     8.619
    16   6 C        2.919    -0.033    28.822     8.804
    17   6 C        2.916    -0.029    28.719     8.788
    18   6 C        2.916    -0.029    28.733     8.790
    19   6 C        2.918    -0.034    28.844     8.807
    20   6 C        2.988     0.014    27.684     8.631
    21   6 C        2.917    -0.033    28.827     8.804
    22   6 C        2.919    -0.030    28.758     8.794
    23   7 N        2.766    -0.128    23.771     7.241
    24   6 C        2.765     0.281    22.238     7.723
    25   6 C        2.976    -0.020    28.512     8.759
    26   6 C        2.924    -0.023    28.567     8.765
    27   6 C        2.918    -0.027    28.667     8.780
    28   6 C        2.925    -0.038    28.938     8.822
    29   6 C        2.965     0.019    27.580     8.614
    30   6 C        3.758    -0.110    22.657     6.786
    31   6 C        2.928    -0.044    29.098     8.846
    32   8 O        0.859    -0.405    21.782     6.257
    33   6 C        3.765     0.079    19.298     6.261
    34   6 C        2.684     0.349    21.081     7.514
    35   8 O        1.654    -0.373    20.337     6.088
    36   8 O        0.856    -0.371    21.109     6.160
    37   7 N        2.764    -0.109    23.373     7.180
    38   6 C        2.765     0.269    22.453     7.760
    39   6 C        2.977    -0.013    28.330     8.731
    40   6 C        2.927    -0.038    28.948     8.823
    41   6 C        2.966     0.024    27.475     8.598
    42   6 C        3.758    -0.111    22.678     6.789
    43   6 C        2.926    -0.035    28.883     8.814
    44   6 C        2.919    -0.026    28.647     8.777
    45   6 C        2.925    -0.025    28.639     8.776
    46   8 O        0.860    -0.462    22.955     6.424
    47   1 H        0.926     0.036     2.497     2.471
    48   1 H        0.926     0.044     2.396     2.421
    49   1 H        0.926     0.038     2.477     2.461
    50   1 H        0.926     0.036     2.498     2.472
    51   1 H        0.926     0.035     2.512     2.478
    52   1 H        0.926     0.033     2.544     2.494
    53   1 H        0.926     0.032     2.560     2.502
    54   1 H        0.924     0.050     2.316     2.380
    55   1 H        0.923     0.056     2.247     2.344
    56   1 H        0.926     0.036     2.499     2.472
    57   1 H        0.926     0.035     2.523     2.484
    58   1 H        0.926     0.032     2.552     2.498
    59   1 H        0.926     0.032     2.559     2.502
    60   1 H        0.926     0.033     2.548     2.496
    61   1 H        0.926     0.036     2.503     2.474
    62   1 H        0.926     0.028     2.610     2.526
    63   1 H        0.926     0.056     2.241     2.341
    64   1 H        0.926     0.041     2.430     2.437
    65   1 H        0.926     0.037     2.488     2.467
    66   1 H        0.925     0.048     2.347     2.396
    67   1 H        0.925     0.043     2.406     2.425
    68   1 H        0.924     0.049     2.328     2.386
    69   1 H        0.925     0.025     2.653     2.547
    70   1 H        0.923     0.065     2.145     2.291
    71   1 H        0.799     0.366     0.552     1.168
    72   1 H        0.925     0.033     2.549     2.497
    73   1 H        0.925     0.055     2.254     2.348
    74   1 H        0.925     0.045     2.382     2.414
    75   1 H        0.925     0.050     2.316     2.380
    76   1 H        0.926     0.041     2.436     2.441
    77   1 H        0.926     0.041     2.429     2.437
    78   1 H        0.926     0.042     2.419     2.432

Wiberg/Mayer (AO) data.
largest (>0.10) Wiberg bond orders for each atom

     #   Z sym  total        # sym  WBO       # sym  WBO       # sym  WBO
 ---------------------------------------------------------------------------
     1   6 C    3.991 --     2 C    1.565    10 C    1.292    47 H    0.967
     2   6 C    3.991 --     1 C    1.565     3 C    1.275    48 H    0.967
                             9 C    0.113
     3   6 C    3.990 --     4 C    1.282     2 C    1.275     8 C    1.251
     4   6 C    3.991 --     5 C    1.556     3 C    1.282    49 H    0.968
                             7 C    0.118
     5   6 C    3.989 --     4 C    1.556     6 C    1.320    50 H    0.971
     6   6 C    3.992 --     7 C    1.558     5 C    1.320    51 H    0.971
     7   6 C    3.989 --     6 C    1.558     8 C    1.278    52 H    0.968
                             4 C    0.118
     8   6 C    3.990 --     9 C    1.282     7 C    1.278     3 C    1.251
     9   6 C    3.990 --    10 C    1.525     8 C    1.282    53 H    0.965
                             2 C    0.113
    10   6 C    3.985 --     9 C    1.525     1 C    1.292    11 C    0.992
    11   6 C    3.958 --    10 C    0.992    37 N    0.953    54 H    0.952
                            12 C    0.951
    12   6 C    3.963 --    13 C    0.993    23 N    0.959    55 H    0.952
                            11 C    0.951
    13   6 C    3.985 --    14 C    1.527    22 C    1.292    12 C    0.993
    14   6 C    3.989 --    13 C    1.527    15 C    1.281    56 H    0.966
                            21 C    0.114
    15   6 C    3.990 --    14 C    1.281    16 C    1.279    20 C    1.251
    16   6 C    3.989 --    17 C    1.557    15 C    1.279    57 H    0.968
                            19 C    0.118
    17   6 C    3.992 --    16 C    1.557    18 C    1.321    58 H    0.971
    18   6 C    3.990 --    19 C    1.555    17 C    1.321    59 H    0.971
    19   6 C    3.992 --    18 C    1.555    20 C    1.283    60 H    0.968
                            16 C    0.118
    20   6 C    3.990 --    19 C    1.283    21 C    1.275    15 C    1.251
    21   6 C    3.992 --    22 C    1.566    20 C    1.275    61 H    0.968
                            14 C    0.114
    22   6 C    3.991 --    21 C    1.566    13 C    1.292    62 H    0.968
    23   7 N    3.413 --    24 C    1.160    33 C    1.001    12 C    0.959
                            32 O    0.175
    24   6 C    3.941 --    32 O    1.722    23 N    1.160    25 C    0.970
    25   6 C    3.986 --    26 C    1.406    31 C    1.400    24 C    0.970
                            28 C    0.108
    26   6 C    3.989 --    27 C    1.436    25 C    1.406    63 H    0.968
                            29 C    0.107
    27   6 C    3.991 --    28 C    1.449    26 C    1.436    64 H    0.970
                            31 C    0.108
    28   6 C    3.991 --    27 C    1.449    29 C    1.403    65 H    0.970
                            25 C    0.108
    29   6 C    3.989 --    31 C    1.420    28 C    1.403    30 C    1.025
                            26 C    0.107
    30   6 C    3.995 --    29 C    1.025    67 H    0.983    66 H    0.980
                            68 H    0.968
    31   6 C    3.990 --    29 C    1.420    25 C    1.400    69 H    0.967
                            27 C    0.108
    32   8 O    2.038 --    24 C    1.722    23 N    0.175
    33   6 C    3.961 --    23 N    1.001    37 N    0.966    70 H    0.939
                            34 C    0.885
    34   6 C    3.929 --    36 O    1.776    35 O    1.207    33 C    0.885
    35   8 O    2.233 --    34 C    1.207    71 H    0.758    36 O    0.183
    36   8 O    2.080 --    34 C    1.776    35 O    0.183
    37   7 N    3.502 --    38 C    1.274    33 C    0.966    11 C    0.953
                            46 O    0.185
    38   6 C    3.941 --    46 O    1.588    37 N    1.274    39 C    0.974
    39   6 C    3.986 --    45 C    1.402    40 C    1.402    38 C    0.974
                            43 C    0.108
    40   6 C    3.989 --    41 C    1.419    39 C    1.402    72 H    0.967
                            44 C    0.107
    41   6 C    3.988 --    40 C    1.419    43 C    1.402    42 C    1.027
                            45 C    0.107
    42   6 C    3.995 --    41 C    1.027    74 H    0.985    75 H    0.976
                            73 H    0.967
    43   6 C    3.991 --    44 C    1.450    41 C    1.402    76 H    0.969
                            39 C    0.108
    44   6 C    3.991 --    43 C    1.450    45 C    1.436    77 H    0.969
                            40 C    0.107
    45   6 C    3.990 --    44 C    1.436    39 C    1.402    78 H    0.970
                            41 C    0.107
    46   8 O    2.011 --    38 C    1.588    37 N    0.185
    47   1 H    0.998 --     1 C    0.967
    48   1 H    0.997 --     2 C    0.967
    49   1 H    0.998 --     4 C    0.968
    50   1 H    0.998 --     5 C    0.971
    51   1 H    0.998 --     6 C    0.971
    52   1 H    0.998 --     7 C    0.968
    53   1 H    0.998 --     9 C    0.965
    54   1 H    0.997 --    11 C    0.952
    55   1 H    0.996 --    12 C    0.952
    56   1 H    0.998 --    14 C    0.966
    57   1 H    0.998 --    16 C    0.968
    58   1 H    0.998 --    17 C    0.971
    59   1 H    0.999 --    18 C    0.971
    60   1 H    0.998 --    19 C    0.968
    61   1 H    0.998 --    21 C    0.968
    62   1 H    0.999 --    22 C    0.968
    63   1 H    0.996 --    26 C    0.968
    64   1 H    0.998 --    27 C    0.970
    65   1 H    0.998 --    28 C    0.970
    66   1 H    0.997 --    30 C    0.980
    67   1 H    0.998 --    30 C    0.983
    68   1 H    0.997 --    30 C    0.968
    69   1 H    0.999 --    31 C    0.967
    70   1 H    0.995 --    33 C    0.939
    71   1 H    0.866 --    35 O    0.758
    72   1 H    0.999 --    40 C    0.967
    73   1 H    0.997 --    42 C    0.967
    74   1 H    0.998 --    42 C    0.985
    75   1 H    0.997 --    42 C    0.976
    76   1 H    0.998 --    43 C    0.969
    77   1 H    0.997 --    44 C    0.969
    78   1 H    0.998 --    45 C    0.970
 ---------------------------------------------------------------------------

molecular dipole:
                 x           y           z       tot (Debye)
 q only:       -1.702       1.417      -1.825
   full:       -1.799       1.256      -2.167       7.838

           -------------------------------------------------
          | TOTAL ENERGY             -124.153717644416 Eh   |
          | GRADIENT NORM               0.000849084891 Eh/Î± |
          | HOMO-LUMO GAP               2.798414858833 eV   |
           -------------------------------------------------

 * finished run on 2022/03/17 at 01:20:08.036
