   * xtb version 6.3.3 (4ae9cef) compiled by 'conda@95abc7406d43' on 2020-10-14
          program call               : xtb acid_319.xyz --opt --chrg 0 --uhf 0 --gfn 2
          number of atoms            :                    92
          number of electrons        :                   274
          charge                     :                     0
          spin                       :                   0.0

   ID    Z sym.   atoms
    1    6 C      1-22, 24-27, 29-36, 38, 39, 43-46, 48-55
    2    7 N      23, 42
    3    8 O      28, 37, 40, 41, 47, 56
    4    1 H      57-92

          :  Hamiltonian                  GFN2-xTB          :
 * total energy  :  -151.4312752 Eh     change       -0.5086662E-08 Eh
 * total energy  :  -151.4489167 Eh     change       -0.1764150E-01 Eh
 * total energy  :  -151.4543309 Eh     change       -0.5414214E-02 Eh
 * total energy  :  -151.4558155 Eh     change       -0.1484620E-02 Eh
 * total energy  :  -151.4569271 Eh     change       -0.1111608E-02 Eh
 * total energy  :  -151.4575897 Eh     change       -0.6625826E-03 Eh
 * total energy  :  -151.4581641 Eh     change       -0.5743679E-03 Eh
 * total energy  :  -151.4587336 Eh     change       -0.5695319E-03 Eh
 * total energy  :  -151.4592169 Eh     change       -0.4832855E-03 Eh
 * total energy  :  -151.4596436 Eh     change       -0.4267151E-03 Eh
 * total energy  :  -151.4669105 Eh     change       -0.1882865E-04 Eh
 * total energy  :  -151.4669275 Eh     change       -0.1701780E-04 Eh
 * total energy  :  -151.4669415 Eh     change       -0.1399361E-04 Eh
 * total energy  :  -151.4669586 Eh     change       -0.1710406E-04 Eh
 * total energy  :  -151.4669665 Eh     change       -0.7833678E-05 Eh
 * total energy  :  -151.4669776 Eh     change       -0.1117166E-04 Eh
 * total energy  :  -151.4669869 Eh     change       -0.9251728E-05 Eh
 * total energy  :  -151.4669955 Eh     change       -0.8636668E-05 Eh
 * total energy  :  -151.4670005 Eh     change       -0.4955038E-05 Eh
   *** GEOMETRY OPTIMIZATION CONVERGED AFTER 100 ITERATIONS ***

 final structure:
================
92
 xtb: 6.3.3 (4ae9cef)
C         4.56098888184899   -2.75308798739401    0.15898306421158
C         4.71155000054114   -2.53107972749673   -1.17855831368336
C         3.71452669262349   -1.84425420563949   -1.88362456386070
C         2.60191780466263   -1.37709887503052   -1.24312199951166
C         2.41638402022597   -1.57379946586441    0.14287673342860
C         3.41774242249383   -2.29693334162402    0.84760862988375
C         3.25830638375376   -2.55442020858042    2.22423994422391
C         2.14736861803396   -2.12042107117428    2.88773102986585
C         1.17039952120432   -1.38404491542651    2.20737142743492
C         1.29444510330615   -1.09152693130921    0.87208714654565
C         0.23052898242717   -0.25450653308447    0.21095806817234
C        -1.02833115374843   -1.06715265448166   -0.17888141380636
C        -0.87196462981017   -1.61439235929875   -1.57300070105102
C        -1.24221363012799   -0.84097014556726   -2.64439918393847
C        -1.03268359339954   -1.26993977195510   -3.96056064615303
C        -0.41060080033306   -2.46109591352027   -4.19971872769476
C         0.01598954325382   -3.27384976220354   -3.12981485173903
C        -0.22797882671783   -2.86287699400470   -1.78984466356632
C         0.21700852055398   -3.70962736515683   -0.75066194145056
C         0.88734272557217   -4.87005467294177   -1.01766421469035
C         1.13931150323137   -5.26194711842584   -2.33940622444092
C         0.70124779786439   -4.48311218542991   -3.37113241053460
N        -2.09089778290384   -0.07516598054188   -0.05449195993151
C        -3.38556175863554   -0.42542713104153   -0.37724603673798
C        -4.37650680345227    0.64869281809317   -0.22607988144138
C        -5.68951843456944    0.46671971222824    0.14171118103808
C        -6.40571352401248   -0.76105897068298    0.55787273619758
O        -6.33077110256905    1.64227866283733    0.15330921244643
C        -5.45450907043749    2.60924670078763   -0.22822919018966
C        -5.91287473389367    3.98141214152775   -0.31132024850138
C        -7.25927637801845    4.28502285499544   -0.10135340435411
C        -7.70245221706211    5.59078778811690   -0.17604700371555
C        -6.81340573043148    6.61453943918338   -0.46013736924540
C        -5.47461330731388    6.32324576668827   -0.66803743297836
C        -5.02401640322041    5.02003173325714   -0.59471575889091
C        -4.23136602239093    2.04091655884579   -0.47050311532623
O        -3.64696339145874   -1.52085039471807   -0.82854680728222
C        -1.74748558658043    0.79058692288479    1.04630257814461
C        -2.35620512336436    0.26340179973916    2.36459981867792
O        -1.51596891228545    0.33241127074046    3.39010443385424
O        -3.47557683201152   -0.15924632304411    2.44983815104815
N        -0.30686078082426    0.80094614668579    1.05758797492607
C         0.37804992595678    1.81208352116534    1.65847459185881
C         1.84860687776462    1.64955393701654    1.61728369404850
C         2.64025347369556    1.46607820481096    2.72305298863602
C         2.29897847242402    1.49204921434662    4.16593762896246
O         3.90076338719996    1.19212463987032    2.34721957050287
C         3.95081238200120    1.21891877602871    0.99145506555789
C         5.17683085709848    0.84153290379721    0.31957054836288
C         6.22847445248174    0.28466306171814    1.04850865473397
C         7.37690964448584   -0.13686254944747    0.40878653385782
C         7.49655588725758   -0.00997776840204   -0.96535936291089
C         6.46074751809900    0.54914821343403   -1.69601070979751
C         5.30904063567731    0.97240098506415   -1.06305047045799
C         2.70692749971260    1.51182599486726    0.49669427806819
O        -0.20092379624383    2.71469769033812    2.23004586776107
H         5.31603439469641   -3.28888005323787    0.71604358027194
H         5.58981296377119   -2.88168719334949   -1.69905446918076
H         3.82951367640314   -1.68517173787970   -2.94535710190314
H         1.84956473174719   -0.86771731144485   -1.82423717790639
H         4.03065609816257   -3.10523741372100    2.74119010474520
H         2.01647290138980   -2.32922482779389    3.93947858780157
H         0.31893470831861   -1.01217295487173    2.75654383955774
H         0.62456891989939    0.20984410212482   -0.69930039730838
H        -1.20438917659769   -1.87714154858596    0.54086726670210
H        -1.71234753780432    0.11636842706104   -2.47514268961161
H        -1.35691668901836   -0.64319046291669   -4.77805338193450
H        -0.22775480083099   -2.79585444312255   -5.21070646143383
H         0.03670991688468   -3.44415105580735    0.27866704996506
H         1.22681008633856   -5.49437906158781   -0.20428598789707
H         1.67186891680473   -6.18158035273954   -2.53168095893646
H         0.87716223700456   -4.77806178448189   -4.39595159866076
H        -6.22165227016821   -0.95182267702232    1.61539328051246
H        -7.47467062712081   -0.64328923574869    0.40040981972829
H        -6.02908692516801   -1.60652830464133   -0.01106625066222
H        -7.94966526874062    3.48552184909779    0.12006046600888
H        -8.74694556197865    5.81266243858308   -0.01218772875378
H        -7.16133432672787    7.63517090295640   -0.51819948892723
H        -4.77756539716318    7.11898349146192   -0.88660540237623
H        -3.97880206849749    4.80371613605602   -0.75089863650803
H        -3.35342525310654    2.53989537770160   -0.82737667616006
H        -2.13624061598838    1.81273735988171    0.93032201641132
H        -1.95441230076748    0.06166710314096    4.21418748136882
H         2.38026980415068    0.49308411445644    4.59422918439411
H         2.98333649591091    2.14720711665647    4.70228506143126
H         1.28296749367813    1.85653912404946    4.28346555879737
H         6.12778673892706    0.18109099313634    2.11804229403775
H         8.18328457014481   -0.56921041323553    0.98309224096183
H         8.39438970005659   -0.34271108217314   -1.46478035705993
H         6.55305116445339    0.65502649682370   -2.76701410864073
H         4.50817054208528    1.40950041115629   -1.63808076343799
H         2.44107754935296    1.62846433408831   -0.53298813988094

          :  Hamiltonian                  GFN2-xTB          :
         :: total energy            -151.467000492169 Eh    ::
         :: gradient norm              0.000777419959 Eh/a0 ::
         :: HOMO-LUMO gap              2.619156021329 eV    ::
         :: SCC energy              -153.888317550583 Eh    ::
         :: -> dispersion             -0.145923654416 Eh    ::
         :: repulsion energy           2.415678469517 Eh    ::

    * Orbital Energies and Occupations

         #    Occupation            Energy/Eh            Energy/eV
      -------------------------------------------------------------
         1        2.0000           -0.7708621             -20.9762
       ...           ...                  ...                  ...
       125        2.0000           -0.4147926             -11.2871
       126        2.0000           -0.4124309             -11.2228
       127        2.0000           -0.4082319             -11.1086
       128        2.0000           -0.4043414             -11.0027
       129        2.0000           -0.4039898             -10.9931
       130        2.0000           -0.4017812             -10.9330
       131        2.0000           -0.4014220             -10.9232
       132        2.0000           -0.3952704             -10.7559
       133        2.0000           -0.3919870             -10.6665
       134        2.0000           -0.3866200             -10.5205
       135        2.0000           -0.3767844             -10.2528
       136        2.0000           -0.3745568             -10.1922
       137        2.0000           -0.3680453             -10.0150 (HOMO)
       138                         -0.2717931              -7.3959 (LUMO)
       139                         -0.2614029              -7.1131
       140                         -0.2595098              -7.0616
       141                         -0.2546436              -6.9292
       142                         -0.2483003              -6.7566
       143                         -0.2381671              -6.4809
       144                         -0.2359427              -6.4203
       145                         -0.2300435              -6.2598
       146                         -0.2294234              -6.2429
       147                         -0.2272687              -6.1843
       148                         -0.2211712              -6.0184
       ...                                ...                  ...
       260                          0.7148881              19.4531
      -------------------------------------------------------------
                  HL-Gap            0.0962522 Eh            2.6192 eV

     #   Z          covCN         q      C6AA      Î±(0)
     1   6 C        2.922    -0.033    28.822     8.804
     2   6 C        2.915    -0.028    28.694     8.784
     3   6 C        2.917    -0.027    28.672     8.781
     4   6 C        2.917    -0.035    28.870     8.811
     5   6 C        2.983     0.008    27.831     8.654
     6   6 C        2.989     0.015    27.663     8.628
     7   6 C        2.921    -0.034    28.855     8.809
     8   6 C        2.914    -0.031    28.772     8.796
     9   6 C        2.923    -0.040    28.994     8.830
    10   6 C        2.966    -0.005    28.133     8.700
    11   6 C        3.827     0.039    19.906     6.348
    12   6 C        3.844     0.055    19.629     6.302
    13   6 C        2.969     0.008    27.837     8.654
    14   6 C        2.922    -0.030    28.744     8.792
    15   6 C        2.914    -0.029    28.718     8.788
    16   6 C        2.920    -0.036    28.890     8.814
    17   6 C        2.989     0.016    27.646     8.625
    18   6 C        2.984     0.011    27.758     8.642
    19   6 C        2.917    -0.033    28.822     8.804
    20   6 C        2.917    -0.029    28.725     8.789
    21   6 C        2.915    -0.029    28.736     8.790
    22   6 C        2.921    -0.034    28.850     8.808
    23   7 N        2.766    -0.139    24.005     7.277
    24   6 C        2.760     0.283    22.214     7.718
    25   6 C        3.060    -0.062    29.490     8.905
    26   6 C        3.080     0.141    24.858     8.174
    27   6 C        3.753    -0.122    22.904     6.824
    28   8 O        1.730    -0.187    17.124     5.587
    29   6 C        3.085     0.104    25.615     8.297
    30   6 C        2.970     0.006    27.884     8.662
    31   6 C        2.925    -0.031    28.766     8.796
    32   6 C        2.918    -0.028    28.704     8.786
    33   6 C        2.920    -0.031    28.763     8.795
    34   6 C        2.919    -0.027    28.688     8.783
    35   6 C        2.924    -0.036    28.899     8.816
    36   6 C        3.007    -0.075    29.852     8.963
    37   8 O        0.859    -0.420    22.093     6.302
    38   6 C        3.783     0.096    19.011     6.211
    39   6 C        2.687     0.353    21.011     7.501
    40   8 O        1.659    -0.352    19.939     6.028
    41   8 O        0.856    -0.395    21.578     6.228
    42   7 N        2.766    -0.114    23.486     7.198
    43   6 C        2.759     0.275    22.348     7.742
    44   6 C        3.063    -0.061    29.443     8.898
    45   6 C        3.085     0.126    25.143     8.220
    46   6 C        3.753    -0.119    22.833     6.814
    47   8 O        1.730    -0.193    17.212     5.602
    48   6 C        3.089     0.105    25.589     8.292
    49   6 C        2.971     0.005    27.899     8.664
    50   6 C        2.926    -0.030    28.756     8.794
    51   6 C        2.919    -0.028    28.707     8.786
    52   6 C        2.920    -0.031    28.765     8.795
    53   6 C        2.919    -0.027    28.686     8.783
    54   6 C        2.925    -0.035    28.882     8.813
    55   6 C        3.011    -0.070    29.721     8.943
    56   8 O        0.859    -0.436    22.413     6.347
    57   1 H        0.926     0.036     2.497     2.471
    58   1 H        0.926     0.035     2.517     2.481
    59   1 H        0.926     0.035     2.523     2.484
    60   1 H        0.926     0.028     2.618     2.530
    61   1 H        0.926     0.037     2.487     2.466
    62   1 H        0.926     0.033     2.546     2.495
    63   1 H        0.926     0.039     2.457     2.451
    64   1 H        0.924     0.052     2.300     2.372
    65   1 H        0.924     0.044     2.402     2.424
    66   1 H        0.926     0.035     2.510     2.478
    67   1 H        0.926     0.036     2.500     2.473
    68   1 H        0.926     0.036     2.502     2.473
    69   1 H        0.926     0.026     2.647     2.544
    70   1 H        0.926     0.030     2.582     2.513
    71   1 H        0.926     0.033     2.549     2.497
    72   1 H        0.926     0.035     2.518     2.481
    73   1 H        0.924     0.076     2.017     2.221
    74   1 H        0.925     0.064     2.150     2.293
    75   1 H        0.925     0.083     1.947     2.182
    76   1 H        0.926     0.044     2.390     2.418
    77   1 H        0.926     0.033     2.547     2.495
    78   1 H        0.926     0.032     2.556     2.500
    79   1 H        0.926     0.034     2.532     2.489
    80   1 H        0.926     0.034     2.531     2.488
    81   1 H        0.926     0.034     2.530     2.487
    82   1 H        0.923     0.095     1.836     2.119
    83   1 H        0.804     0.342     0.608     1.225
    84   1 H        0.925     0.061     2.182     2.310
    85   1 H        0.925     0.069     2.098     2.265
    86   1 H        0.925     0.073     2.057     2.243
    87   1 H        0.926     0.043     2.404     2.425
    88   1 H        0.926     0.034     2.528     2.486
    89   1 H        0.926     0.034     2.534     2.489
    90   1 H        0.926     0.034     2.526     2.485
    91   1 H        0.926     0.033     2.547     2.495
    92   1 H        0.927     0.035     2.522     2.483

Wiberg/Mayer (AO) data.
largest (>0.10) Wiberg bond orders for each atom

     #   Z sym  total        # sym  WBO       # sym  WBO       # sym  WBO
 ---------------------------------------------------------------------------
     1   6 C    3.991 --     2 C    1.558     6 C    1.278    57 H    0.968
                             4 C    0.118
     2   6 C    3.992 --     1 C    1.558     3 C    1.321    58 H    0.971
     3   6 C    3.991 --     4 C    1.555     2 C    1.321    59 H    0.971
     4   6 C    3.992 --     3 C    1.555     5 C    1.282    60 H    0.961
                             1 C    0.118
     5   6 C    3.988 --     4 C    1.282     6 C    1.253    10 C    1.250
     6   6 C    3.990 --     7 C    1.280     1 C    1.278     5 C    1.253
     7   6 C    3.990 --     8 C    1.551     6 C    1.280    61 H    0.968
                            10 C    0.114
     8   6 C    3.992 --     7 C    1.551     9 C    1.327    62 H    0.970
     9   6 C    3.989 --    10 C    1.521     8 C    1.327    63 H    0.964
    10   6 C    3.985 --     9 C    1.521     5 C    1.250    11 C    0.994
                             7 C    0.114
    11   6 C    3.965 --    10 C    0.994    42 N    0.961    64 H    0.946
                            12 C    0.944
    12   6 C    3.967 --    13 C    0.995    23 N    0.963    65 H    0.948
                            11 C    0.944
    13   6 C    3.984 --    14 C    1.522    18 C    1.252    12 C    0.995
                            16 C    0.115
    14   6 C    3.990 --    13 C    1.522    15 C    1.327    66 H    0.967
    15   6 C    3.992 --    16 C    1.552    14 C    1.327    67 H    0.970
    16   6 C    3.990 --    15 C    1.552    17 C    1.280    68 H    0.968
                            13 C    0.115
    17   6 C    3.990 --    16 C    1.280    22 C    1.279    18 C    1.253
    18   6 C    3.989 --    19 C    1.283    17 C    1.253    13 C    1.252
    19   6 C    3.992 --    20 C    1.555    18 C    1.283    69 H    0.962
                            22 C    0.118
    20   6 C    3.992 --    19 C    1.555    21 C    1.322    70 H    0.971
    21   6 C    3.992 --    22 C    1.557    20 C    1.322    71 H    0.971
    22   6 C    3.991 --    21 C    1.557    17 C    1.279    72 H    0.968
                            19 C    0.118
    23   7 N    3.387 --    24 C    1.142    38 C    0.988    12 C    0.963
                            37 O    0.164
    24   6 C    3.943 --    37 O    1.699    23 N    1.142    25 C    1.015
    25   6 C    3.972 --    26 C    1.483    36 C    1.262    24 C    1.015
    26   6 C    3.910 --    25 C    1.483    28 O    1.150    27 C    1.037
                            29 C    0.110
    27   6 C    3.989 --    26 C    1.037    74 H    0.978    75 H    0.970
                            73 H    0.956
    28   8 O    2.438 --    26 C    1.150    29 C    1.082
    29   6 C    3.905 --    36 C    1.531    30 C    1.090    28 O    1.082
                            26 C    0.110
    30   6 C    3.988 --    31 C    1.370    35 C    1.367    29 C    1.090
    31   6 C    3.989 --    32 C    1.459    30 C    1.370    76 H    0.969
                            34 C    0.105
    32   6 C    3.992 --    31 C    1.459    33 C    1.431    77 H    0.971
                            35 C    0.105
    33   6 C    3.979 --    32 C    1.431    34 C    1.428    78 H    0.972
    34   6 C    3.992 --    35 C    1.462    33 C    1.428    79 H    0.971
                            31 C    0.105
    35   6 C    3.989 --    34 C    1.462    30 C    1.367    80 H    0.969
                            32 C    0.105
    36   6 C    3.981 --    29 C    1.531    25 C    1.262    81 H    0.970
    37   8 O    2.020 --    24 C    1.699    23 N    0.164
    38   6 C    3.970 --    42 N    0.990    23 N    0.988    82 H    0.920
                            39 C    0.912
    39   6 C    3.915 --    41 O    1.774    40 O    1.161    38 C    0.912
    40   8 O    2.232 --    39 C    1.161    83 H    0.856    41 O    0.180
    41   8 O    2.060 --    39 C    1.774    40 O    0.180
    42   7 N    3.462 --    43 C    1.202    38 C    0.990    11 C    0.961
                            56 O    0.188
    43   6 C    3.946 --    56 O    1.677    42 N    1.202    44 C    0.984
    44   6 C    3.973 --    45 C    1.506    55 C    1.269    43 C    0.984
    45   6 C    3.906 --    44 C    1.506    47 O    1.134    46 C    1.033
                            48 C    0.116
    46   6 C    3.991 --    45 C    1.033    86 H    0.980    85 H    0.968
                            84 H    0.964
    47   8 O    2.431 --    45 C    1.134    48 C    1.089
    48   6 C    3.907 --    55 C    1.524    47 O    1.089    49 C    1.089
                            45 C    0.116
    49   6 C    3.988 --    50 C    1.369    54 C    1.368    48 C    1.089
    50   6 C    3.991 --    51 C    1.459    49 C    1.369    87 H    0.969
                            53 C    0.105
    51   6 C    3.992 --    50 C    1.459    52 C    1.431    88 H    0.971
                            54 C    0.105
    52   6 C    3.979 --    51 C    1.431    53 C    1.428    89 H    0.972
    53   6 C    3.992 --    54 C    1.461    52 C    1.428    90 H    0.971
                            50 C    0.105
    54   6 C    3.990 --    53 C    1.461    49 C    1.368    91 H    0.969
                            51 C    0.105
    55   6 C    3.981 --    48 C    1.524    44 C    1.269    92 H    0.971
    56   8 O    2.002 --    43 C    1.677    42 N    0.188
    57   1 H    0.998 --     1 C    0.968
    58   1 H    0.998 --     2 C    0.971
    59   1 H    0.998 --     3 C    0.971
    60   1 H    0.999 --     4 C    0.961
    61   1 H    0.998 --     7 C    0.968
    62   1 H    0.998 --     8 C    0.970
    63   1 H    0.998 --     9 C    0.964
    64   1 H    0.997 --    11 C    0.946
    65   1 H    0.998 --    12 C    0.948
    66   1 H    0.998 --    14 C    0.967
    67   1 H    0.998 --    15 C    0.970
    68   1 H    0.998 --    16 C    0.968
    69   1 H    0.999 --    19 C    0.962
    70   1 H    0.999 --    20 C    0.971
    71   1 H    0.998 --    21 C    0.971
    72   1 H    0.998 --    22 C    0.968
    73   1 H    0.992 --    27 C    0.956
    74   1 H    0.995 --    27 C    0.978
    75   1 H    0.992 --    27 C    0.970
    76   1 H    0.998 --    31 C    0.969
    77   1 H    0.998 --    32 C    0.971
    78   1 H    0.999 --    33 C    0.972
    79   1 H    0.998 --    34 C    0.971
    80   1 H    0.999 --    35 C    0.969
    81   1 H    0.999 --    36 C    0.970
    82   1 H    0.990 --    38 C    0.920
    83   1 H    0.883 --    40 O    0.856
    84   1 H    0.995 --    46 C    0.964
    85   1 H    0.994 --    46 C    0.968
    86   1 H    0.994 --    46 C    0.980
    87   1 H    0.998 --    50 C    0.969
    88   1 H    0.998 --    51 C    0.971
    89   1 H    0.998 --    52 C    0.972
    90   1 H    0.998 --    53 C    0.971
    91   1 H    0.999 --    54 C    0.969
    92   1 H    0.999 --    55 C    0.971
 ---------------------------------------------------------------------------

molecular dipole:
                 x           y           z       tot (Debye)
 q only:        1.521      -0.571       0.143
   full:        1.521      -0.513       0.401       4.204

           -------------------------------------------------
          | TOTAL ENERGY             -151.467000492169 Eh   |
          | GRADIENT NORM               0.000777419959 Eh/Î± |
          | HOMO-LUMO GAP               2.619156021329 eV   |
           -------------------------------------------------

 * finished run on 2022/03/16 at 23:47:29.407
