   * xtb version 6.3.3 (4ae9cef) compiled by 'conda@95abc7406d43' on 2020-10-14
          program call               : xtb acid_262.xyz --opt --chrg 0 --uhf 0 --gfn 2
          number of atoms            :                    60
          number of electrons        :                   190
          charge                     :                     0
          spin                       :                   0.0

   ID    Z sym.   atoms
    1    6 C      1-14, 16-18, 20-23, 25, 26, 30-36
    2    7 N      15, 29
    3   17 Cl     19, 37
    4    8 O      24, 27, 28, 38
    5    1 H      39-60

          :  Hamiltonian                  GFN2-xTB          :
 * total energy  :  -106.6932072 Eh     change       -0.5170634E-08 Eh
 * total energy  :  -106.7065351 Eh     change       -0.1332795E-01 Eh
 * total energy  :  -106.7104283 Eh     change       -0.3893217E-02 Eh
 * total energy  :  -106.7115355 Eh     change       -0.1107156E-02 Eh
 * total energy  :  -106.7121222 Eh     change       -0.5867193E-03 Eh
 * total energy  :  -106.7124509 Eh     change       -0.3287076E-03 Eh
 * total energy  :  -106.7127893 Eh     change       -0.3383600E-03 Eh
 * total energy  :  -106.7131575 Eh     change       -0.3682752E-03 Eh
 * total energy  :  -106.7135264 Eh     change       -0.3688721E-03 Eh
 * total energy  :  -106.7137072 Eh     change       -0.1807684E-03 Eh
 * total energy  :  -106.7151375 Eh     change       -0.2559970E-04 Eh
 * total energy  :  -106.7151607 Eh     change       -0.2316784E-04 Eh
 * total energy  :  -106.7151415 Eh     change        0.1919189E-04 Eh
 * total energy  :  -106.7151713 Eh     change       -0.2977265E-04 Eh
 * total energy  :  -106.7151845 Eh     change       -0.1327929E-04 Eh
 * total energy  :  -106.7151968 Eh     change       -0.1222709E-04 Eh
 * total energy  :  -106.7152103 Eh     change       -0.1356874E-04 Eh
 * total energy  :  -106.7152203 Eh     change       -0.1001270E-04 Eh
 * total energy  :  -106.7152230 Eh     change       -0.2617228E-05 Eh
   *** GEOMETRY OPTIMIZATION CONVERGED AFTER 40 ITERATIONS ***

 final structure:
================
60
 xtb: 6.3.3 (4ae9cef)
C        -3.29155239388794   -1.36441698078525    0.19231943368398
C        -4.50261630926275   -1.88427701336961   -0.23219088562166
C        -4.57690259388203   -3.18051916198896   -0.70873427374622
C        -3.43426334217414   -3.96237501244678   -0.74607378143368
C        -2.22467982040250   -3.44392910384865   -0.32272860829306
C        -2.14061817017219   -2.13435022311678    0.13675987326899
C        -0.79877100538293   -1.61342575946021    0.59911024316076
C         0.31010775676419   -1.76409902812953   -0.46814263650070
C         1.54751529592333   -2.43173959118938    0.07679565504569
C         2.28156602095287   -1.81340758065384    1.08174410557247
C         3.41191579004859   -2.42039556007261    1.59637778822612
C         3.81832833638516   -3.65250793599885    1.11205336767003
C         3.09217456474062   -4.27176548449349    0.10984069485530
C         1.96177932893451   -3.66331083296342   -0.40691621884580
N         0.60385007302155   -0.39106810199599   -0.86202797684967
C         1.45993998960198   -0.11354089962021   -1.87576639983458
C         1.62707070294975    1.35942581553048   -2.12528522143973
C         1.00597302887482    1.97528690892580   -3.20442543556196
Cl        0.01145017512008    1.03358197425652   -4.25596626857492
C         1.16530284796153    3.33098310647555   -3.44074899063796
C         1.96194594107260    4.07787225320876   -2.59215250172826
C         2.60014751810822    3.47532920437489   -1.52034705686494
C         2.43364067970474    2.12209442071408   -1.28922684416653
O         2.04772523021295   -0.97209888036122   -2.49237011294725
C        -0.20607762939480    0.57064916833787   -0.15832262555850
C        -1.27776031919402    1.18574128890604   -1.08970048823166
O        -1.87022020630063    0.26985670293936   -1.83588766063347
O        -1.51551869350385    2.36112522480187   -1.12446315264667
N        -0.78662283821657   -0.19301624969386    0.91354534824806
C        -0.93690382013652    0.24349480814833    2.19492500019159
C        -0.69553606242687    1.71547046583179    2.37177355336671
C         0.53527270763559    2.15822363414419    2.84267296301042
C         0.77589094283472    3.50975566550538    3.01353303982939
C        -0.21713599225508    4.43061643930703    2.72216031849288
C        -1.45479727486820    4.00521175621523    2.27318286270293
C        -1.68831994577470    2.65066528466197    2.10234920766835
Cl       -3.23633714524781    2.11866363467074    1.56566756110555
O        -1.22681984001822   -0.49967095327105    3.10324062707540
H        -3.25099779451123   -0.35829799243960    0.57829604084582
H        -5.39105564655054   -1.27185397779852   -0.18446317690624
H        -5.52180286149277   -3.58436907046315   -1.04046338554514
H        -3.48634886110632   -4.98070511747980   -1.10192511450444
H        -1.33914742556096   -4.06301734021917   -0.33728291705375
H        -0.52801855953672   -2.14964934177013    1.51912744350472
H        -0.05324009559963   -2.31271298589160   -1.34391576134497
H         1.96562032164475   -0.85152834475823    1.46216107353822
H         3.97712819895642   -1.93208792359558    2.37671662442569
H         4.70179936249721   -4.12611287799237    1.51340789151577
H         3.40919532240113   -5.22963332148984   -0.27483395779053
H         1.40427333212720   -4.14151159451958   -1.19851842144586
H         0.66652254425399    3.78934906618738   -4.27965016145775
H         2.08598196893039    5.13461359595403   -2.77182187699064
H         3.22718173623690    4.05936544971099   -0.86442577704495
H         2.93623425587885    1.64108177346056   -0.46241257279551
H         0.38523613411758    1.41276436643804    0.23109844750424
H        -2.52594178206359    0.66524993272476   -2.43401857539881
H         1.30061622524738    1.43238024883241    3.07616102103427
H         1.73646496778947    3.84293877722119    3.37505560169058
H        -0.03225978024740    5.48587582445915    2.85156996337924
H        -2.23758509175390    4.71372644992984    2.05356308778109

          :  Hamiltonian                  GFN2-xTB          :
         :: total energy            -106.715222968465 Eh    ::
         :: gradient norm              0.000996555859 Eh/a0 ::
         :: HOMO-LUMO gap              3.527680286458 eV    ::
         :: SCC energy              -108.254085041394 Eh    ::
         :: -> dispersion             -0.091945207377 Eh    ::
         :: repulsion energy           1.535338942038 Eh    ::

    * Orbital Energies and Occupations

         #    Occupation            Energy/Eh            Energy/eV
      -------------------------------------------------------------
         1        2.0000           -1.0651918             -28.9853
       ...           ...                  ...                  ...
        83        2.0000           -0.4307743             -11.7220
        84        2.0000           -0.4287338             -11.6664
        85        2.0000           -0.4245302             -11.5521
        86        2.0000           -0.4203733             -11.4389
        87        2.0000           -0.4133358             -11.2474
        88        2.0000           -0.4126753             -11.2295
        89        2.0000           -0.4118922             -11.2082
        90        2.0000           -0.4116989             -11.2029
        91        2.0000           -0.4102827             -11.1644
        92        2.0000           -0.4079179             -11.1000
        93        2.0000           -0.4073833             -11.0855
        94        2.0000           -0.4017464             -10.9321
        95        2.0000           -0.4002937             -10.8925 (HOMO)
        96                         -0.2706538              -7.3649 (LUMO)
        97                         -0.2567519              -6.9866
        98                         -0.2558419              -6.9618
        99                         -0.2531906              -6.8897
       100                         -0.2519212              -6.8551
       101                         -0.2368521              -6.4451
       102                         -0.2310370              -6.2868
       103                         -0.2301009              -6.2614
       104                         -0.2280651              -6.2060
       105                         -0.2276974              -6.1960
       106                         -0.2230177              -6.0686
       ...                                ...                  ...
       184                          0.6597636              17.9531
      -------------------------------------------------------------
                  HL-Gap            0.1296399 Eh            3.5277 eV

     #   Z          covCN         q      C6AA      α(0)
     1   6 C        2.923    -0.029    28.716     8.788
     2   6 C        2.920    -0.027    28.678     8.782
     3   6 C        2.920    -0.030    28.745     8.792
     4   6 C        2.920    -0.027    28.671     8.781
     5   6 C        2.925    -0.037    28.918     8.819
     6   6 C        2.971     0.008    27.844     8.655
     7   6 C        3.826     0.040    19.890     6.346
     8   6 C        3.821     0.042    19.858     6.342
     9   6 C        2.974     0.008    27.831     8.654
    10   6 C        2.924    -0.030    28.759     8.794
    11   6 C        2.919    -0.027    28.672     8.781
    12   6 C        2.921    -0.028    28.691     8.784
    13   6 C        2.920    -0.024    28.614     8.772
    14   6 C        2.924    -0.027    28.671     8.781
    15   7 N        2.769    -0.111    23.427     7.189
    16   6 C        2.762     0.278    22.298     7.733
    17   6 C        3.013    -0.030    28.724     8.791
    18   6 C        2.892     0.100    25.783     8.325
    19  17 Cl       0.968    -0.167   104.376    15.630
    20   6 C        2.954    -0.033    28.829     8.807
    21   6 C        2.923    -0.023    28.571     8.766
    22   6 C        2.918    -0.030    28.741     8.791
    23   6 C        2.925    -0.028    28.702     8.786
    24   8 O        0.859    -0.406    21.792     6.259
    25   6 C        3.757     0.089    19.163     6.241
    26   6 C        2.687     0.353    21.002     7.500
    27   8 O        1.659    -0.340    19.722     5.995
    28   8 O        0.856    -0.390    21.477     6.213
    29   7 N        2.766    -0.107    23.335     7.175
    30   6 C        2.762     0.279    22.285     7.731
    31   6 C        3.011    -0.027    28.665     8.783
    32   6 C        2.925    -0.026    28.644     8.777
    33   6 C        2.918    -0.031    28.775     8.796
    34   6 C        2.922    -0.024    28.612     8.772
    35   6 C        2.957    -0.033    28.812     8.804
    36   6 C        2.891     0.102    25.736     8.317
    37  17 Cl       0.970    -0.161   104.208    15.617
    38   8 O        0.859    -0.401    21.692     6.244
    39   1 H        0.926     0.037     2.486     2.466
    40   1 H        0.926     0.036     2.500     2.473
    41   1 H        0.926     0.036     2.502     2.473
    42   1 H        0.926     0.037     2.486     2.465
    43   1 H        0.926     0.033     2.549     2.497
    44   1 H        0.923     0.081     1.968     2.194
    45   1 H        0.924     0.069     2.092     2.262
    46   1 H        0.925     0.021     2.718     2.578
    47   1 H        0.926     0.035     2.516     2.480
    48   1 H        0.926     0.038     2.480     2.463
    49   1 H        0.926     0.040     2.444     2.445
    50   1 H        0.926     0.040     2.446     2.446
    51   1 H        0.926     0.067     2.116     2.275
    52   1 H        0.926     0.056     2.247     2.344
    53   1 H        0.926     0.051     2.304     2.374
    54   1 H        0.926     0.045     2.381     2.413
    55   1 H        0.923     0.061     2.188     2.313
    56   1 H        0.804     0.348     0.593     1.210
    57   1 H        0.926     0.048     2.339     2.392
    58   1 H        0.926     0.052     2.301     2.372
    59   1 H        0.926     0.055     2.264     2.353
    60   1 H        0.926     0.067     2.121     2.277

Wiberg/Mayer (AO) data.
largest (>0.10) Wiberg bond orders for each atom

     #   Z sym  total        # sym  WBO       # sym  WBO       # sym  WBO
 ---------------------------------------------------------------------------
     1   6 C    3.991 --     2 C    1.436     6 C    1.422    39 H    0.964
                             4 C    0.110
     2   6 C    3.992 --     3 C    1.446     1 C    1.436    40 H    0.971
                             5 C    0.113
     3   6 C    3.992 --     2 C    1.446     4 C    1.432    41 H    0.971
                             6 C    0.110
     4   6 C    3.991 --     5 C    1.452     3 C    1.432    42 H    0.971
                             1 C    0.110
     5   6 C    3.991 --     4 C    1.452     6 C    1.405    43 H    0.968
                             2 C    0.113
     6   6 C    3.985 --     1 C    1.422     5 C    1.405     7 C    0.985
                             3 C    0.110
     7   6 C    3.958 --     6 C    0.985    29 N    0.962     8 C    0.956
                            44 H    0.941
     8   6 C    3.959 --     9 C    0.987     7 C    0.956    45 H    0.953
                            15 N    0.952
     9   6 C    3.985 --    14 C    1.417    10 C    1.409     8 C    0.987
                            12 C    0.110
    10   6 C    3.992 --    11 C    1.449     9 C    1.409    46 H    0.969
                            13 C    0.112
    11   6 C    3.992 --    10 C    1.449    12 C    1.435    47 H    0.971
                            14 C    0.111
    12   6 C    3.990 --    13 C    1.442    11 C    1.435    48 H    0.971
                             9 C    0.110
    13   6 C    3.992 --    12 C    1.442    14 C    1.441    49 H    0.970
                            10 C    0.112
    14   6 C    3.989 --    13 C    1.441     9 C    1.417    50 H    0.968
                            11 C    0.111
    15   7 N    3.471 --    16 C    1.213    25 C    0.984     8 C    0.952
                            24 O    0.196
    16   6 C    3.951 --    24 O    1.706    15 N    1.213    17 C    0.948
    17   6 C    3.986 --    23 C    1.402    18 C    1.381    16 C    0.948
                            21 C    0.108
    18   6 C    3.921 --    20 C    1.401    17 C    1.381    19 Cl   0.978
    19  17 Cl   1.120 --    18 C    0.978
    20   6 C    3.987 --    21 C    1.444    18 C    1.401    51 H    0.966
                            23 C    0.110
    21   6 C    3.990 --    20 C    1.444    22 C    1.431    52 H    0.968
                            17 C    0.108
    22   6 C    3.991 --    23 C    1.444    21 C    1.431    53 H    0.969
    23   6 C    3.990 --    22 C    1.444    17 C    1.402    54 H    0.968
                            20 C    0.110
    24   8 O    2.037 --    16 C    1.706    15 N    0.196
    25   6 C    3.972 --    29 N    0.991    15 N    0.984    55 H    0.942
                            26 C    0.901
    26   6 C    3.923 --    28 O    1.774    27 O    1.181    25 C    0.901
    27   8 O    2.248 --    26 C    1.181    56 H    0.851    28 O    0.189
    28   8 O    2.058 --    26 C    1.774    27 O    0.189
    29   7 N    3.471 --    30 C    1.199    25 C    0.991     7 C    0.962
                            38 O    0.192
    30   6 C    3.948 --    38 O    1.715    29 N    1.199    31 C    0.951
    31   6 C    3.987 --    32 C    1.403    36 C    1.376    30 C    0.951
                            34 C    0.108
    32   6 C    3.989 --    33 C    1.441    31 C    1.403    57 H    0.968
                            35 C    0.109
    33   6 C    3.991 --    32 C    1.441    34 C    1.433    58 H    0.969
                            36 C    0.100
    34   6 C    3.990 --    35 C    1.442    33 C    1.433    59 H    0.969
                            31 C    0.108
    35   6 C    3.987 --    34 C    1.442    36 C    1.404    60 H    0.966
                            32 C    0.109
    36   6 C    3.921 --    35 C    1.404    31 C    1.376    37 Cl   0.980
                            33 C    0.100
    37  17 Cl   1.130 --    36 C    0.980
    38   8 O    2.043 --    30 C    1.715    29 N    0.192
    39   1 H    0.999 --     1 C    0.964
    40   1 H    0.998 --     2 C    0.971
    41   1 H    0.998 --     3 C    0.971
    42   1 H    0.998 --     4 C    0.971
    43   1 H    0.999 --     5 C    0.968
    44   1 H    0.992 --     7 C    0.941
    45   1 H    0.994 --     8 C    0.953
    46   1 H    1.000 --    10 C    0.969
    47   1 H    0.998 --    11 C    0.971
    48   1 H    0.998 --    12 C    0.971
    49   1 H    0.998 --    13 C    0.970
    50   1 H    0.998 --    14 C    0.968
    51   1 H    0.995 --    20 C    0.966
    52   1 H    0.996 --    21 C    0.968
    53   1 H    0.996 --    22 C    0.969
    54   1 H    0.998 --    23 C    0.968
    55   1 H    0.996 --    25 C    0.942
    56   1 H    0.879 --    27 O    0.851
    57   1 H    0.998 --    32 C    0.968
    58   1 H    0.996 --    33 C    0.969
    59   1 H    0.997 --    34 C    0.969
    60   1 H    0.995 --    35 C    0.966
 ---------------------------------------------------------------------------

molecular dipole:
                 x           y           z       tot (Debye)
 q only:        0.597       0.911       0.227
   full:        0.421       1.091      -0.029       2.973

           -------------------------------------------------
          | TOTAL ENERGY             -106.715222968465 Eh   |
          | GRADIENT NORM               0.000996555859 Eh/α |
          | HOMO-LUMO GAP               3.527680286458 eV   |
           -------------------------------------------------

 * finished run on 2022/03/16 at 23:07:38.715
