   * xtb version 6.3.3 (4ae9cef) compiled by 'conda@95abc7406d43' on 2020-10-14
          program call               : xtb acid_372.xyz --opt --chrg 0 --uhf 0 --gfn 2
          number of atoms            :                    68
          number of electrons        :                   206
          charge                     :                     0
          spin                       :                   0.0

   ID    Z sym.   atoms
    1    6 C      1, 3-16, 18, 20-25, 28, 29, 33-38
    2    8 O      2, 17, 26, 27, 30, 31, 39, 40
    3    7 N      19, 32
    4    1 H      41-68

          :  Hamiltonian                  GFN2-xTB          :
 * total energy  :  -116.9266275 Eh     change       -0.2845582E-08 Eh
 * total energy  :  -116.9396452 Eh     change       -0.1301777E-01 Eh
 * total energy  :  -116.9439769 Eh     change       -0.4331707E-02 Eh
 * total energy  :  -116.9456329 Eh     change       -0.1655932E-02 Eh
 * total energy  :  -116.9469462 Eh     change       -0.1313312E-02 Eh
 * total energy  :  -116.9478923 Eh     change       -0.9461137E-03 Eh
 * total energy  :  -116.9487205 Eh     change       -0.8281614E-03 Eh
 * total energy  :  -116.9495647 Eh     change       -0.8442223E-03 Eh
 * total energy  :  -116.9504435 Eh     change       -0.8788168E-03 Eh
 * total energy  :  -116.9513478 Eh     change       -0.9043016E-03 Eh
 * total energy  :  -116.9559373 Eh     change       -0.1560417E-03 Eh
 * total energy  :  -116.9559618 Eh     change       -0.2445138E-04 Eh
 * total energy  :  -116.9560017 Eh     change       -0.3996837E-04 Eh
 * total energy  :  -116.9560177 Eh     change       -0.1601841E-04 Eh
 * total energy  :  -116.9560374 Eh     change       -0.1969270E-04 Eh
 * total energy  :  -116.9560549 Eh     change       -0.1743715E-04 Eh
 * total energy  :  -116.9560622 Eh     change       -0.7295364E-05 Eh
 * total energy  :  -116.9560708 Eh     change       -0.8593270E-05 Eh
 * total energy  :  -116.9560757 Eh     change       -0.4912428E-05 Eh
   *** GEOMETRY OPTIMIZATION CONVERGED AFTER 44 ITERATIONS ***

 final structure:
================
68
 xtb: 6.3.3 (4ae9cef)
C         1.43777855887246   -3.49776693875885    0.09664048783264
O         0.81674502048281   -3.80220256689469   -1.07237207546675
C         1.24316784901340   -4.93452044239203   -1.78931809888441
C         2.33061041128695   -4.34095083512885    0.74975898776246
C         2.88039053318924   -3.97409241000397    1.96586788842937
C         2.54499270742266   -2.76865931271398    2.55121879567968
C         1.66953995339454   -1.91774146480967    1.89815451512704
C         1.12023564775036   -2.25855529646626    0.67454841916863
C         0.21131413403888   -1.30915576847382   -0.06548152409282
C        -1.03768342808675   -0.89692745573658    0.72872243758635
C        -2.31488273502553   -1.19853015063395   -0.01601679052576
C        -3.21091378101006   -2.12744774514136    0.48021375115975
C        -4.37955110091984   -2.42718228019860   -0.19920062605672
C        -4.65743487823659   -1.78405534178787   -1.38923377090735
C        -3.77490965272524   -0.84904334803914   -1.90413803703791
C        -2.59971446036433   -0.54974195628667   -1.22741442574764
O        -1.67135279304733    0.35200463329155   -1.66221037275289
C        -1.86025209338757    0.98281580384511   -2.90366647126620
N        -0.87174904547310    0.53199833523132    0.95761442041688
C        -1.78889897897481    1.18237721377623    1.71873005352486
C        -1.64302803106675    2.63041886483282    1.89934209365226
C        -2.47208677146740    3.47116213435026    2.61402698245483
C        -3.69077784092383    3.10743258764612    3.37754636119082
C        -1.91277500570414    4.76627021943904    2.47816212056454
C        -0.80264852200789    4.62728302221781    1.70432012468680
O        -0.62727903810167    3.34851689159406    1.34579778797163
O        -2.71306924254827    0.57664350208895    2.23901184020001
C         0.28654827389591    1.07505606075760    0.31113320586565
C         1.31723733486024    1.65012736468284    1.30861151986340
O         1.06070080856251    1.30485543652760    2.56950329891676
O         2.27083693569969    2.30241470584153    0.98982525198565
N         0.86767621986349   -0.04605347746345   -0.38691811754908
C         1.87789950145375   -0.03592846962455   -1.29479596796033
C         2.39643151115980    1.26400512951268   -1.74786085235102
C         3.65955629719295    1.55671029272798   -2.21113249382075
C         4.82679564742580    0.64476276245748   -2.32069846887626
C         3.63343989991674    2.93444735289801   -2.54722393698870
C         2.37226259442170    3.36707557016998   -2.28536808294994
O         1.61386475921959    2.37276069114672   -1.80698363168302
O         2.34426861726031   -1.08201345968975   -1.71768335747530
H         0.67508209612424   -4.92292078963274   -2.71834500105320
H         1.02671682542442   -5.86163591485903   -1.24738765223997
H         2.31135005178222   -4.88107984586747   -2.01818966668424
H         2.60538991255127   -5.28972546294644    0.31689551739907
H         3.57224049744070   -4.64265620241985    2.45675797744901
H         2.96449764541423   -2.48894257135944    3.50561482159177
H         1.40355195911692   -0.97504490553138    2.34982553526846
H        -0.06488007888914   -1.78936151776433   -1.00961543852360
H        -1.07653515296571   -1.40530424850247    1.69928069953459
H        -2.99034750611450   -2.61586879132812    1.41685010726565
H        -5.06898762943063   -3.15342592300533    0.20250211781622
H        -5.56729492774645   -2.00315817767035   -1.92827578271757
H        -4.01391016478186   -0.35720492588364   -2.83396636501815
H        -1.93038616051568    0.25542188633330   -3.71854748498054
H        -0.97692469105466    1.60290347096124   -3.05362565517613
H        -2.75272402202034    1.61756532080384   -2.90311815766664
H        -3.41173919740984    2.63876405449433    4.32039839336961
H        -4.27578225986887    2.37909536972334    2.82187234501706
H        -4.28787728654929    3.99183253232510    3.58547652235708
H        -2.29364026537347    5.67316827533565    2.90141470769679
H        -0.07798476745962    5.33400713946848    1.34981592296921
H         0.02190125791417    1.87821507953093   -0.39067325718327
H         1.73433986748927    1.66778452759255    3.16804890618698
H         5.24600367842605    0.69227251655015   -3.32436895160715
H         4.52044541627917   -0.37463275508327   -2.10853797178671
H         5.60222287148572    0.94398420960585   -1.61615626745888
H         4.44794505086264    3.51225775682774   -2.93361583336219
H         1.90404316254713    4.32511603751376   -2.40136433011185

          :  Hamiltonian                  GFN2-xTB          :
         :: total energy            -116.956075673917 Eh    ::
         :: gradient norm              0.000407163749 Eh/a0 ::
         :: HOMO-LUMO gap              3.077961954388 eV    ::
         :: SCC energy              -118.495287916441 Eh    ::
         :: -> dispersion             -0.090842170043 Eh    ::
         :: repulsion energy           1.536050016783 Eh    ::

    * Orbital Energies and Occupations

         #    Occupation            Energy/Eh            Energy/eV
      -------------------------------------------------------------
         1        2.0000           -0.7643592             -20.7993
       ...           ...                  ...                  ...
        91        2.0000           -0.4231351             -11.5141
        92        2.0000           -0.4212413             -11.4626
        93        2.0000           -0.4126864             -11.2298
        94        2.0000           -0.4049084             -11.0181
        95        2.0000           -0.4011591             -10.9161
        96        2.0000           -0.3977580             -10.8235
        97        2.0000           -0.3914435             -10.6517
        98        2.0000           -0.3904965             -10.6260
        99        2.0000           -0.3873415             -10.5401
       100        2.0000           -0.3858181             -10.4986
       101        2.0000           -0.3807147             -10.3598
       102        2.0000           -0.3740438             -10.1782
       103        2.0000           -0.3716051             -10.1119 (HOMO)
       104                         -0.2584921              -7.0339 (LUMO)
       105                         -0.2500333              -6.8038
       106                         -0.2417263              -6.5777
       107                         -0.2256783              -6.1410
       108                         -0.2190057              -5.9594
       109                         -0.2115262              -5.7559
       110                         -0.2095969              -5.7034
       111                         -0.1862787              -5.0689
       112                         -0.1798535              -4.8941
       113                         -0.1372048              -3.7335
       114                         -0.1341339              -3.6500
       ...                                ...                  ...
       188                          0.7043389              19.1660
      -------------------------------------------------------------
                  HL-Gap            0.1131130 Eh            3.0780 eV

     #   Z          covCN         q      C6AA      Î±(0)
     1   6 C        2.868     0.149    24.766     8.158
     2   8 O        1.705    -0.262    18.341     5.782
     3   6 C        3.645     0.037    20.282     6.473
     4   6 C        2.918    -0.065    29.614     8.924
     5   6 C        2.921    -0.032    28.790     8.799
     6   6 C        2.917    -0.043    29.066     8.841
     7   6 C        2.924    -0.039    28.976     8.828
     8   6 C        2.971    -0.015    28.381     8.739
     9   6 C        3.824     0.042    19.851     6.340
    10   6 C        3.825     0.045    19.794     6.331
    11   6 C        2.972    -0.011    28.282     8.723
    12   6 C        2.925    -0.027    28.679     8.782
    13   6 C        2.918    -0.039    28.962     8.825
    14   6 C        2.921    -0.032    28.787     8.799
    15   6 C        2.917    -0.066    29.652     8.929
    16   6 C        2.867     0.140    24.942     8.186
    17   8 O        1.705    -0.277    18.588     5.821
    18   6 C        3.642     0.041    20.228     6.466
    19   7 N        2.763    -0.089    22.983     7.120
    20   6 C        2.761     0.260    22.627     7.790
    21   6 C        3.102     0.067    26.387     8.418
    22   6 C        3.063     0.008    27.768     8.641
    23   6 C        3.754    -0.112    22.695     6.793
    24   6 C        3.009    -0.071    29.757     8.948
    25   6 C        3.048     0.077    26.240     8.401
    26   8 O        1.727    -0.205    17.408     5.633
    27   8 O        0.860    -0.442    22.540     6.365
    28   6 C        3.747     0.087    19.196     6.249
    29   6 C        2.688     0.359    20.906     7.483
    30   8 O        1.659    -0.360    20.083     6.050
    31   8 O        0.856    -0.392    21.523     6.220
    32   7 N        2.763    -0.097    23.131     7.143
    33   6 C        2.759     0.262    22.592     7.784
    34   6 C        3.110     0.071    26.270     8.397
    35   6 C        3.065     0.008    27.771     8.641
    36   6 C        3.754    -0.113    22.725     6.798
    37   6 C        3.011    -0.070    29.716     8.942
    38   6 C        3.056     0.078    26.206     8.395
    39   8 O        1.728    -0.193    17.211     5.602
    40   8 O        0.860    -0.437    22.442     6.352
    41   1 H        0.925     0.062     2.170     2.304
    42   1 H        0.924     0.038     2.469     2.457
    43   1 H        0.924     0.049     2.329     2.387
    44   1 H        0.926     0.039     2.458     2.452
    45   1 H        0.926     0.036     2.504     2.475
    46   1 H        0.926     0.033     2.542     2.493
    47   1 H        0.926     0.042     2.428     2.437
    48   1 H        0.924     0.087     1.904     2.158
    49   1 H        0.924     0.069     2.095     2.264
    50   1 H        0.926     0.047     2.358     2.401
    51   1 H        0.926     0.040     2.452     2.449
    52   1 H        0.926     0.037     2.488     2.467
    53   1 H        0.926     0.037     2.487     2.466
    54   1 H        0.924     0.042     2.427     2.436
    55   1 H        0.925     0.060     2.195     2.317
    56   1 H        0.924     0.039     2.466     2.456
    57   1 H        0.925     0.064     2.149     2.292
    58   1 H        0.925     0.076     2.025     2.225
    59   1 H        0.925     0.049     2.337     2.391
    60   1 H        0.926     0.047     2.360     2.402
    61   1 H        0.926     0.054     2.269     2.356
    62   1 H        0.923     0.097     1.812     2.105
    63   1 H        0.804     0.339     0.614     1.231
    64   1 H        0.925     0.054     2.276     2.359
    65   1 H        0.925     0.072     2.065     2.247
    66   1 H        0.925     0.052     2.293     2.368
    67   1 H        0.926     0.045     2.377     2.411
    68   1 H        0.926     0.049     2.330     2.387

Wiberg/Mayer (AO) data.
largest (>0.10) Wiberg bond orders for each atom

     #   Z sym  total        # sym  WBO       # sym  WBO       # sym  WBO
 ---------------------------------------------------------------------------
     1   6 C    3.936 --     4 C    1.376     8 C    1.321     2 O    1.071
     2   8 O    2.245 --     1 C    1.071     3 C    0.982
     3   6 C    3.944 --     2 O    0.982    41 H    0.979    43 H    0.977
                            42 H    0.976
     4   6 C    3.987 --     5 C    1.438     1 C    1.376    44 H    0.966
                             7 C    0.102
     5   6 C    3.990 --     6 C    1.442     4 C    1.438    45 H    0.971
                             8 C    0.106
     6   6 C    3.991 --     5 C    1.442     7 C    1.425    46 H    0.971
     7   6 C    3.990 --     8 C    1.441     6 C    1.425    47 H    0.964
                             4 C    0.102
     8   6 C    3.982 --     7 C    1.441     1 C    1.321     9 C    0.988
                             5 C    0.106
     9   6 C    3.959 --     8 C    0.988    10 C    0.961    32 N    0.952
                            48 H    0.947
    10   6 C    3.964 --    11 C    0.988     9 C    0.961    19 N    0.957
                            49 H    0.953
    11   6 C    3.982 --    12 C    1.440    16 C    1.324    10 C    0.988
                            14 C    0.107
    12   6 C    3.989 --    11 C    1.440    13 C    1.423    50 H    0.967
                            15 C    0.102
    13   6 C    3.991 --    14 C    1.447    12 C    1.423    51 H    0.971
    14   6 C    3.990 --    13 C    1.447    15 C    1.431    52 H    0.971
                            11 C    0.107
    15   6 C    3.987 --    14 C    1.431    16 C    1.385    53 H    0.966
                            12 C    0.102
    16   6 C    3.933 --    15 C    1.385    11 C    1.324    17 O    1.054
    17   8 O    2.225 --    16 C    1.054    18 C    0.985
    18   6 C    3.946 --    17 O    0.985    55 H    0.979    54 H    0.977
                            56 H    0.977
    19   7 N    3.484 --    20 C    1.207    28 C    0.999    10 C    0.957
                            27 O    0.186
    20   6 C    3.961 --    27 O    1.625    19 N    1.207    21 C    1.038
    21   6 C    3.894 --    22 C    1.491    26 O    1.078    20 C    1.038
                            25 C    0.137
    22   6 C    3.984 --    21 C    1.491    24 C    1.286    23 C    1.042
    23   6 C    3.993 --    22 C    1.042    59 H    0.983    58 H    0.968
                            57 H    0.960
    24   6 C    3.981 --    25 C    1.590    22 C    1.286    60 H    0.973
    25   6 C    3.906 --    24 C    1.590    26 O    1.140    61 H    0.965
                            21 C    0.137
    26   8 O    2.430 --    25 C    1.140    21 C    1.078
    27   8 O    1.981 --    20 C    1.625    19 N    0.186
    28   6 C    3.968 --    19 N    0.999    32 N    0.980    62 H    0.925
                            29 C    0.908
    29   6 C    3.916 --    31 O    1.779    30 O    1.149    28 C    0.908
    30   8 O    2.221 --    29 C    1.149    63 H    0.858    31 O    0.178
    31   8 O    2.057 --    29 C    1.779    30 O    0.178
    32   7 N    3.477 --    33 C    1.208    28 C    0.980     9 C    0.952
                            40 O    0.185
    33   6 C    3.958 --    40 O    1.636    32 N    1.208    34 C    1.021
    34   6 C    3.900 --    35 C    1.505    39 O    1.088    33 C    1.021
                            38 C    0.136
    35   6 C    3.983 --    34 C    1.505    37 C    1.280    36 C    1.037
    36   6 C    3.993 --    35 C    1.037    65 H    0.978    64 H    0.971
                            66 H    0.968
    37   6 C    3.982 --    38 C    1.597    35 C    1.280    67 H    0.974
    38   6 C    3.909 --    37 C    1.597    39 O    1.142    68 H    0.966
                            34 C    0.136
    39   8 O    2.435 --    38 C    1.142    34 C    1.088
    40   8 O    1.991 --    33 C    1.636    32 N    0.185
    41   1 H    0.996 --     3 C    0.979
    42   1 H    0.998 --     3 C    0.976
    43   1 H    0.997 --     3 C    0.977
    44   1 H    0.998 --     4 C    0.966
    45   1 H    0.998 --     5 C    0.971
    46   1 H    0.998 --     6 C    0.971
    47   1 H    0.998 --     7 C    0.964
    48   1 H    0.991 --     9 C    0.947
    49   1 H    0.994 --    10 C    0.953
    50   1 H    0.997 --    12 C    0.967
    51   1 H    0.998 --    13 C    0.971
    52   1 H    0.998 --    14 C    0.971
    53   1 H    0.998 --    15 C    0.966
    54   1 H    0.998 --    18 C    0.977
    55   1 H    0.996 --    18 C    0.979
    56   1 H    0.998 --    18 C    0.977
    57   1 H    0.996 --    23 C    0.960
    58   1 H    0.994 --    23 C    0.968
    59   1 H    0.997 --    23 C    0.983
    60   1 H    0.997 --    24 C    0.973
    61   1 H    0.996 --    25 C    0.965
    62   1 H    0.990 --    28 C    0.925
    63   1 H    0.884 --    30 O    0.858
    64   1 H    0.996 --    36 C    0.971
    65   1 H    0.994 --    36 C    0.978
    66   1 H    0.997 --    36 C    0.968
    67   1 H    0.997 --    37 C    0.974
    68   1 H    0.997 --    38 C    0.966
 ---------------------------------------------------------------------------

molecular dipole:
                 x           y           z       tot (Debye)
 q only:       -0.119       0.315      -0.135
   full:        0.073       0.798      -0.232       2.119

           -------------------------------------------------
          | TOTAL ENERGY             -116.956075673917 Eh   |
          | GRADIENT NORM               0.000407163749 Eh/Î± |
          | HOMO-LUMO GAP               3.077961954388 eV   |
           -------------------------------------------------

 * finished run on 2022/03/17 at 00:23:04.446
