   * xtb version 6.3.3 (4ae9cef) compiled by 'conda@95abc7406d43' on 2020-10-14
          program call               : xtb acid_215.xyz --opt --chrg 0 --uhf 0 --gfn 2
          number of atoms            :                    80
          number of electrons        :                   226
          charge                     :                     0
          spin                       :                   0.0

   ID    Z sym.   atoms
    1    6 C      1, 3-16, 18, 20-28, 30, 31, 35-43
    2    8 O      2, 17, 29, 32, 33, 44
    3    7 N      19, 34
    4    1 H      45-80

          :  Hamiltonian                  GFN2-xTB          :
 * total energy  :  -125.7126517 Eh     change       -0.4324718E-08 Eh
 * total energy  :  -125.7283147 Eh     change       -0.1566296E-01 Eh
 * total energy  :  -125.7337129 Eh     change       -0.5398233E-02 Eh
 * total energy  :  -125.7355932 Eh     change       -0.1880327E-02 Eh
 * total energy  :  -125.7368308 Eh     change       -0.1237547E-02 Eh
 * total energy  :  -125.7376357 Eh     change       -0.8049527E-03 Eh
 * total energy  :  -125.7383946 Eh     change       -0.7589069E-03 Eh
 * total energy  :  -125.7392421 Eh     change       -0.8474723E-03 Eh
 * total energy  :  -125.7400599 Eh     change       -0.8178366E-03 Eh
 * total energy  :  -125.7407260 Eh     change       -0.6660073E-03 Eh
 * total energy  :  -125.7526161 Eh     change       -0.1158317E-04 Eh
 * total energy  :  -125.7526238 Eh     change       -0.7702658E-05 Eh
 * total energy  :  -125.7526255 Eh     change       -0.1746879E-05 Eh
 * total energy  :  -125.7526319 Eh     change       -0.6391791E-05 Eh
 * total energy  :  -125.7526339 Eh     change       -0.1953807E-05 Eh
 * total energy  :  -125.7526314 Eh     change        0.2457490E-05 Eh
 * total energy  :  -125.7526381 Eh     change       -0.6653637E-05 Eh
 * total energy  :  -125.7526369 Eh     change        0.1178822E-05 Eh
 * total energy  :  -125.7526408 Eh     change       -0.3954360E-05 Eh
   *** GEOMETRY OPTIMIZATION CONVERGED AFTER 91 ITERATIONS ***

 final structure:
================
80
 xtb: 6.3.3 (4ae9cef)
C         1.63071767437574    3.40825879850031   -0.93741910041738
O         0.76951461322514    4.01906903117288   -0.07338552423159
C         0.71004868172007    5.42289899004244   -0.05740510984804
C         2.46993706129492    4.07920209028145   -1.81727578517413
C         3.29409841832372    3.36816842451052   -2.67380768235808
C         3.28645929950822    1.98729102997434   -2.66966353756607
C         2.44872596589113    1.31385756156043   -1.79717743100051
C         1.63201131476732    2.00643481342984   -0.92336546029341
C         0.67371757474965    1.29486668566208   -0.01159287146981
C        -0.60583121436029    0.89102753351988   -0.76765722196878
C        -1.63943408465705    1.97615908272403   -0.66977919340944
C        -2.41469380818897    2.13858113478421    0.46326127320626
C        -3.31589049652435    3.18418008766079    0.56408427260896
C        -3.42896311854532    4.08476883969662   -0.47667951616623
C        -2.64849669874368    3.94892774583544   -1.61270524890974
C        -1.74624208057221    2.89855962361027   -1.71989540548808
O        -0.92076525054855    2.69529500876576   -2.78701145579670
C        -0.96572607366677    3.60333844125290   -3.85867490745475
N        -0.98876815390957   -0.35739498448045   -0.12402439455454
C        -2.18448726179744   -0.96161370052504   -0.38146951341157
C        -2.39609230712669   -2.24265309148404    0.36213286569140
C        -2.48448666682816   -3.45826875062394   -0.31320354855429
C        -2.37486448008255   -3.52809069735929   -1.80904812448484
C        -3.75273155924260   -3.35294611543394   -2.45058273585321
C        -2.70638062076378   -4.61255373405739    0.42652260865616
C        -2.84737751328575   -4.56548286366055    1.80055152324347
C        -2.77301141808750   -3.35215030461592    2.46305282150328
C        -2.54497217298228   -2.19468185178396    1.74354404225626
O        -3.01447112977568   -0.46099961629945   -1.10985580523179
C         0.16173214059791   -1.00387484134002    0.46638687532146
C         0.60395601551428   -2.21184474640863   -0.38422535985918
O         1.05259766901950   -1.84065653152239   -1.58076566045886
O         0.51356017190710   -3.35424206754617   -0.03236343402333
N         1.16758700774660    0.02892911220010    0.50767254366898
C         2.36700725782462   -0.07803665421031    1.13917928009679
C         2.69050228756191   -1.48131316392262    1.55460842201475
C         3.41509257732246   -2.27405783048354    0.67410997404797
C         3.72200744818470   -3.58110667841555    1.00492995735724
C         3.30403591930113   -4.09557058589981    2.21951468320258
C         2.60542700909729   -3.29739264208897    3.10686633792586
C         2.29299925604237   -1.98162760684813    2.79334877914577
C         1.61224435771007   -1.09552254062866    3.79803770680783
C         2.66073727244158   -0.31336871567804    4.59325388228834
O         3.10813855346072    0.86714661258101    1.29742559744761
H         0.40385407943631    5.82416827662212   -1.02929821974082
H         1.66785985353599    5.86545992748462    0.23453827631420
H        -0.04613632868469    5.67394197048990    0.68505288266849
H         2.49175568223141    5.15737794378943   -1.84419583135466
H         3.94235702438343    3.90633448785638   -3.34967149531305
H         3.92607400980968    1.43655963829039   -3.34243257031923
H         2.42468957803231    0.23472472258157   -1.79186265895511
H         0.42420144687115    1.95995639914768    0.82539601281345
H        -0.37348765373428    0.70953812002558   -1.82474467626187
H        -2.31651555479682    1.43118163252735    1.27340889554688
H        -3.92203655937119    3.29472792911253    1.45008256573352
H        -4.12696519697156    4.90645366133008   -0.41109637110828
H        -2.75322400051094    4.66887486843467   -2.40928852396924
H        -0.21847923892433    3.25268091686801   -4.56909852699073
H        -0.70581562732107    4.61795555543623   -3.53829112247460
H        -1.94904197462937    3.61357567815615   -4.34024847288043
H        -1.71506055451012   -2.73912831633900   -2.17711052863625
H        -1.95266436013953   -4.49376816312690   -2.09658376918955
H        -3.68309078822694   -3.45688728188671   -3.53099583649448
H        -4.13914376156129   -2.36409018768671   -2.21775183705425
H        -4.44609647063074   -4.09995696822971   -2.07066095955903
H        -2.76413558119499   -5.56144012508785   -0.08677698129335
H        -3.01641418921517   -5.47556518567065    2.35682609213009
H        -2.89015082306788   -3.30772649756871    3.53560391631644
H        -2.49514949586405   -1.24109454805014    2.25111379185861
H        -0.07378311080180   -1.40178373836218    1.46651761801528
H         1.29736846540088   -2.61589810488458   -2.11311432608388
H         3.74092705040217   -1.85510395793451   -0.26776734651191
H         4.28186829765730   -4.19618976064068    0.31644061205041
H         3.53001881165705   -5.11887969734576    2.47943240847916
H         2.29427232144833   -3.69965575829120    4.06031580556622
H         1.01151836111898   -1.70284180776234    4.47886475371849
H         0.95248570570257   -0.38237189015393    3.29849000307209
H         3.23810470780651    0.31861710682304    3.92286503238215
H         3.34070150452564   -0.99650463660804    5.09722625435799
H         2.18016393222641    0.31525045819597    5.33936571467141

          :  Hamiltonian                  GFN2-xTB          :
         :: total energy            -125.752640839556 Eh    ::
         :: gradient norm              0.000415528532 Eh/a0 ::
         :: HOMO-LUMO gap              2.875185775060 eV    ::
         :: SCC energy              -127.601093986910 Eh    ::
         :: -> dispersion             -0.112984891767 Eh    ::
         :: repulsion energy           1.843721043595 Eh    ::

    * Orbital Energies and Occupations

         #    Occupation            Energy/Eh            Energy/eV
      -------------------------------------------------------------
         1        2.0000           -0.7724734             -21.0201
       ...           ...                  ...                  ...
       101        2.0000           -0.4211955             -11.4613
       102        2.0000           -0.4085733             -11.1178
       103        2.0000           -0.4066260             -11.0649
       104        2.0000           -0.4048695             -11.0171
       105        2.0000           -0.4025665             -10.9544
       106        2.0000           -0.4003079             -10.8929
       107        2.0000           -0.3998548             -10.8806
       108        2.0000           -0.3969333             -10.8011
       109        2.0000           -0.3904562             -10.6249
       110        2.0000           -0.3894526             -10.5975
       111        2.0000           -0.3870269             -10.5315
       112        2.0000           -0.3803012             -10.3485
       113        2.0000           -0.3713542             -10.1051 (HOMO)
       114                         -0.2656930              -7.2299 (LUMO)
       115                         -0.2368475              -6.4449
       116                         -0.2290719              -6.2334
       117                         -0.2269314              -6.1751
       118                         -0.2253913              -6.1332
       119                         -0.2239539              -6.0941
       120                         -0.2194929              -5.9727
       121                         -0.2125563              -5.7840
       122                         -0.2119825              -5.7683
       123                         -0.2111004              -5.7443
       124                         -0.2035984              -5.5402
       ...                                ...                  ...
       212                          0.6712421              18.2654
      -------------------------------------------------------------
                  HL-Gap            0.1056611 Eh            2.8752 eV

     #   Z          covCN         q      C6AA      Î±(0)
     1   6 C        2.869     0.145    24.842     8.170
     2   8 O        1.705    -0.275    18.558     5.816
     3   6 C        3.643     0.041    20.223     6.464
     4   6 C        2.918    -0.064    29.600     8.922
     5   6 C        2.921    -0.032    28.791     8.799
     6   6 C        2.918    -0.039    28.981     8.828
     7   6 C        2.924    -0.028    28.711     8.787
     8   6 C        2.974    -0.003    28.107     8.696
     9   6 C        3.828     0.049    19.728     6.320
    10   6 C        3.831     0.050    19.718     6.318
    11   6 C        2.974    -0.002    28.075     8.691
    12   6 C        2.924    -0.025    28.628     8.774
    13   6 C        2.918    -0.039    28.961     8.825
    14   6 C        2.921    -0.031    28.785     8.798
    15   6 C        2.918    -0.064    29.592     8.920
    16   6 C        2.869     0.145    24.838     8.170
    17   8 O        1.705    -0.274    18.553     5.815
    18   6 C        3.643     0.041    20.225     6.465
    19   7 N        2.765    -0.119    23.593     7.214
    20   6 C        2.762     0.273    22.384     7.748
    21   6 C        2.981    -0.030    28.733     8.793
    22   6 C        2.973     0.023    27.487     8.600
    23   6 C        3.806    -0.049    21.454     6.594
    24   6 C        3.754    -0.102    22.496     6.763
    25   6 C        2.926    -0.031    28.763     8.795
    26   6 C        2.919    -0.027    28.670     8.781
    27   6 C        2.919    -0.031    28.777     8.797
    28   6 C        2.924    -0.031    28.771     8.796
    29   8 O        0.859    -0.416    22.000     6.289
    30   6 C        3.757     0.090    19.135     6.237
    31   6 C        2.688     0.349    21.069     7.512
    32   8 O        1.659    -0.355    19.999     6.037
    33   8 O        0.856    -0.390    21.474     6.213
    34   7 N        2.766    -0.115    23.506     7.201
    35   6 C        2.762     0.274    22.361     7.744
    36   6 C        2.983    -0.031    28.757     8.797
    37   6 C        2.924    -0.029    28.725     8.789
    38   6 C        2.920    -0.029    28.721     8.788
    39   6 C        2.919    -0.025    28.638     8.776
    40   6 C        2.926    -0.033    28.827     8.805
    41   6 C        2.973     0.014    27.702     8.633
    42   6 C        3.806    -0.053    21.526     6.605
    43   6 C        3.754    -0.100    22.471     6.759
    44   8 O        0.858    -0.418    22.035     6.294
    45   1 H        0.924     0.036     2.503     2.474
    46   1 H        0.924     0.045     2.385     2.415
    47   1 H        0.925     0.061     2.182     2.310
    48   1 H        0.926     0.037     2.491     2.468
    49   1 H        0.926     0.036     2.500     2.473
    50   1 H        0.926     0.036     2.509     2.477
    51   1 H        0.926     0.043     2.412     2.429
    52   1 H        0.924     0.068     2.108     2.271
    53   1 H        0.924     0.070     2.088     2.260
    54   1 H        0.926     0.035     2.523     2.484
    55   1 H        0.926     0.038     2.480     2.463
    56   1 H        0.926     0.037     2.490     2.468
    57   1 H        0.926     0.037     2.486     2.465
    58   1 H        0.925     0.061     2.183     2.311
    59   1 H        0.924     0.036     2.498     2.472
    60   1 H        0.924     0.045     2.389     2.417
    61   1 H        0.924     0.024     2.671     2.556
    62   1 H        0.924     0.036     2.501     2.473
    63   1 H        0.925     0.036     2.504     2.474
    64   1 H        0.925     0.060     2.194     2.316
    65   1 H        0.925     0.035     2.513     2.479
    66   1 H        0.926     0.040     2.447     2.446
    67   1 H        0.926     0.037     2.485     2.465
    68   1 H        0.926     0.036     2.507     2.476
    69   1 H        0.925     0.027     2.632     2.537
    70   1 H        0.923     0.064     2.156     2.296
    71   1 H        0.804     0.342     0.608     1.225
    72   1 H        0.926     0.031     2.579     2.511
    73   1 H        0.926     0.037     2.495     2.470
    74   1 H        0.926     0.039     2.464     2.455
    75   1 H        0.926     0.039     2.461     2.453
    76   1 H        0.924     0.037     2.486     2.466
    77   1 H        0.924     0.027     2.631     2.536
    78   1 H        0.925     0.054     2.274     2.358
    79   1 H        0.925     0.037     2.482     2.464
    80   1 H        0.925     0.038     2.473     2.459

Wiberg/Mayer (AO) data.
largest (>0.10) Wiberg bond orders for each atom

     #   Z sym  total        # sym  WBO       # sym  WBO       # sym  WBO
 ---------------------------------------------------------------------------
     1   6 C    3.933 --     4 C    1.384     8 C    1.322     2 O    1.057
     2   8 O    2.229 --     1 C    1.057     3 C    0.985
     3   6 C    3.946 --     2 O    0.985    47 H    0.979    45 H    0.976
                            46 H    0.976
     4   6 C    3.987 --     5 C    1.432     1 C    1.384    48 H    0.966
                             7 C    0.102
     5   6 C    3.991 --     6 C    1.446     4 C    1.432    49 H    0.971
                             8 C    0.107
     6   6 C    3.991 --     5 C    1.446     7 C    1.423    50 H    0.971
     7   6 C    3.989 --     8 C    1.440     6 C    1.423    51 H    0.965
                             4 C    0.102
     8   6 C    3.984 --     7 C    1.440     1 C    1.322     9 C    0.995
                             5 C    0.107
     9   6 C    3.962 --     8 C    0.995    34 N    0.955    52 H    0.949
                            10 C    0.947
    10   6 C    3.961 --    11 C    0.995    19 N    0.956    53 H    0.948
                             9 C    0.947
    11   6 C    3.983 --    12 C    1.439    16 C    1.323    10 C    0.995
                            14 C    0.107
    12   6 C    3.990 --    11 C    1.439    13 C    1.424    54 H    0.968
                            15 C    0.102
    13   6 C    3.991 --    14 C    1.445    12 C    1.424    55 H    0.971
    14   6 C    3.990 --    13 C    1.445    15 C    1.432    56 H    0.971
                            11 C    0.107
    15   6 C    3.987 --    14 C    1.432    16 C    1.384    57 H    0.966
                            12 C    0.102
    16   6 C    3.933 --    15 C    1.384    11 C    1.323    17 O    1.057
    17   8 O    2.229 --    16 C    1.057    18 C    0.985
    18   6 C    3.946 --    17 O    0.985    58 H    0.979    59 H    0.976
                            60 H    0.976
    19   7 N    3.450 --    20 C    1.191    30 C    0.983    10 C    0.956
                            29 O    0.185
    20   6 C    3.942 --    29 O    1.700    19 N    1.191    21 C    0.962
    21   6 C    3.986 --    28 C    1.402    22 C    1.383    20 C    0.962
                            26 C    0.107
    22   6 C    3.987 --    25 C    1.409    21 C    1.383    23 C    1.014
                            27 C    0.107
    23   6 C    3.998 --    22 C    1.014    24 C    0.999    62 H    0.974
                            61 H    0.973
    24   6 C    3.993 --    23 C    0.999    65 H    0.988    63 H    0.986
                            64 H    0.984
    25   6 C    3.991 --    26 C    1.449    22 C    1.409    66 H    0.968
                            28 C    0.109
    26   6 C    3.992 --    25 C    1.449    27 C    1.430    67 H    0.971
                            21 C    0.107
    27   6 C    3.991 --    28 C    1.445    26 C    1.430    68 H    0.970
                            22 C    0.107
    28   6 C    3.991 --    27 C    1.445    21 C    1.402    69 H    0.969
                            25 C    0.109
    29   8 O    2.029 --    20 C    1.700    19 N    0.185
    30   6 C    3.973 --    34 N    0.989    19 N    0.983    70 H    0.941
                            31 C    0.909
    31   6 C    3.919 --    33 O    1.779    32 O    1.154    30 C    0.909
    32   8 O    2.224 --    31 C    1.154    71 H    0.857    33 O    0.181
    33   8 O    2.060 --    31 C    1.779    32 O    0.181
    34   7 N    3.459 --    35 C    1.203    30 C    0.989     9 C    0.955
                            44 O    0.191
    35   6 C    3.944 --    44 O    1.700    34 N    1.203    36 C    0.953
    36   6 C    3.986 --    37 C    1.407    41 C    1.379    35 C    0.953
                            39 C    0.108
    37   6 C    3.991 --    38 C    1.440    36 C    1.407    72 H    0.970
                            40 C    0.109
    38   6 C    3.991 --    37 C    1.440    39 C    1.436    73 H    0.970
                            41 C    0.108
    39   6 C    3.991 --    40 C    1.444    38 C    1.436    74 H    0.971
                            36 C    0.108
    40   6 C    3.991 --    39 C    1.444    41 C    1.414    75 H    0.968
                            37 C    0.109
    41   6 C    3.987 --    40 C    1.414    36 C    1.379    42 C    1.013
                            38 C    0.108
    42   6 C    3.998 --    41 C    1.013    43 C    0.998    76 H    0.975
                            77 H    0.970
    43   6 C    3.994 --    42 C    0.998    79 H    0.988    78 H    0.986
                            80 H    0.986
    44   8 O    2.026 --    35 C    1.700    34 N    0.191
    45   1 H    0.999 --     3 C    0.976
    46   1 H    0.998 --     3 C    0.976
    47   1 H    0.996 --     3 C    0.979
    48   1 H    0.998 --     4 C    0.966
    49   1 H    0.998 --     5 C    0.971
    50   1 H    0.998 --     6 C    0.971
    51   1 H    0.998 --     7 C    0.965
    52   1 H    0.995 --     9 C    0.949
    53   1 H    0.995 --    10 C    0.948
    54   1 H    0.998 --    12 C    0.968
    55   1 H    0.998 --    13 C    0.971
    56   1 H    0.998 --    14 C    0.971
    57   1 H    0.998 --    15 C    0.966
    58   1 H    0.996 --    18 C    0.979
    59   1 H    0.999 --    18 C    0.976
    60   1 H    0.998 --    18 C    0.976
    61   1 H    0.999 --    23 C    0.973
    62   1 H    0.998 --    23 C    0.974
    63   1 H    0.998 --    24 C    0.986
    64   1 H    0.996 --    24 C    0.984
    65   1 H    0.999 --    24 C    0.988
    66   1 H    0.998 --    25 C    0.968
    67   1 H    0.998 --    26 C    0.971
    68   1 H    0.997 --    27 C    0.970
    69   1 H    0.999 --    28 C    0.969
    70   1 H    0.995 --    30 C    0.941
    71   1 H    0.883 --    32 O    0.857
    72   1 H    0.999 --    37 C    0.970
    73   1 H    0.998 --    38 C    0.970
    74   1 H    0.998 --    39 C    0.971
    75   1 H    0.998 --    40 C    0.968
    76   1 H    0.998 --    42 C    0.975
    77   1 H    0.999 --    42 C    0.970
    78   1 H    0.997 --    43 C    0.986
    79   1 H    0.999 --    43 C    0.988
    80   1 H    0.998 --    43 C    0.986
 ---------------------------------------------------------------------------

molecular dipole:
                 x           y           z       tot (Debye)
 q only:        0.025       0.420      -0.542
   full:        0.096       0.320      -0.642       1.840

           -------------------------------------------------
          | TOTAL ENERGY             -125.752640839556 Eh   |
          | GRADIENT NORM               0.000415528532 Eh/Î± |
          | HOMO-LUMO GAP               2.875185775060 eV   |
           -------------------------------------------------

 * finished run on 2022/03/16 at 22:37:39.551
