   * xtb version 6.3.3 (4ae9cef) compiled by 'conda@95abc7406d43' on 2020-10-14
          program call               : xtb acid_195.xyz --opt --chrg 0 --uhf 0 --gfn 2
          number of atoms            :                    88
          number of electrons        :                   258
          charge                     :                     0
          spin                       :                   0.0

   ID    Z sym.   atoms
    1    6 C      1, 3-16, 18, 20-32, 34, 35, 39-51
    2    8 O      2, 17, 33, 36, 37, 52
    3    7 N      19, 38
    4    1 H      53-88

          :  Hamiltonian                  GFN2-xTB          :
 * total energy  :  -142.8309957 Eh     change       -0.3097597E-08 Eh
 * total energy  :  -142.8474426 Eh     change       -0.1644686E-01 Eh
 * total energy  :  -142.8522632 Eh     change       -0.4820681E-02 Eh
 * total energy  :  -142.8538399 Eh     change       -0.1576690E-02 Eh
 * total energy  :  -142.8550991 Eh     change       -0.1259173E-02 Eh
 * total energy  :  -142.8558955 Eh     change       -0.7963922E-03 Eh
 * total energy  :  -142.8564911 Eh     change       -0.5956155E-03 Eh
 * total energy  :  -142.8570029 Eh     change       -0.5117372E-03 Eh
 * total energy  :  -142.8573883 Eh     change       -0.3854397E-03 Eh
 * total energy  :  -142.8576402 Eh     change       -0.2518940E-03 Eh
 * total energy  :  -142.8638586 Eh     change       -0.9702908E-05 Eh
 * total energy  :  -142.8638694 Eh     change       -0.1080582E-04 Eh
 * total energy  :  -142.8638799 Eh     change       -0.1046532E-04 Eh
 * total energy  :  -142.8638898 Eh     change       -0.9970304E-05 Eh
 * total energy  :  -142.8638986 Eh     change       -0.8803092E-05 Eh
 * total energy  :  -142.8639065 Eh     change       -0.7812434E-05 Eh
 * total energy  :  -142.8639137 Eh     change       -0.7255190E-05 Eh
 * total energy  :  -142.8639200 Eh     change       -0.6320106E-05 Eh
 * total energy  :  -142.8639243 Eh     change       -0.4273667E-05 Eh
   *** GEOMETRY OPTIMIZATION CONVERGED AFTER 106 ITERATIONS ***

 final structure:
================
88
 xtb: 6.3.3 (4ae9cef)
C        -0.14291813069379   -3.73667134696456   -0.92919514711219
O         0.12403884880975   -4.13156652664926    0.35028798555281
C         0.53012750747232   -5.45874737296210    0.57245038716695
C         0.02460109784019   -4.53625785381760   -2.05238979227590
C        -0.24516037912108   -4.02962338488073   -3.31323585794322
C        -0.66961776164671   -2.72463499192566   -3.46997695488631
C        -0.84313732854832   -1.92329783463420   -2.35382057736792
C        -0.60128402540852   -2.42145188015401   -1.08610070947063
C        -0.77932949449851   -1.56726762760985    0.14302338206613
C         0.46595285367806   -0.69159801781662    0.39770553619346
C         1.09957680322922   -0.95080013975162    1.73969376122065
C         0.45322811292703   -0.59854327489583    2.91169503482606
C         1.04088756990217   -0.82336927315552    4.14473921945552
C         2.28981013097722   -1.41170895298602    4.20186861505371
C         2.94988496555384   -1.77864983742498    3.04124511587928
C         2.36390719411307   -1.55525174816841    1.80093965031320
O         2.93772661465224   -1.87908821171087    0.60976839869212
C         4.20430010335646   -2.49069543881567    0.61364826753556
N        -0.02804288490524    0.66802831350264    0.27128052157020
C         0.71713690845498    1.74960915600855   -0.04251452082803
C         2.18943592875250    1.52983441243296    0.05832571769473
C         2.93530413577486    1.28825543296364   -1.08766136048509
C         4.29409455374209    1.05917315317776   -0.99283608247746
C         4.93507141060177    1.07678943298602    0.24397632737891
C         6.38033661526143    0.82186387119817    0.34454424006596
C         7.17406422159549    1.56451827283879    1.21590944150226
C         8.53225429334938    1.32411518877141    1.30953010767840
C         9.11970380765080    0.33369490072544    0.54020710273352
C         8.34032344392898   -0.41208842882058   -0.32810497592014
C         6.98323723052208   -0.16834595289275   -0.42848637576113
C         4.17951307584983    1.33948198905751    1.38451722924974
C         2.81927916657717    1.56125588630899    1.29547496021188
O         0.19351945158097    2.80402953793113   -0.35492355357977
C        -1.46841307079437    0.74863810837031    0.17290292203991
C        -1.84769453071146    1.65219277604987   -1.02162007501892
O        -2.59114828286897    2.68161863384708   -0.63928124259646
O        -1.56576434392855    1.39788559234341   -2.16023767353595
N        -1.87817295727662   -0.62140051074683    0.01116849545988
C        -3.13632261981092   -1.06352638228297   -0.24809035470654
C        -4.14143733039387    0.02608247949195   -0.44236695858695
C        -4.58790584577179    0.30985767651280   -1.72717445128166
C        -5.50765336089492    1.31937102505639   -1.93344678170726
C        -6.01564612894062    2.04927764493367   -0.86088619511801
C        -6.98664758676044    3.13079075337406   -1.08394102065120
C        -8.08606030960359    3.28373629384807   -0.24259676028980
C        -8.99845818763937    4.30032697136724   -0.45486340926491
C        -8.82447324977962    5.18434652183064   -1.50653187372643
C        -7.73391167101173    5.04285885092864   -2.34812935248297
C        -6.82393532655346    4.02300138006327   -2.14120003295898
C        -5.58834458810794    1.73310774582470    0.42675500189992
C        -4.65788757601265    0.73417475202929    0.63524753094501
O        -3.40267329959554   -2.24384344328762   -0.32287570092452
H         0.65020360878419   -5.55136047582762    1.65118510625371
H         1.48627181383964   -5.67404252482372    0.08327895923860
H        -0.22379279402941   -6.17444043524538    0.23035372386434
H         0.36151967399465   -5.55666279626275   -1.95828017325283
H        -0.11561395044009   -4.66674806273729   -4.17584452669861
H        -0.86869810410126   -2.32917128729104   -4.45400356476833
H        -1.17186104000955   -0.90101713986359   -2.47007649594338
H        -0.97412381150751   -2.22819308327022    0.99588339024538
H         1.21585276624529   -0.87809023197989   -0.37779916665935
H        -0.52073629641952   -0.13583391162802    2.85428882836583
H         0.52804985709414   -0.54043478977886    5.05088790615129
H         2.76175659843005   -1.59103899031342    5.15640505121017
H         3.92448582096807   -2.23430709680796    3.11444638512304
H         4.96597115648606   -1.83909024523658    1.05325459899542
H         4.44341953847281   -2.66778846950371   -0.43369839538623
H         4.18676482073400   -3.44732547306288    1.14523199489208
H         2.44453626770711    1.27725294584134   -2.04961778871397
H         4.86966137459409    0.88243954089259   -1.88931347439992
H         6.72523996193949    2.35086652208997    1.80489771503514
H         9.13625762512288    1.91366228239890    1.98362576541271
H        10.18033473971603    0.14536868414650    0.61531928596949
H         8.79233181513329   -1.18679662437090   -0.93027906310607
H         6.37949553875198   -0.76093431626005   -1.10021151039856
H         4.65619713501994    1.34361348533711    2.35397682559701
H         2.24355022259802    1.75690371182496    2.18783510415046
H        -1.90024650676852    1.20873356877199    1.07917438155148
H        -2.75919500455057    3.27584207920644   -1.38734375001056
H        -4.20128641851790   -0.25810125775253   -2.56009356388747
H        -5.85262691202604    1.53211435879433   -2.93464782307308
H        -8.23599545857092    2.58620575984153    0.56852100885576
H        -9.85045084290252    4.40268259315235    0.20151089542743
H        -9.53640048544203    5.97966951262690   -1.67028824844602
H        -7.59197829823867    5.73108597762134   -3.16866088348801
H        -5.96822659290087    3.92576223585227   -2.79373829934278
H        -5.97102435421448    2.29251338916288    1.26741578910011
H        -4.33492223982714    0.49717024301294    1.63889585072131

          :  Hamiltonian                  GFN2-xTB          :
         :: total energy            -142.863924301609 Eh    ::
         :: gradient norm              0.000369070557 Eh/a0 ::
         :: HOMO-LUMO gap              3.200261276292 eV    ::
         :: SCC energy              -145.112685197562 Eh    ::
         :: -> dispersion             -0.126775359677 Eh    ::
         :: repulsion energy           2.245135023701 Eh    ::

    * Orbital Energies and Occupations

         #    Occupation            Energy/Eh            Energy/eV
      -------------------------------------------------------------
         1        2.0000           -0.7497354             -20.4013
       ...           ...                  ...                  ...
       117        2.0000           -0.4133692             -11.2483
       118        2.0000           -0.4123742             -11.2213
       119        2.0000           -0.4092004             -11.1349
       120        2.0000           -0.4052925             -11.0286
       121        2.0000           -0.4037980             -10.9879
       122        2.0000           -0.3991147             -10.8605
       123        2.0000           -0.3975901             -10.8190
       124        2.0000           -0.3935693             -10.7096
       125        2.0000           -0.3902703             -10.6198
       126        2.0000           -0.3894279             -10.5969
       127        2.0000           -0.3855081             -10.4902
       128        2.0000           -0.3845001             -10.4628
       129        2.0000           -0.3737513             -10.1703 (HOMO)
       130                         -0.2561439              -6.9700 (LUMO)
       131                         -0.2519405              -6.8556
       132                         -0.2420682              -6.5870
       133                         -0.2376993              -6.4681
       134                         -0.2311419              -6.2897
       135                         -0.2302222              -6.2647
       136                         -0.2266195              -6.1666
       137                         -0.2257019              -6.1417
       138                         -0.2230915              -6.0706
       139                         -0.2215482              -6.0286
       140                         -0.2166161              -5.8944
       ...                                ...                  ...
       244                          0.6906904              18.7946
      -------------------------------------------------------------
                  HL-Gap            0.1176074 Eh            3.2003 eV

     #   Z          covCN         q      C6AA      Î±(0)
     1   6 C        2.868     0.141    24.915     8.182
     2   8 O        1.705    -0.276    18.571     5.818
     3   6 C        3.644     0.040    20.233     6.466
     4   6 C        2.918    -0.065    29.622     8.925
     5   6 C        2.921    -0.032    28.797     8.800
     6   6 C        2.918    -0.039    28.962     8.825
     7   6 C        2.922    -0.033    28.831     8.805
     8   6 C        2.974    -0.011    28.285     8.724
     9   6 C        3.823     0.049    19.737     6.322
    10   6 C        3.816     0.038    19.921     6.352
    11   6 C        2.972    -0.020    28.507     8.758
    12   6 C        2.924    -0.033    28.814     8.803
    13   6 C        2.917    -0.041    29.013     8.833
    14   6 C        2.921    -0.031    28.775     8.797
    15   6 C        2.917    -0.065    29.620     8.925
    16   6 C        2.868     0.142    24.907     8.181
    17   8 O        1.705    -0.273    18.536     5.813
    18   6 C        3.644     0.040    20.236     6.466
    19   7 N        2.769    -0.106    23.315     7.172
    20   6 C        2.769     0.273    22.381     7.748
    21   6 C        2.979    -0.011    28.280     8.723
    22   6 C        2.921    -0.022    28.556     8.763
    23   6 C        2.925    -0.030    28.742     8.792
    24   6 C        2.977     0.013    27.728     8.638
    25   6 C        2.977     0.009    27.806     8.650
    26   6 C        2.925    -0.034    28.836     8.806
    27   6 C        2.918    -0.029    28.721     8.788
    28   6 C        2.920    -0.030    28.758     8.794
    29   6 C        2.918    -0.030    28.752     8.793
    30   6 C        2.925    -0.036    28.900     8.816
    31   6 C        2.925    -0.032    28.788     8.799
    32   6 C        2.921    -0.025    28.631     8.775
    33   8 O        0.860    -0.429    22.274     6.328
    34   6 C        3.756     0.097    19.027     6.219
    35   6 C        2.688     0.370    20.733     7.452
    36   8 O        1.660    -0.359    20.062     6.046
    37   8 O        0.856    -0.399    21.656     6.239
    38   7 N        2.763    -0.114    23.486     7.198
    39   6 C        2.764     0.272    22.412     7.753
    40   6 C        2.978    -0.022    28.543     8.764
    41   6 C        2.922    -0.023    28.577     8.766
    42   6 C        2.925    -0.033    28.822     8.804
    43   6 C        2.977     0.012    27.742     8.640
    44   6 C        2.977     0.011    27.777     8.645
    45   6 C        2.925    -0.033    28.822     8.804
    46   6 C        2.919    -0.029    28.721     8.788
    47   6 C        2.920    -0.030    28.757     8.794
    48   6 C        2.918    -0.029    28.729     8.789
    49   6 C        2.925    -0.034    28.847     8.808
    50   6 C        2.925    -0.030    28.761     8.795
    51   6 C        2.920    -0.027    28.686     8.783
    52   8 O        0.859    -0.419    22.059     6.297
    53   1 H        0.925     0.059     2.216     2.328
    54   1 H        0.924     0.038     2.479     2.462
    55   1 H        0.924     0.045     2.384     2.414
    56   1 H        0.926     0.037     2.493     2.469
    57   1 H        0.926     0.036     2.502     2.473
    58   1 H        0.926     0.039     2.458     2.452
    59   1 H        0.926     0.058     2.219     2.329
    60   1 H        0.924     0.077     2.009     2.217
    61   1 H        0.924     0.071     2.070     2.250
    62   1 H        0.926     0.039     2.458     2.452
    63   1 H        0.926     0.041     2.439     2.442
    64   1 H        0.926     0.040     2.443     2.444
    65   1 H        0.926     0.040     2.443     2.444
    66   1 H        0.924     0.043     2.408     2.427
    67   1 H        0.925     0.062     2.177     2.307
    68   1 H        0.924     0.044     2.403     2.424
    69   1 H        0.926     0.045     2.388     2.416
    70   1 H        0.926     0.042     2.426     2.436
    71   1 H        0.926     0.034     2.531     2.488
    72   1 H        0.926     0.032     2.551     2.498
    73   1 H        0.926     0.032     2.558     2.501
    74   1 H        0.926     0.031     2.572     2.508
    75   1 H        0.926     0.031     2.573     2.508
    76   1 H        0.926     0.037     2.493     2.469
    77   1 H        0.926     0.034     2.530     2.488
    78   1 H        0.923     0.059     2.207     2.323
    79   1 H        0.804     0.345     0.599     1.216
    80   1 H        0.926     0.045     2.379     2.412
    81   1 H        0.926     0.041     2.436     2.441
    82   1 H        0.926     0.033     2.540     2.492
    83   1 H        0.926     0.031     2.568     2.506
    84   1 H        0.926     0.031     2.572     2.508
    85   1 H        0.926     0.031     2.569     2.506
    86   1 H        0.926     0.030     2.588     2.516
    87   1 H        0.926     0.041     2.440     2.443
    88   1 H        0.926     0.031     2.573     2.509

Wiberg/Mayer (AO) data.
largest (>0.10) Wiberg bond orders for each atom

     #   Z sym  total        # sym  WBO       # sym  WBO       # sym  WBO
 ---------------------------------------------------------------------------
     1   6 C    3.933 --     4 C    1.385     8 C    1.324     2 O    1.055
     2   8 O    2.226 --     1 C    1.055     3 C    0.985
     3   6 C    3.947 --     2 O    0.985    53 H    0.980    54 H    0.976
                            55 H    0.976
     4   6 C    3.987 --     5 C    1.432     1 C    1.385    56 H    0.966
                             7 C    0.103
     5   6 C    3.990 --     6 C    1.447     4 C    1.432    57 H    0.971
                             8 C    0.107
     6   6 C    3.991 --     5 C    1.447     7 C    1.423    58 H    0.971
     7   6 C    3.988 --     8 C    1.440     6 C    1.423    59 H    0.962
                             4 C    0.103
     8   6 C    3.982 --     7 C    1.440     1 C    1.324     9 C    0.989
                             5 C    0.107
     9   6 C    3.961 --     8 C    0.989    38 N    0.959    10 C    0.951
                            60 H    0.949
    10   6 C    3.962 --    11 C    0.989    19 N    0.959     9 C    0.951
                            61 H    0.951
    11   6 C    3.983 --    12 C    1.438    16 C    1.322    10 C    0.989
                            14 C    0.106
    12   6 C    3.990 --    11 C    1.438    13 C    1.426    62 H    0.968
                            15 C    0.102
    13   6 C    3.991 --    14 C    1.442    12 C    1.426    63 H    0.971
    14   6 C    3.990 --    13 C    1.442    15 C    1.436    64 H    0.971
                            11 C    0.106
    15   6 C    3.987 --    14 C    1.436    16 C    1.379    65 H    0.965
                            12 C    0.102
    16   6 C    3.933 --    15 C    1.379    11 C    1.322    17 O    1.063
    17   8 O    2.234 --    16 C    1.063    18 C    0.981
    18   6 C    3.943 --    17 O    0.981    67 H    0.979    68 H    0.976
                            66 H    0.975
    19   7 N    3.477 --    20 C    1.233    34 C    0.976    10 C    0.959
                            33 O    0.189
    20   6 C    3.942 --    33 O    1.658    19 N    1.233    21 C    0.961
    21   6 C    3.983 --    22 C    1.401    32 C    1.400    20 C    0.961
                            24 C    0.103
    22   6 C    3.990 --    23 C    1.453    21 C    1.401    69 H    0.969
                            31 C    0.107
    23   6 C    3.990 --    22 C    1.453    24 C    1.386    70 H    0.967
                            32 C    0.107
    24   6 C    3.988 --    31 C    1.387    23 C    1.386    25 C    1.048
                            21 C    0.103
    25   6 C    3.989 --    26 C    1.389    30 C    1.388    24 C    1.048
                            28 C    0.106
    26   6 C    3.991 --    27 C    1.452    25 C    1.389    71 H    0.968
                            29 C    0.108
    27   6 C    3.992 --    26 C    1.452    28 C    1.435    72 H    0.971
                            30 C    0.108
    28   6 C    3.987 --    29 C    1.435    27 C    1.435    73 H    0.971
                            25 C    0.106
    29   6 C    3.992 --    30 C    1.452    28 C    1.435    74 H    0.971
                            26 C    0.108
    30   6 C    3.991 --    29 C    1.452    25 C    1.388    75 H    0.968
                            27 C    0.108
    31   6 C    3.991 --    32 C    1.452    24 C    1.387    76 H    0.967
                            22 C    0.107
    32   6 C    3.991 --    31 C    1.452    21 C    1.400    77 H    0.969
                            23 C    0.107
    33   8 O    2.037 --    20 C    1.658    19 N    0.189
    34   6 C    3.967 --    38 N    0.989    19 N    0.976    78 H    0.943
                            35 C    0.908
    35   6 C    3.923 --    37 O    1.755    36 O    1.157    34 C    0.908
    36   8 O    2.219 --    35 C    1.157    79 H    0.855    37 O    0.173
    37   8 O    2.051 --    35 C    1.755    36 O    0.173
    38   7 N    3.465 --    39 C    1.207    34 C    0.989     9 C    0.959
                            52 O    0.193
    39   6 C    3.946 --    52 O    1.696    38 N    1.207    40 C    0.958
    40   6 C    3.982 --    51 C    1.400    41 C    1.398    39 C    0.958
                            43 C    0.103
    41   6 C    3.990 --    42 C    1.454    40 C    1.398    80 H    0.969
                            50 C    0.106
    42   6 C    3.991 --    41 C    1.454    43 C    1.387    81 H    0.967
                            51 C    0.106
    43   6 C    3.988 --    42 C    1.387    50 C    1.386    44 C    1.047
                            40 C    0.103
    44   6 C    3.989 --    49 C    1.389    45 C    1.389    43 C    1.047
                            47 C    0.106
    45   6 C    3.991 --    46 C    1.452    44 C    1.389    82 H    0.969
                            48 C    0.109
    46   6 C    3.992 --    45 C    1.452    47 C    1.435    83 H    0.971
                            49 C    0.109
    47   6 C    3.987 --    46 C    1.435    48 C    1.435    84 H    0.972
                            44 C    0.106
    48   6 C    3.992 --    49 C    1.451    47 C    1.435    85 H    0.971
                            45 C    0.109
    49   6 C    3.991 --    48 C    1.451    44 C    1.389    86 H    0.969
                            46 C    0.109
    50   6 C    3.991 --    51 C    1.455    43 C    1.386    87 H    0.967
                            41 C    0.106
    51   6 C    3.991 --    50 C    1.455    40 C    1.400    88 H    0.969
                            42 C    0.106
    52   8 O    2.022 --    39 C    1.696    38 N    0.193
    53   1 H    0.996 --     3 C    0.980
    54   1 H    0.999 --     3 C    0.976
    55   1 H    0.998 --     3 C    0.976
    56   1 H    0.998 --     4 C    0.966
    57   1 H    0.998 --     5 C    0.971
    58   1 H    0.998 --     6 C    0.971
    59   1 H    0.996 --     7 C    0.962
    60   1 H    0.993 --     9 C    0.949
    61   1 H    0.994 --    10 C    0.951
    62   1 H    0.998 --    12 C    0.968
    63   1 H    0.998 --    13 C    0.971
    64   1 H    0.998 --    14 C    0.971
    65   1 H    0.998 --    15 C    0.965
    66   1 H    0.998 --    18 C    0.975
    67   1 H    0.996 --    18 C    0.979
    68   1 H    0.998 --    18 C    0.976
    69   1 H    0.997 --    22 C    0.969
    70   1 H    0.998 --    23 C    0.967
    71   1 H    0.999 --    26 C    0.968
    72   1 H    0.998 --    27 C    0.971
    73   1 H    0.998 --    28 C    0.971
    74   1 H    0.998 --    29 C    0.971
    75   1 H    0.999 --    30 C    0.968
    76   1 H    0.998 --    31 C    0.967
    77   1 H    0.998 --    32 C    0.969
    78   1 H    0.996 --    34 C    0.943
    79   1 H    0.880 --    36 O    0.855
    80   1 H    0.997 --    41 C    0.969
    81   1 H    0.998 --    42 C    0.967
    82   1 H    0.999 --    45 C    0.969
    83   1 H    0.998 --    46 C    0.971
    84   1 H    0.999 --    47 C    0.972
    85   1 H    0.998 --    48 C    0.971
    86   1 H    0.999 --    49 C    0.969
    87   1 H    0.998 --    50 C    0.967
    88   1 H    0.998 --    51 C    0.969
 ---------------------------------------------------------------------------

molecular dipole:
                 x           y           z       tot (Debye)
 q only:        1.656      -0.611       0.966
   full:        1.808      -0.601       1.058       5.540

           -------------------------------------------------
          | TOTAL ENERGY             -142.863924301609 Eh   |
          | GRADIENT NORM               0.000369070557 Eh/Î± |
          | HOMO-LUMO GAP               3.200261276292 eV   |
           -------------------------------------------------

 * finished run on 2022/03/16 at 22:22:25.562
