   * xtb version 6.3.3 (4ae9cef) compiled by 'conda@95abc7406d43' on 2020-10-14
          program call               : xtb acid_143.xyz --opt --chrg 0 --uhf 0 --gfn 2
          number of atoms            :                    66
          number of electrons        :                   190
          charge                     :                     0
          spin                       :                   0.0

   ID    Z sym.   atoms
    1    6 C      1-14, 16-23, 25, 26, 30-37
    2    7 N      15, 29
    3    8 O      24, 27, 28, 38
    4    1 H      39-66

          :  Hamiltonian                  GFN2-xTB          :
 * total energy  :  -104.9344232 Eh     change       -0.5147626E-08 Eh
 * total energy  :  -104.9466906 Eh     change       -0.1226731E-01 Eh
 * total energy  :  -104.9499640 Eh     change       -0.3273435E-02 Eh
 * total energy  :  -104.9508196 Eh     change       -0.8556451E-03 Eh
 * total energy  :  -104.9512249 Eh     change       -0.4053043E-03 Eh
 * total energy  :  -104.9514045 Eh     change       -0.1795414E-03 Eh
 * total energy  :  -104.9515646 Eh     change       -0.1600772E-03 Eh
 * total energy  :  -104.9517446 Eh     change       -0.1799966E-03 Eh
 * total energy  :  -104.9519583 Eh     change       -0.2136978E-03 Eh
 * total energy  :  -104.9521801 Eh     change       -0.2218082E-03 Eh
 * total energy  :  -104.9556768 Eh     change       -0.9325741E-05 Eh
 * total energy  :  -104.9556849 Eh     change       -0.8157158E-05 Eh
 * total energy  :  -104.9556952 Eh     change       -0.1021695E-04 Eh
 * total energy  :  -104.9557129 Eh     change       -0.1775042E-04 Eh
 * total energy  :  -104.9557295 Eh     change       -0.1659225E-04 Eh
 * total energy  :  -104.9557306 Eh     change       -0.1106585E-05 Eh
 * total energy  :  -104.9557385 Eh     change       -0.7893282E-05 Eh
 * total energy  :  -104.9557453 Eh     change       -0.6781685E-05 Eh
 * total energy  :  -104.9557488 Eh     change       -0.3485570E-05 Eh
   *** GEOMETRY OPTIMIZATION CONVERGED AFTER 68 ITERATIONS ***

 final structure:
================
66
 xtb: 6.3.3 (4ae9cef)
C         3.39944095489757   -1.62281865100507    0.83113255416790
C         4.46914007497857   -1.96585809434729    1.64098028881601
C         4.42630353107123   -3.12123294289874    2.40069810599054
C         3.31312512877247   -3.94291133876728    2.33528956018025
C         2.24317908937530   -3.59969619354131    1.52976703969781
C         2.26992220053330   -2.42744499538255    0.78243419031446
C         1.08478867646581   -2.07976763870309   -0.08524821783326
C        -0.26367462326215   -2.09386885937565    0.69074096972766
C        -1.31191862670748   -2.93091396679167    0.00593861600223
C        -1.79694058673139   -4.08575586266278    0.60060978852062
C        -2.75395817273715   -4.85254409625142   -0.03992856983364
C        -3.23535134570281   -4.46930600959182   -1.27940815961903
C        -2.75496891147931   -3.31699461385105   -1.87839390502091
C        -1.79641831883405   -2.55260754594933   -1.24017259395314
N        -0.65580760436673   -0.68874899642455    0.70679065461747
C        -1.83983538364921   -0.25647220945613    1.21292708942514
C        -2.05938817140272    1.21495863439350    1.03433151324398
C        -2.24420257403430    1.74367538561759   -0.24011100752160
C        -2.43417263083892    3.10379540938650   -0.39457677409170
C        -2.44499617857610    3.93572814538187    0.71272442603179
C        -2.28266619849707    3.41960205350432    1.99106414712951
C        -2.29995954880263    4.30735584712856    3.19730517129342
C        -2.09086302445503    2.05022271064798    2.13888168775369
O        -2.63666923545741   -1.00087117714085    1.73997225570463
C         0.42198316428093    0.13907337088357    0.23491935615270
C         1.33139090776585    0.61683591493185    1.38729085577183
O         1.10750160391359   -0.03708025351614    2.51873410627080
O         2.14407174666605    1.49225347008691    1.26978503074021
N         1.15780963650585   -0.73561490930718   -0.64028592803184
C         1.30067298508434   -0.56546308128900   -1.99625036512717
C         0.99909536978071    0.79716571676879   -2.51359257068418
C         1.52614544571332    1.95102214972296   -1.94269587270052
C         1.18210989011077    3.20321938950858   -2.43298801500131
C         1.75127121628119    4.44078925431336   -1.81190879611477
C         0.30706756074898    3.28494019637450   -3.51046988725418
C        -0.19914626250051    2.14003267933529   -4.10009894414491
C         0.14838071988696    0.89458702211396   -3.61005038377146
O         1.63573743017892   -1.48718954565767   -2.70885718252596
H         3.45138796678396   -0.72907238087487    0.22770560048723
H         5.33918078166371   -1.32684665571496    1.67343079326844
H         5.26051334144039   -3.38696303476224    3.03269022155131
H         3.28006616667560   -4.85617710163865    2.91068080063314
H         1.38406525387991   -4.25155063807507    1.46828202336587
H         1.05430591644360   -2.77971251428002   -0.93058442093045
H        -0.12034144454077   -2.44233592280930    1.71983883473442
H        -1.43389180724506   -4.37846612546002    1.57504335242212
H        -3.12996034984358   -5.74734748115158    0.43364425892533
H        -3.98716849322529   -5.06416921031199   -1.77650595589494
H        -3.12922250897796   -3.01258182388990   -2.84476188391297
H        -1.42319811708117   -1.65391541696502   -1.71174275027001
H        -2.25018413084225    1.09118789597529   -1.10185220899267
H        -2.57286491585941    3.51669353571497   -1.38276009019252
H        -2.59057572494745    4.99826752836776    0.58158589281613
H        -1.30553084901720    4.35807763544381    3.64065024942202
H        -2.61196750821425    5.31509502385342    2.93586550005301
H        -2.97993586363428    3.91240374117935    3.94985423815008
H        -1.96548470284119    1.62584953497304    3.12464530617281
H         0.06935682635312    1.03194472264263   -0.29216823438918
H         1.70522338594958    0.26434460864742    3.22243990631325
H         2.21174155076428    1.87770263294201   -1.11149658571768
H         2.09106062809410    4.24021501834210   -0.79913389605137
H         2.60317596038797    4.79159073080933   -2.39475502628886
H         1.01061292441167    5.23729717503396   -1.78864163623124
H         0.02701815126574    4.25570707722013   -3.89396573451568
H        -0.86861778834749    2.21803939815365   -4.94390456765166
H        -0.23696558448873   -0.00737432152779   -4.06136122159910

          :  Hamiltonian                  GFN2-xTB          :
         :: total energy            -104.955748772922 Eh    ::
         :: gradient norm              0.000314950928 Eh/a0 ::
         :: HOMO-LUMO gap              3.304162071480 eV    ::
         :: SCC energy              -106.611726972269 Eh    ::
         :: -> dispersion             -0.091197311447 Eh    ::
         :: repulsion energy           1.652623294308 Eh    ::

    * Orbital Energies and Occupations

         #    Occupation            Energy/Eh            Energy/eV
      -------------------------------------------------------------
         1        2.0000           -0.7766078             -21.1326
       ...           ...                  ...                  ...
        83        2.0000           -0.4237829             -11.5317
        84        2.0000           -0.4180871             -11.3767
        85        2.0000           -0.4158274             -11.3152
        86        2.0000           -0.4152083             -11.2984
        87        2.0000           -0.4134031             -11.2493
        88        2.0000           -0.4083776             -11.1125
        89        2.0000           -0.4067824             -11.0691
        90        2.0000           -0.4055199             -11.0348
        91        2.0000           -0.4046794             -11.0119
        92        2.0000           -0.4021827             -10.9439
        93        2.0000           -0.3990392             -10.8584
        94        2.0000           -0.3936008             -10.7104
        95        2.0000           -0.3899956             -10.6123 (HOMO)
        96                         -0.2685699              -7.3082 (LUMO)
        97                         -0.2550885              -6.9413
        98                         -0.2432342              -6.6187
        99                         -0.2342062              -6.3731
       100                         -0.2339048              -6.3649
       101                         -0.2312847              -6.2936
       102                         -0.2310255              -6.2865
       103                         -0.2246240              -6.1123
       104                         -0.2227616              -6.0617
       105                         -0.2066964              -5.6245
       106                         -0.2019558              -5.4955
       ...                                ...                  ...
       180                          0.6662607              18.1299
      -------------------------------------------------------------
                  HL-Gap            0.1214257 Eh            3.3042 eV

     #   Z          covCN         q      C6AA      Î±(0)
     1   6 C        2.923    -0.034    28.839     8.807
     2   6 C        2.920    -0.028    28.711     8.787
     3   6 C        2.920    -0.031    28.783     8.798
     4   6 C        2.920    -0.028    28.690     8.784
     5   6 C        2.925    -0.037    28.920     8.819
     6   6 C        2.971     0.004    27.936     8.670
     7   6 C        3.842     0.036    19.944     6.353
     8   6 C        3.823     0.041    19.874     6.344
     9   6 C        2.974     0.011    27.768     8.644
    10   6 C        2.924    -0.028    28.693     8.784
    11   6 C        2.920    -0.025    28.631     8.775
    12   6 C        2.921    -0.028    28.697     8.785
    13   6 C        2.920    -0.026    28.644     8.777
    14   6 C        2.924    -0.027    28.670     8.781
    15   7 N        2.770    -0.117    23.555     7.208
    16   6 C        2.760     0.272    22.403     7.751
    17   6 C        2.977    -0.022    28.550     8.765
    18   6 C        2.923    -0.037    28.912     8.818
    19   6 C        2.918    -0.029    28.723     8.789
    20   6 C        2.925    -0.038    28.938     8.822
    21   6 C        2.966     0.023    27.495     8.601
    22   6 C        3.758    -0.112    22.691     6.791
    23   6 C        2.929    -0.036    28.889     8.815
    24   8 O        0.859    -0.416    22.011     6.290
    25   6 C        3.780     0.085    19.186     6.240
    26   6 C        2.688     0.353    21.006     7.501
    27   8 O        1.659    -0.352    19.939     6.028
    28   8 O        0.856    -0.393    21.546     6.223
    29   7 N        2.765    -0.121    23.631     7.220
    30   6 C        2.765     0.272    22.405     7.752
    31   6 C        2.974    -0.021    28.536     8.762
    32   6 C        2.926    -0.046    29.146     8.854
    33   6 C        2.966     0.023    27.499     8.601
    34   6 C        3.758    -0.114    22.728     6.797
    35   6 C        2.925    -0.036    28.905     8.817
    36   6 C        2.917    -0.029    28.721     8.788
    37   6 C        2.925    -0.026    28.658     8.779
    38   8 O        0.859    -0.414    21.956     6.282
    39   1 H        0.926     0.036     2.505     2.475
    40   1 H        0.926     0.037     2.488     2.467
    41   1 H        0.926     0.036     2.508     2.477
    42   1 H        0.926     0.037     2.487     2.466
    43   1 H        0.926     0.035     2.517     2.481
    44   1 H        0.923     0.086     1.922     2.168
    45   1 H        0.924     0.061     2.186     2.312
    46   1 H        0.926     0.035     2.516     2.480
    47   1 H        0.926     0.037     2.483     2.464
    48   1 H        0.926     0.036     2.504     2.475
    49   1 H        0.926     0.035     2.514     2.480
    50   1 H        0.925     0.023     2.688     2.564
    51   1 H        0.926     0.028     2.617     2.530
    52   1 H        0.926     0.037     2.490     2.467
    53   1 H        0.926     0.038     2.480     2.463
    54   1 H        0.925     0.050     2.317     2.381
    55   1 H        0.925     0.046     2.365     2.405
    56   1 H        0.925     0.053     2.287     2.365
    57   1 H        0.926     0.041     2.435     2.440
    58   1 H        0.924     0.077     2.008     2.216
    59   1 H        0.804     0.343     0.606     1.223
    60   1 H        0.926     0.051     2.312     2.378
    61   1 H        0.925     0.052     2.293     2.368
    62   1 H        0.925     0.054     2.266     2.354
    63   1 H        0.925     0.046     2.365     2.405
    64   1 H        0.926     0.037     2.486     2.466
    65   1 H        0.926     0.039     2.465     2.455
    66   1 H        0.926     0.046     2.372     2.409

Wiberg/Mayer (AO) data.
largest (>0.10) Wiberg bond orders for each atom

     #   Z sym  total        # sym  WBO       # sym  WBO       # sym  WBO
 ---------------------------------------------------------------------------
     1   6 C    3.991 --     2 C    1.437     6 C    1.419    39 H    0.966
                             4 C    0.110
     2   6 C    3.992 --     3 C    1.445     1 C    1.437    40 H    0.971
                             5 C    0.112
     3   6 C    3.992 --     2 C    1.445     4 C    1.433    41 H    0.971
                             6 C    0.109
     4   6 C    3.991 --     5 C    1.451     3 C    1.433    42 H    0.971
                             1 C    0.110
     5   6 C    3.991 --     4 C    1.451     6 C    1.404    43 H    0.968
                             2 C    0.112
     6   6 C    3.986 --     1 C    1.419     5 C    1.404     7 C    0.991
                             3 C    0.109
     7   6 C    3.961 --     6 C    0.991    29 N    0.967     8 C    0.948
                            44 H    0.939
     8   6 C    3.963 --     9 C    0.992    15 N    0.955    45 H    0.953
                             7 C    0.948
     9   6 C    3.986 --    10 C    1.416    14 C    1.409     8 C    0.992
                            12 C    0.110
    10   6 C    3.990 --    11 C    1.441     9 C    1.416    46 H    0.968
                            13 C    0.110
    11   6 C    3.992 --    12 C    1.442    10 C    1.441    47 H    0.971
                            14 C    0.112
    12   6 C    3.990 --    11 C    1.442    13 C    1.435    48 H    0.971
                             9 C    0.110
    13   6 C    3.992 --    14 C    1.449    12 C    1.435    49 H    0.971
                            10 C    0.110
    14   6 C    3.992 --    13 C    1.449     9 C    1.409    50 H    0.969
                            11 C    0.112
    15   7 N    3.464 --    16 C    1.204    25 C    0.988     8 C    0.955
                            24 O    0.191
    16   6 C    3.946 --    24 O    1.701    15 N    1.204    17 C    0.957
    17   6 C    3.987 --    23 C    1.425    18 C    1.390    16 C    0.957
                            20 C    0.106
    18   6 C    3.991 --    19 C    1.448    17 C    1.390    51 H    0.969
                            21 C    0.108
    19   6 C    3.992 --    18 C    1.448    20 C    1.435    52 H    0.970
                            23 C    0.108
    20   6 C    3.991 --    19 C    1.435    21 C    1.418    53 H    0.969
                            17 C    0.106
    21   6 C    3.988 --    20 C    1.418    23 C    1.402    22 C    1.027
                            18 C    0.108
    22   6 C    3.995 --    21 C    1.027    55 H    0.985    56 H    0.974
                            54 H    0.969
    23   6 C    3.990 --    17 C    1.425    21 C    1.402    57 H    0.968
                            19 C    0.108
    24   8 O    2.024 --    16 C    1.701    15 N    0.191
    25   6 C    3.972 --    15 N    0.988    29 N    0.986    58 H    0.928
                            26 C    0.910
    26   6 C    3.917 --    28 O    1.768    27 O    1.167    25 C    0.910
    27   8 O    2.233 --    26 C    1.167    59 H    0.856    28 O    0.183
    28   8 O    2.053 --    26 C    1.768    27 O    0.183
    29   7 N    3.441 --    30 C    1.166    25 C    0.986     7 C    0.967
                            38 O    0.178
    30   6 C    3.940 --    38 O    1.704    29 N    1.166    31 C    0.985
    31   6 C    3.988 --    37 C    1.395    32 C    1.395    30 C    0.985
                            35 C    0.105
    32   6 C    3.989 --    33 C    1.416    31 C    1.395    60 H    0.963
                            36 C    0.106
    33   6 C    3.988 --    32 C    1.416    35 C    1.405    34 C    1.027
                            37 C    0.106
    34   6 C    3.995 --    33 C    1.027    61 H    0.982    63 H    0.979
                            62 H    0.966
    35   6 C    3.991 --    36 C    1.445    33 C    1.405    64 H    0.970
                            31 C    0.105
    36   6 C    3.991 --    35 C    1.445    37 C    1.441    65 H    0.970
                            32 C    0.106
    37   6 C    3.990 --    36 C    1.441    31 C    1.395    66 H    0.969
                            33 C    0.106
    38   8 O    2.030 --    30 C    1.704    29 N    0.178
    39   1 H    0.999 --     1 C    0.966
    40   1 H    0.998 --     2 C    0.971
    41   1 H    0.998 --     3 C    0.971
    42   1 H    0.998 --     4 C    0.971
    43   1 H    0.999 --     5 C    0.968
    44   1 H    0.992 --     7 C    0.939
    45   1 H    0.996 --     8 C    0.953
    46   1 H    0.999 --    10 C    0.968
    47   1 H    0.998 --    11 C    0.971
    48   1 H    0.998 --    12 C    0.971
    49   1 H    0.998 --    13 C    0.971
    50   1 H    0.999 --    14 C    0.969
    51   1 H    0.999 --    18 C    0.969
    52   1 H    0.998 --    19 C    0.970
    53   1 H    0.998 --    20 C    0.969
    54   1 H    0.997 --    22 C    0.969
    55   1 H    0.997 --    22 C    0.985
    56   1 H    0.997 --    22 C    0.974
    57   1 H    0.998 --    23 C    0.968
    58   1 H    0.994 --    25 C    0.928
    59   1 H    0.882 --    27 O    0.856
    60   1 H    0.997 --    32 C    0.963
    61   1 H    0.997 --    34 C    0.982
    62   1 H    0.997 --    34 C    0.966
    63   1 H    0.997 --    34 C    0.979
    64   1 H    0.998 --    35 C    0.970
    65   1 H    0.998 --    36 C    0.970
    66   1 H    0.997 --    37 C    0.969
 ---------------------------------------------------------------------------

molecular dipole:
                 x           y           z       tot (Debye)
 q only:        0.305       1.060       0.853
   full:        0.347       1.364       0.947       4.311

           -------------------------------------------------
          | TOTAL ENERGY             -104.955748772922 Eh   |
          | GRADIENT NORM               0.000314950928 Eh/Î± |
          | HOMO-LUMO GAP               3.304162071480 eV   |
           -------------------------------------------------

 * finished run on 2022/03/16 at 21:49:18.901
