   * xtb version 6.3.3 (4ae9cef) compiled by 'conda@95abc7406d43' on 2020-10-14
          program call               : xtb acid_323.xyz --opt --chrg 0 --uhf 0 --gfn 2
          number of atoms            :                    60
          number of electrons        :                   190
          charge                     :                     0
          spin                       :                   0.0

   ID    Z sym.   atoms
    1    6 C      1-14, 16-18, 20-23, 25, 26, 30-36
    2    7 N      15, 29
    3    9 F      19, 37
    4    8 O      24, 27, 28, 38
    5    1 H      39-60

          :  Hamiltonian                  GFN2-xTB          :
 * total energy  :  -107.0324853 Eh     change       -0.1073900E-08 Eh
 * total energy  :  -107.0457123 Eh     change       -0.1322698E-01 Eh
 * total energy  :  -107.0486570 Eh     change       -0.2944708E-02 Eh
 * total energy  :  -107.0493604 Eh     change       -0.7033331E-03 Eh
 * total energy  :  -107.0496805 Eh     change       -0.3201689E-03 Eh
 * total energy  :  -107.0498208 Eh     change       -0.1402975E-03 Eh
 * total energy  :  -107.0499407 Eh     change       -0.1198519E-03 Eh
 * total energy  :  -107.0500824 Eh     change       -0.1417621E-03 Eh
 * total energy  :  -107.0502310 Eh     change       -0.1485562E-03 Eh
 * total energy  :  -107.0503573 Eh     change       -0.1262874E-03 Eh
 * total energy  :  -107.0514187 Eh     change       -0.1632502E-04 Eh
 * total energy  :  -107.0514317 Eh     change       -0.1298449E-04 Eh
 * total energy  :  -107.0514416 Eh     change       -0.9907357E-05 Eh
 * total energy  :  -107.0514421 Eh     change       -0.4369689E-06 Eh
 * total energy  :  -107.0514332 Eh     change        0.8911600E-05 Eh
 * total energy  :  -107.0514443 Eh     change       -0.1114549E-04 Eh
 * total energy  :  -107.0514331 Eh     change        0.1117893E-04 Eh
 * total energy  :  -107.0514472 Eh     change       -0.1409639E-04 Eh
 * total energy  :  -107.0514509 Eh     change       -0.3665103E-05 Eh
   *** GEOMETRY OPTIMIZATION CONVERGED AFTER 47 ITERATIONS ***

 final structure:
================
60
 xtb: 6.3.3 (4ae9cef)
C        -2.96180372024065   -1.15951356449593   -0.85599045483126
C        -4.21092165639439   -1.58714040291472   -1.26793577762853
C        -4.70821344800514   -2.80505444370982   -0.83631924477197
C        -3.95227954234877   -3.59727942167484    0.01057992229068
C        -2.70636507331089   -3.16875330024423    0.43227745498936
C        -2.20770467906787   -1.94711969770244    0.00462010094409
C        -0.84026775447339   -1.49736684873800    0.44814220062859
C         0.20098575655447   -1.59979898251425   -0.68203538652983
C         1.10504957320238   -2.78939301904570   -0.49922949743292
C         2.07082086898316   -2.79005224508955    0.49897603768354
C         2.87890130004498   -3.89551357692730    0.68925334353534
C         2.71996019907484   -5.01543487857591   -0.10912113175247
C         1.75253926344772   -5.02321519197356   -1.09891509794025
C         0.94861578501595   -3.91428055999975   -1.29480326753997
N         0.93334593516739   -0.33989098308868   -0.60452276110768
C         1.96886741385193   -0.09578224640755   -1.45457555002716
C         2.54991052101524    1.28418548408625   -1.33080262385975
C         2.42104013238436    2.19557725915055   -2.37302552870723
F         1.73003387573351    1.85010216393765   -3.46650486387265
C         2.96562928211152    3.46604770053537   -2.29971423092341
C         3.67148244076128    3.83101395687291   -1.16770955337187
C         3.83287660785494    2.93103319970396   -0.12585840564156
C         3.27701158228733    1.66597797331358   -0.20841367880241
O         2.40423353072804   -0.92967938948521   -2.21053374452201
C         0.25676043103473    0.64723273697922    0.19995808691678
C        -0.29512392963648    1.79686743818881   -0.69158315285176
O         0.14572225859580    3.02958463679808   -0.40009698258892
O        -1.05251921384859    1.59372964171464   -1.58746689474468
N        -0.81538411010293   -0.08761231269526    0.82193063113282
C        -1.68397451336372    0.40612673411647    1.74241905508924
C        -1.58471098740480    1.89539533351847    1.92712959498992
C        -0.63189802701360    2.47012434377475    2.75986826089046
C        -0.58018696223372    3.84418878773557    2.92466171164543
C        -1.48509716447212    4.65921465339543    2.26323425807570
C        -2.45150353300261    4.10565753398264    1.44304884998855
C        -2.49410247545667    2.73130672916164    1.28876641002164
F        -3.42542302112732    2.19478564575987    0.48811016423678
O        -2.46277948948515   -0.28767277528897    2.35082706619661
H        -2.58053146679600   -0.20896911515408   -1.19911924232456
H        -4.79625149137517   -0.96419933744216   -1.92729169564606
H        -5.68502676506963   -3.13557982411520   -1.15740937124834
H        -4.33602530068786   -4.54775613270750    0.35089742267491
H        -2.11913472144467   -3.78258652637106    1.10012958994082
H        -0.52453325386367   -2.09615167206662    1.31384792305358
H        -0.29955452509185   -1.66231341733530   -1.65675113396419
H         2.19573794205031   -1.91717722645104    1.12523014381928
H         3.63318592216905   -3.88401246290873    1.46241867648518
H         3.35114190879661   -5.87885056173653    0.03957066725400
H         1.62635807211615   -5.89395162678795   -1.72470692556738
H         0.19803552511826   -3.91777149805735   -2.07089830851526
H         2.83245983900207    4.14439965184891   -3.12681962104187
H         4.10398623199772    4.81718702943188   -1.10184775577433
H         4.39972999833006    3.21174577804343    0.74873225297731
H         3.42303576296597    0.95451736856781    0.59183824400701
H         0.94141824931608    1.06600243957938    0.96318538181823
H         0.74125456752094    3.07176774199504    0.36064169480707
H         0.06022516551781    1.83121228878251    3.29019692056322
H         0.16436017278986    4.27829488729716    3.57462255843302
H        -1.44217630377907    5.72946732127529    2.39148227095262
H        -3.17122298644495    4.71712578215645    0.92340898749230

          :  Hamiltonian                  GFN2-xTB          :
         :: total energy            -107.051450892107 Eh    ::
         :: gradient norm              0.000878212869 Eh/a0 ::
         :: HOMO-LUMO gap              3.142277234002 eV    ::
         :: SCC energy              -108.598886642974 Eh    ::
         :: -> dispersion             -0.085958330418 Eh    ::
         :: repulsion energy           1.545079267499 Eh    ::

    * Orbital Energies and Occupations

         #    Occupation            Energy/Eh            Energy/eV
      -------------------------------------------------------------
         1        2.0000           -0.8289302             -22.5563
       ...           ...                  ...                  ...
        83        2.0000           -0.4327822             -11.7766
        84        2.0000           -0.4320432             -11.7565
        85        2.0000           -0.4305630             -11.7162
        86        2.0000           -0.4288230             -11.6689
        87        2.0000           -0.4198051             -11.4235
        88        2.0000           -0.4184852             -11.3876
        89        2.0000           -0.4157619             -11.3135
        90        2.0000           -0.4140468             -11.2668
        91        2.0000           -0.4118077             -11.2059
        92        2.0000           -0.4090332             -11.1304
        93        2.0000           -0.4021654             -10.9435
        94        2.0000           -0.4001807             -10.8895
        95        2.0000           -0.3949380             -10.7468 (HOMO)
        96                         -0.2794615              -7.6045 (LUMO)
        97                         -0.2693606              -7.3297
        98                         -0.2620937              -7.1319
        99                         -0.2590552              -7.0493
       100                         -0.2582711              -7.0279
       101                         -0.2343841              -6.3779
       102                         -0.2326591              -6.3310
       103                         -0.2295719              -6.2470
       104                         -0.2261840              -6.1548
       105                         -0.2210215              -6.0143
       106                         -0.2187139              -5.9515
       ...                                ...                  ...
       174                          0.6701952              18.2369
      -------------------------------------------------------------
                  HL-Gap            0.1154766 Eh            3.1423 eV

     #   Z          covCN         q      C6AA      Î±(0)
     1   6 C        2.923    -0.031    28.780     8.798
     2   6 C        2.920    -0.024    28.596     8.769
     3   6 C        2.920    -0.028    28.691     8.784
     4   6 C        2.920    -0.026    28.656     8.779
     5   6 C        2.923    -0.030    28.748     8.793
     6   6 C        2.975     0.008    27.832     8.654
     7   6 C        3.821     0.046    19.781     6.329
     8   6 C        3.823     0.046    19.793     6.331
     9   6 C        2.974     0.013    27.722     8.637
    10   6 C        2.924    -0.030    28.747     8.793
    11   6 C        2.920    -0.027    28.672     8.781
    12   6 C        2.921    -0.028    28.691     8.784
    13   6 C        2.920    -0.024    28.595     8.769
    14   6 C        2.924    -0.027    28.677     8.782
    15   7 N        2.765    -0.116    23.523     7.203
    16   6 C        2.761     0.281    22.244     7.724
    17   6 C        2.972    -0.041    29.017     8.836
    18   6 C        2.788     0.180    24.134     8.047
    19   9 F        0.787    -0.201    11.244     3.961
    20   6 C        2.917    -0.043    29.080     8.843
    21   6 C        2.923    -0.027    28.682     8.783
    22   6 C        2.917    -0.039    28.981     8.828
    23   6 C        2.925    -0.038    28.937     8.822
    24   8 O        0.859    -0.391    21.503     6.217
    25   6 C        3.745     0.085    19.242     6.257
    26   6 C        2.685     0.344    21.150     7.526
    27   8 O        1.659    -0.366    20.197     6.067
    28   8 O        0.856    -0.319    20.122     6.014
    29   7 N        2.765    -0.113    23.469     7.195
    30   6 C        2.761     0.281    22.252     7.725
    31   6 C        2.973    -0.041    29.019     8.836
    32   6 C        2.924    -0.038    28.944     8.823
    33   6 C        2.918    -0.039    28.974     8.827
    34   6 C        2.923    -0.026    28.650     8.778
    35   6 C        2.917    -0.042    29.040     8.837
    36   6 C        2.788     0.178    24.168     8.053
    37   9 F        0.787    -0.204    11.273     3.966
    38   8 O        0.859    -0.395    21.582     6.229
    39   1 H        0.926     0.054     2.268     2.355
    40   1 H        0.926     0.042     2.418     2.432
    41   1 H        0.926     0.036     2.499     2.472
    42   1 H        0.926     0.036     2.499     2.472
    43   1 H        0.926     0.031     2.566     2.505
    44   1 H        0.923     0.056     2.245     2.343
    45   1 H        0.924     0.066     2.133     2.284
    46   1 H        0.925     0.022     2.706     2.572
    47   1 H        0.926     0.035     2.511     2.478
    48   1 H        0.926     0.038     2.473     2.459
    49   1 H        0.926     0.041     2.432     2.439
    50   1 H        0.926     0.040     2.442     2.444
    51   1 H        0.926     0.073     2.058     2.243
    52   1 H        0.926     0.055     2.255     2.348
    53   1 H        0.926     0.049     2.331     2.387
    54   1 H        0.926     0.042     2.419     2.432
    55   1 H        0.922     0.030     2.583     2.513
    56   1 H        0.805     0.322     0.657     1.273
    57   1 H        0.926     0.042     2.426     2.436
    58   1 H        0.926     0.049     2.332     2.388
    59   1 H        0.926     0.056     2.245     2.343
    60   1 H        0.926     0.073     2.049     2.238

Wiberg/Mayer (AO) data.
largest (>0.10) Wiberg bond orders for each atom

     #   Z sym  total        # sym  WBO       # sym  WBO       # sym  WBO
 ---------------------------------------------------------------------------
     1   6 C    3.990 --     2 C    1.445     6 C    1.412    39 H    0.964
                             4 C    0.112
     2   6 C    3.992 --     1 C    1.445     3 C    1.438    40 H    0.970
                             5 C    0.111
     3   6 C    3.991 --     4 C    1.440     2 C    1.438    41 H    0.971
                             6 C    0.109
     4   6 C    3.992 --     5 C    1.442     3 C    1.440    42 H    0.971
                             1 C    0.112
     5   6 C    3.990 --     4 C    1.442     6 C    1.415    43 H    0.969
                             2 C    0.111
     6   6 C    3.983 --     5 C    1.415     1 C    1.412     7 C    0.988
                             3 C    0.109
     7   6 C    3.957 --     6 C    0.988     8 C    0.956    44 H    0.953
                            29 N    0.949
     8   6 C    3.957 --     9 C    0.990     7 C    0.956    45 H    0.953
                            15 N    0.949
     9   6 C    3.985 --    14 C    1.415    10 C    1.410     8 C    0.990
                            12 C    0.109
    10   6 C    3.992 --    11 C    1.448     9 C    1.410    46 H    0.969
                            13 C    0.111
    11   6 C    3.992 --    10 C    1.448    12 C    1.436    47 H    0.971
                            14 C    0.111
    12   6 C    3.991 --    13 C    1.441    11 C    1.436    48 H    0.971
                             9 C    0.109
    13   6 C    3.992 --    14 C    1.442    12 C    1.441    49 H    0.970
                            10 C    0.111
    14   6 C    3.990 --    13 C    1.442     9 C    1.415    50 H    0.968
                            11 C    0.111
    15   7 N    3.455 --    16 C    1.196    25 C    0.989     8 C    0.949
                            24 O    0.193
    16   6 C    3.951 --    24 O    1.721    15 N    1.196    17 C    0.952
    17   6 C    3.985 --    23 C    1.403    18 C    1.362    16 C    0.952
                            21 C    0.108
    18   6 C    3.894 --    20 C    1.391    17 C    1.362    19 F    0.981
    19   9 F    1.124 --    18 C    0.981
    20   6 C    3.987 --    21 C    1.446    18 C    1.391    51 H    0.965
                            23 C    0.110
    21   6 C    3.990 --    20 C    1.446    22 C    1.431    52 H    0.969
                            17 C    0.108
    22   6 C    3.991 --    23 C    1.444    21 C    1.431    53 H    0.969
    23   6 C    3.990 --    22 C    1.444    17 C    1.403    54 H    0.968
                            20 C    0.110
    24   8 O    2.056 --    16 C    1.721    15 N    0.193
    25   6 C    3.974 --    29 N    0.990    15 N    0.989    55 H    0.942
                            26 C    0.895
    26   6 C    3.922 --    28 O    1.829    27 O    1.123    25 C    0.895
    27   8 O    2.210 --    26 C    1.123    56 H    0.865    28 O    0.169
    28   8 O    2.121 --    26 C    1.829    27 O    0.169
    29   7 N    3.464 --    30 C    1.206    25 C    0.990     7 C    0.949
                            38 O    0.197
    30   6 C    3.951 --    38 O    1.718    29 N    1.206    31 C    0.947
    31   6 C    3.986 --    32 C    1.407    36 C    1.361    30 C    0.947
                            34 C    0.109
    32   6 C    3.989 --    33 C    1.441    31 C    1.407    57 H    0.969
                            35 C    0.110
    33   6 C    3.991 --    32 C    1.441    34 C    1.433    58 H    0.969
    34   6 C    3.990 --    35 C    1.444    33 C    1.433    59 H    0.969
                            31 C    0.109
    35   6 C    3.987 --    34 C    1.444    36 C    1.393    60 H    0.964
                            32 C    0.110
    36   6 C    3.893 --    35 C    1.393    31 C    1.361    37 F    0.979
    37   9 F    1.120 --    36 C    0.979
    38   8 O    2.051 --    30 C    1.718    29 N    0.197
    39   1 H    0.997 --     1 C    0.964
    40   1 H    0.998 --     2 C    0.970
    41   1 H    0.998 --     3 C    0.971
    42   1 H    0.998 --     4 C    0.971
    43   1 H    0.999 --     5 C    0.969
    44   1 H    0.996 --     7 C    0.953
    45   1 H    0.995 --     8 C    0.953
    46   1 H    1.000 --    10 C    0.969
    47   1 H    0.998 --    11 C    0.971
    48   1 H    0.998 --    12 C    0.971
    49   1 H    0.998 --    13 C    0.970
    50   1 H    0.998 --    14 C    0.968
    51   1 H    0.994 --    20 C    0.965
    52   1 H    0.997 --    21 C    0.969
    53   1 H    0.997 --    22 C    0.969
    54   1 H    0.998 --    23 C    0.968
    55   1 H    0.999 --    25 C    0.942
    56   1 H    0.896 --    27 O    0.865
    57   1 H    0.998 --    32 C    0.969
    58   1 H    0.997 --    33 C    0.969
    59   1 H    0.996 --    34 C    0.969
    60   1 H    0.994 --    35 C    0.964
 ---------------------------------------------------------------------------

molecular dipole:
                 x           y           z       tot (Debye)
 q only:        1.497       1.114       1.635
   full:        1.876       1.520       2.024       8.008

           -------------------------------------------------
          | TOTAL ENERGY             -107.051450892107 Eh   |
          | GRADIENT NORM               0.000878212869 Eh/Î± |
          | HOMO-LUMO GAP               3.142277234002 eV   |
           -------------------------------------------------

 * finished run on 2022/03/16 at 23:50:11.690
