   * xtb version 6.3.3 (4ae9cef) compiled by 'conda@95abc7406d43' on 2020-10-14
          program call               : xtb acid_220.xyz --opt --chrg 0 --uhf 0 --gfn 2
          number of atoms            :                    74
          number of electrons        :                   230
          charge                     :                     0
          spin                       :                   0.0

   ID    Z sym.   atoms
    1    6 C      1-22, 24-30, 32, 34, 35, 39-43, 45-47
    2    7 N      23, 31, 38, 44
    3    8 O      33, 36, 37, 48
    4    1 H      49-74

          :  Hamiltonian                  GFN2-xTB          :
 * total energy  :  -126.8114595 Eh     change       -0.8544987E-08 Eh
 * total energy  :  -126.8299409 Eh     change       -0.1848140E-01 Eh
 * total energy  :  -126.8356566 Eh     change       -0.5715697E-02 Eh
 * total energy  :  -126.8376070 Eh     change       -0.1950354E-02 Eh
 * total energy  :  -126.8389883 Eh     change       -0.1381313E-02 Eh
 * total energy  :  -126.8397190 Eh     change       -0.7306934E-03 Eh
 * total energy  :  -126.8403522 Eh     change       -0.6332250E-03 Eh
 * total energy  :  -126.8410182 Eh     change       -0.6660133E-03 Eh
 * total energy  :  -126.8417183 Eh     change       -0.7001480E-03 Eh
 * total energy  :  -126.8424089 Eh     change       -0.6905794E-03 Eh
 * total energy  :  -126.8461274 Eh     change       -0.8715312E-05 Eh
 * total energy  :  -126.8461225 Eh     change        0.4810555E-05 Eh
 * total energy  :  -126.8461312 Eh     change       -0.8693050E-05 Eh
 * total energy  :  -126.8461373 Eh     change       -0.6039508E-05 Eh
 * total energy  :  -126.8461331 Eh     change        0.4164197E-05 Eh
 * total energy  :  -126.8461396 Eh     change       -0.6501761E-05 Eh
 * total energy  :  -126.8461434 Eh     change       -0.3810123E-05 Eh
 * total energy  :  -126.8461424 Eh     change        0.1004266E-05 Eh
 * total energy  :  -126.8461445 Eh     change       -0.2112320E-05 Eh
   *** GEOMETRY OPTIMIZATION CONVERGED AFTER 45 ITERATIONS ***

 final structure:
================
74
 xtb: 6.3.3 (4ae9cef)
C        -4.75312732631893    2.72274613484011    0.57609453546408
C        -4.69803153946358    2.92845297680232   -0.77239043213048
C        -3.57389823015297    2.50647761816334   -1.49663509004493
C        -2.54496001809788    1.85733370686517   -0.87345980115365
C        -2.58292506229726    1.59393679369207    0.51365402460525
C        -3.70123101463218    2.07064461671670    1.25341774412793
C        -3.74793077925345    1.88822510683587    2.65057388729245
C        -2.72370325759598    1.26482356523429    3.30396347802021
C        -1.64457252624869    0.74967271580967    2.57641751293315
C        -1.57524707348184    0.87575307413305    1.21029642567893
C        -0.44480195364977    0.19551472684048    0.48095609717313
C         0.91331727781954    0.89529693161991    0.68412518884184
C         1.21758143921500    1.87125229602703   -0.42228825009239
C         1.17000454310027    3.20871341680349   -0.11927595390683
C         1.38608771217325    4.18911010286333   -1.09471834612480
C         1.65634489299835    3.82164123737956   -2.38059815688670
C         1.71057239822586    2.45976074487742   -2.74070539717141
C         1.47744857564642    1.45743348529071   -1.75757749641153
C         1.52459913911270    0.10699681962995   -2.17080167264193
C         1.80176594138197   -0.22943993806402   -3.46740219774770
C         2.04160725692917    0.76116087514691   -4.42923884470947
C         1.99199822120044    2.07758601600659   -4.06944014937482
N         1.85620291081679   -0.21292155856439    0.81702820504468
C         3.19664281727787   -0.02203144861606    0.71104038091440
C         4.01460847889488   -1.26265946386036    0.90821293678494
C         4.37347655318526   -1.67710853239314    2.18584823232054
C         5.16339064445845   -2.80205868841854    2.35647228103601
C         5.59813180303524   -3.51970687736912    1.25848801406727
C         5.25156021377301   -3.09495583188360   -0.02505587280913
C         5.69559826479336   -3.82849592749136   -1.15126791358307
N         6.05296764758404   -4.43534009603820   -2.05483458385188
C         4.46530446390099   -1.95786715771791   -0.20325708801095
O         3.68819632008762    1.05498236549042    0.46233112560398
C         1.18771027329050   -1.39843858222776    1.29535271359262
C         1.60449113735836   -2.70277154442663    0.58072606005330
O         2.10096959518558   -3.59245688399886    1.42569908795132
O         1.50023417366269   -2.86299088720956   -0.60300460222142
N        -0.20812446731927   -1.14815067088202    0.98924390046958
C        -1.07443679106602   -2.18484498871016    0.92015824930384
C        -2.44486692443850   -1.79194814832957    0.46360285946799
C        -3.44449002467952   -1.54634752222634    1.39014979583545
C        -4.68643391317480   -1.09051148609879    0.95285236135340
C        -5.68539039238259   -0.76805580723136    1.90057666196607
N        -6.49048440873088   -0.49128463932598    2.66774860594959
C        -4.93563855153314   -0.91854764707456   -0.40868086008807
C        -3.94594258548810   -1.21660599471149   -1.32519064311806
C        -2.70049486571261   -1.64487975121201   -0.89509007429858
O        -0.73742521587062   -3.31249193561097    1.22212815659307
H        -5.60275269258215    3.05857616900232    1.15226887388460
H        -5.50676451988342    3.42690225405001   -1.28538360139466
H        -3.52207404126213    2.70100607782185   -2.55754318129204
H        -1.68462954385666    1.56878651688825   -1.45736890562142
H        -4.60802698561326    2.25127933790360    3.19253382012857
H        -2.74932092178379    1.14062823959134    4.37584196824687
H        -0.86729109617106    0.21210731705177    3.10138036431643
H        -0.66618648508576    0.13155002917611   -0.58812199462060
H         0.89659047143835    1.44918533892626    1.63488307475830
H         0.96625976236544    3.51932844130686    0.89547828073520
H         1.34314810526708    5.23097976103940   -0.81540919445057
H         1.83559992200230    4.56618696439281   -3.14274323782359
H         1.35321535357780   -0.68976208913431   -1.46627463317376
H         1.83812657036370   -1.27117515257993   -3.75043649735017
H         2.26389790593757    0.47630765226193   -5.44696848324470
H         2.17230663301400    2.85433389305197   -4.79898644693429
H         4.03932636157538   -1.11431391463021    3.04476410487416
H         5.43856694269356   -3.12051550647401    3.35013530292983
H         6.20857986543268   -4.40200903119608    1.38148135242968
H         4.20111121589430   -1.62795374768593   -1.19707734064119
H         1.32961502045801   -1.54971485131680    2.38047627363638
H         2.24708161128975   -4.44369645493208    0.98199054222691
H        -3.26047477144664   -1.68479871328345    2.44481579839718
H        -5.89927866693501   -0.55628406504109   -0.73347528198866
H        -4.13918920084321   -1.10212335747281   -2.38070134092230
H        -1.92409058935846   -1.86941842610524   -1.61180671317638

          :  Hamiltonian                  GFN2-xTB          :
         :: total energy            -126.846144534818 Eh    ::
         :: gradient norm              0.000926658802 Eh/a0 ::
         :: HOMO-LUMO gap              2.571337488788 eV    ::
         :: SCC energy              -129.005270163250 Eh    ::
         :: -> dispersion             -0.121988894827 Eh    ::
         :: repulsion energy           2.154061129411 Eh    ::

    * Orbital Energies and Occupations

         #    Occupation            Energy/Eh            Energy/eV
      -------------------------------------------------------------
         1        2.0000           -0.7733649             -21.0443
       ...           ...                  ...                  ...
       103        2.0000           -0.4337964             -11.8042
       104        2.0000           -0.4325547             -11.7704
       105        2.0000           -0.4316459             -11.7457
       106        2.0000           -0.4296495             -11.6914
       107        2.0000           -0.4234440             -11.5225
       108        2.0000           -0.4224865             -11.4964
       109        2.0000           -0.4200285             -11.4296
       110        2.0000           -0.4175486             -11.3621
       111        2.0000           -0.4108657             -11.1802
       112        2.0000           -0.4081763             -11.1070
       113        2.0000           -0.4068094             -11.0698
       114        2.0000           -0.3985156             -10.8442
       115        2.0000           -0.3831876             -10.4271 (HOMO)
       116                         -0.2886927              -7.8557 (LUMO)
       117                         -0.2859841              -7.7820
       118                         -0.2835876              -7.7168
       119                         -0.2697814              -7.3411
       120                         -0.2669194              -7.2632
       121                         -0.2621431              -7.1333
       122                         -0.2555187              -6.9530
       123                         -0.2501128              -6.8059
       124                         -0.2388403              -6.4992
       125                         -0.2347148              -6.3869
       126                         -0.2325506              -6.3280
       ...                                ...                  ...
       218                          1.1648442              31.6970
      -------------------------------------------------------------
                  HL-Gap            0.0944949 Eh            2.5713 eV

     #   Z          covCN         q      C6AA      Î±(0)
     1   6 C        2.921    -0.033    28.822     8.804
     2   6 C        2.915    -0.028    28.707     8.786
     3   6 C        2.917    -0.028    28.694     8.784
     4   6 C        2.916    -0.038    28.940     8.822
     5   6 C        2.984     0.005    27.915     8.667
     6   6 C        2.989     0.014    27.691     8.632
     7   6 C        2.921    -0.034    28.836     8.806
     8   6 C        2.914    -0.030    28.753     8.793
     9   6 C        2.923    -0.036    28.886     8.814
    10   6 C        2.968    -0.013    28.337     8.732
    11   6 C        3.818     0.038    19.922     6.352
    12   6 C        3.829     0.052    19.677     6.312
    13   6 C        2.966     0.005    27.916     8.666
    14   6 C        2.924    -0.030    28.748     8.793
    15   6 C        2.914    -0.027    28.688     8.783
    16   6 C        2.921    -0.033    28.825     8.804
    17   6 C        2.988     0.016    27.639     8.624
    18   6 C        2.983     0.013    27.721     8.637
    19   6 C        2.917    -0.042    29.032     8.836
    20   6 C        2.917    -0.028    28.706     8.786
    21   6 C        2.914    -0.029    28.715     8.787
    22   6 C        2.921    -0.033    28.826     8.804
    23   7 N        2.762    -0.118    23.569     7.210
    24   6 C        2.761     0.275    22.346     7.741
    25   6 C        2.976    -0.015    28.389     8.740
    26   6 C        2.922    -0.019    28.478     8.751
    27   6 C        2.918    -0.021    28.537     8.760
    28   6 C        2.927    -0.020    28.514     8.757
    29   6 C        2.974     0.024    27.464     8.596
    30   6 C        1.912     0.114    28.286     8.589
    31   7 N        0.911    -0.220    25.804     7.347
    32   6 C        2.929    -0.014    28.353     8.732
    33   8 O        0.859    -0.405    21.783     6.258
    34   6 C        3.759     0.100    18.986     6.212
    35   6 C        2.689     0.368    20.755     7.456
    36   8 O        1.660    -0.356    20.024     6.041
    37   8 O        0.856    -0.392    21.515     6.219
    38   7 N        2.771    -0.114    23.489     7.198
    39   6 C        2.767     0.275    22.344     7.741
    40   6 C        2.978    -0.006    28.155     8.704
    41   6 C        2.930    -0.014    28.366     8.734
    42   6 C        2.974     0.024    27.464     8.596
    43   6 C        1.913     0.114    28.279     8.588
    44   7 N        0.911    -0.223    25.878     7.357
    45   6 C        2.926    -0.018    28.453     8.748
    46   6 C        2.919    -0.022    28.550     8.762
    47   6 C        2.922    -0.019    28.490     8.753
    48   8 O        0.859    -0.424    22.158     6.311
    49   1 H        0.926     0.044     2.402     2.424
    50   1 H        0.926     0.040     2.452     2.449
    51   1 H        0.926     0.038     2.479     2.462
    52   1 H        0.926     0.029     2.608     2.525
    53   1 H        0.926     0.048     2.340     2.392
    54   1 H        0.926     0.043     2.415     2.430
    55   1 H        0.926     0.032     2.564     2.504
    56   1 H        0.924     0.058     2.225     2.333
    57   1 H        0.923     0.048     2.344     2.394
    58   1 H        0.926     0.031     2.577     2.510
    59   1 H        0.926     0.038     2.479     2.462
    60   1 H        0.926     0.038     2.471     2.458
    61   1 H        0.926     0.041     2.433     2.439
    62   1 H        0.926     0.038     2.476     2.461
    63   1 H        0.926     0.034     2.530     2.487
    64   1 H        0.926     0.035     2.523     2.484
    65   1 H        0.926     0.043     2.409     2.427
    66   1 H        0.926     0.051     2.304     2.374
    67   1 H        0.926     0.051     2.311     2.377
    68   1 H        0.926     0.056     2.242     2.341
    69   1 H        0.922     0.058     2.217     2.329
    70   1 H        0.804     0.350     0.589     1.206
    71   1 H        0.926     0.049     2.327     2.386
    72   1 H        0.926     0.050     2.317     2.380
    73   1 H        0.926     0.051     2.305     2.374
    74   1 H        0.926     0.051     2.304     2.374

Wiberg/Mayer (AO) data.
largest (>0.10) Wiberg bond orders for each atom

     #   Z sym  total        # sym  WBO       # sym  WBO       # sym  WBO
 ---------------------------------------------------------------------------
     1   6 C    3.991 --     2 C    1.558     6 C    1.278    49 H    0.967
                             4 C    0.119
     2   6 C    3.992 --     1 C    1.558     3 C    1.321    50 H    0.970
     3   6 C    3.991 --     4 C    1.555     2 C    1.321    51 H    0.971
     4   6 C    3.992 --     3 C    1.555     5 C    1.283    52 H    0.961
                             1 C    0.119
     5   6 C    3.989 --     4 C    1.283    10 C    1.255     6 C    1.252
     6   6 C    3.990 --     7 C    1.281     1 C    1.278     5 C    1.252
     7   6 C    3.989 --     8 C    1.548     6 C    1.281    53 H    0.967
                            10 C    0.115
     8   6 C    3.991 --     7 C    1.548     9 C    1.331    54 H    0.970
     9   6 C    3.991 --    10 C    1.517     8 C    1.331    55 H    0.968
    10   6 C    3.983 --     9 C    1.517     5 C    1.255    11 C    0.989
                             7 C    0.115
    11   6 C    3.959 --    10 C    0.989    38 N    0.954    12 C    0.952
                            56 H    0.944
    12   6 C    3.959 --    13 C    0.993    57 H    0.953    11 C    0.952
                            23 N    0.949
    13   6 C    3.982 --    14 C    1.522    18 C    1.251    12 C    0.993
                            16 C    0.114
    14   6 C    3.989 --    13 C    1.522    15 C    1.326    58 H    0.967
    15   6 C    3.992 --    16 C    1.553    14 C    1.326    59 H    0.970
    16   6 C    3.990 --    15 C    1.553    17 C    1.279    60 H    0.968
                            13 C    0.114
    17   6 C    3.990 --    22 C    1.281    16 C    1.279    18 C    1.252
    18   6 C    3.989 --    19 C    1.285    17 C    1.252    13 C    1.251
    19   6 C    3.991 --    20 C    1.551    18 C    1.285    61 H    0.960
                            22 C    0.118
    20   6 C    3.992 --    19 C    1.551    21 C    1.324    62 H    0.971
    21   6 C    3.992 --    22 C    1.556    20 C    1.324    63 H    0.971
    22   6 C    3.991 --    21 C    1.556    17 C    1.281    64 H    0.968
                            19 C    0.118
    23   7 N    3.459 --    24 C    1.207    34 C    0.987    12 C    0.949
                            33 O    0.195
    24   6 C    3.947 --    33 O    1.707    23 N    1.207    25 C    0.950
    25   6 C    3.987 --    32 C    1.418    26 C    1.401    24 C    0.950
                            28 C    0.104
    26   6 C    3.966 --    27 C    1.434    25 C    1.401    65 H    0.970
                            29 C    0.101
    27   6 C    3.991 --    28 C    1.452    26 C    1.434    66 H    0.968
                            32 C    0.106
    28   6 C    3.990 --    27 C    1.452    29 C    1.362    67 H    0.970
                            25 C    0.104
    29   6 C    3.990 --    32 C    1.366    28 C    1.362    30 C    1.090
                            26 C    0.101
    30   6 C    3.947 --    31 N    2.812    29 C    1.090
    31   7 N    2.983 --    30 C    2.812
    32   6 C    3.989 --    25 C    1.418    29 C    1.366    68 H    0.968
                            27 C    0.106
    33   8 O    2.041 --    24 C    1.707    23 N    0.195
    34   6 C    3.966 --    23 N    0.987    38 N    0.973    69 H    0.944
                            35 C    0.910
    35   6 C    3.923 --    37 O    1.763    36 O    1.164    34 C    0.910
    36   8 O    2.224 --    35 C    1.164    70 H    0.852    37 O    0.178
    37   8 O    2.059 --    35 C    1.763    36 O    0.178
    38   7 N    3.468 --    39 C    1.229    34 C    0.973    11 C    0.954
                            48 O    0.193
    39   6 C    3.944 --    48 O    1.674    38 N    1.229    40 C    0.954
    40   6 C    3.989 --    41 C    1.422    47 C    1.400    39 C    0.954
                            45 C    0.105
    41   6 C    3.990 --    40 C    1.422    42 C    1.365    71 H    0.968
                            46 C    0.106
    42   6 C    3.990 --    41 C    1.365    45 C    1.361    43 C    1.091
    43   6 C    3.947 --    44 N    2.809    42 C    1.091
    44   7 N    2.980 --    43 C    2.809
    45   6 C    3.990 --    46 C    1.453    42 C    1.361    72 H    0.970
                            40 C    0.105
    46   6 C    3.990 --    45 C    1.453    47 C    1.432    73 H    0.968
                            41 C    0.106
    47   6 C    3.966 --    46 C    1.432    40 C    1.400    74 H    0.968
    48   8 O    2.036 --    39 C    1.674    38 N    0.193
    49   1 H    0.998 --     1 C    0.967
    50   1 H    0.998 --     2 C    0.970
    51   1 H    0.998 --     3 C    0.971
    52   1 H    0.999 --     4 C    0.961
    53   1 H    0.997 --     7 C    0.967
    54   1 H    0.997 --     8 C    0.970
    55   1 H    0.998 --     9 C    0.968
    56   1 H    0.996 --    11 C    0.944
    57   1 H    0.997 --    12 C    0.953
    58   1 H    0.999 --    14 C    0.967
    59   1 H    0.997 --    15 C    0.970
    60   1 H    0.997 --    16 C    0.968
    61   1 H    0.998 --    19 C    0.960
    62   1 H    0.998 --    20 C    0.971
    63   1 H    0.998 --    21 C    0.971
    64   1 H    0.998 --    22 C    0.968
    65   1 H    0.998 --    26 C    0.970
    66   1 H    0.996 --    27 C    0.968
    67   1 H    0.997 --    28 C    0.970
    68   1 H    0.997 --    32 C    0.968
    69   1 H    0.996 --    34 C    0.944
    70   1 H    0.877 --    36 O    0.852
    71   1 H    0.998 --    41 C    0.968
    72   1 H    0.997 --    45 C    0.970
    73   1 H    0.996 --    46 C    0.968
    74   1 H    0.997 --    47 C    0.968
 ---------------------------------------------------------------------------

molecular dipole:
                 x           y           z       tot (Debye)
 q only:       -0.913       1.119       0.294
   full:       -0.689       1.037       0.514       3.424

           -------------------------------------------------
          | TOTAL ENERGY             -126.846144534818 Eh   |
          | GRADIENT NORM               0.000926658802 Eh/Î± |
          | HOMO-LUMO GAP               2.571337488788 eV   |
           -------------------------------------------------

 * finished run on 2022/03/16 at 22:40:12.988
