   * xtb version 6.3.3 (4ae9cef) compiled by 'conda@95abc7406d43' on 2020-10-14
          program call               : xtb acid_432.xyz --opt --chrg 0 --uhf 0 --gfn 2
          number of atoms            :                    74
          number of electrons        :                   214
          charge                     :                     0
          spin                       :                   0.0

   ID    Z sym.   atoms
    1    6 C      1, 3-16, 18, 20-27, 29, 30, 34-41
    2    8 O      2, 17, 28, 31, 32, 42
    3    7 N      19, 33
    4    1 H      43-74

          :  Hamiltonian                  GFN2-xTB          :
 * total energy  :  -119.3794669 Eh     change       -0.1586073E-08 Eh
 * total energy  :  -119.3932534 Eh     change       -0.1378646E-01 Eh
 * total energy  :  -119.3981478 Eh     change       -0.4894439E-02 Eh
 * total energy  :  -119.3999820 Eh     change       -0.1834167E-02 Eh
 * total energy  :  -119.4013860 Eh     change       -0.1404062E-02 Eh
 * total energy  :  -119.4023467 Eh     change       -0.9606248E-03 Eh
 * total energy  :  -119.4031360 Eh     change       -0.7893177E-03 Eh
 * total energy  :  -119.4037231 Eh     change       -0.5871439E-03 Eh
 * total energy  :  -119.4043590 Eh     change       -0.6358920E-03 Eh
 * total energy  :  -119.4048785 Eh     change       -0.5194919E-03 Eh
 * total energy  :  -119.4147886 Eh     change       -0.9787103E-05 Eh
 * total energy  :  -119.4147888 Eh     change       -0.1816532E-06 Eh
 * total energy  :  -119.4147794 Eh     change        0.9454404E-05 Eh
 * total energy  :  -119.4147924 Eh     change       -0.1301420E-04 Eh
 * total energy  :  -119.4147916 Eh     change        0.7633853E-06 Eh
 * total energy  :  -119.4147989 Eh     change       -0.7307838E-05 Eh
 * total energy  :  -119.4147975 Eh     change        0.1399670E-05 Eh
 * total energy  :  -119.4148034 Eh     change       -0.5889249E-05 Eh
 * total energy  :  -119.4148042 Eh     change       -0.8262150E-06 Eh
   *** GEOMETRY OPTIMIZATION CONVERGED AFTER 83 ITERATIONS ***

 final structure:
================
74
 xtb: 6.3.3 (4ae9cef)
C        -1.64498867317926   -3.71684449868792    1.45220608402810
O        -0.61877105581948   -3.72489069530364    2.35040633055647
C        -0.66481349388226   -4.63468020734633    3.42256528158807
C        -2.67050856574288   -4.65461551769454    1.44169676219175
C        -3.67844435449453   -4.57996299773935    0.49621237382597
C        -3.68097803763552   -3.56724540866759   -0.44285684279655
C        -2.66207443030410   -2.63062892901897   -0.43734574121995
C        -1.63555127598106   -2.69558766981195    0.49033520989987
C        -0.54856393533051   -1.65712929459326    0.50139853960082
C         0.37926296313751   -1.67109078530620   -0.73440460845367
C         1.50314942413272   -2.66336296536016   -0.79677848830637
C         1.82257551539693   -3.53854003843458    0.22268283579863
C         2.86610756442028   -4.44027808823881    0.07795515451984
C         3.59793377520922   -4.46271681059091   -1.09107173204999
C         3.28912104118455   -3.59663200478274   -2.12793424193008
C         2.24046781775347   -2.70045962434183   -1.99336277014601
O         1.84342526917367   -1.82165662436604   -2.96001140326115
C         2.65405316032606   -1.67067979150403   -4.09859483878738
N         0.80754197381459   -0.26645050518689   -0.80714107239638
C         2.03057350369397    0.19653976925252   -0.40233472143105
C         2.08277106773754    1.68046229937695   -0.20639501366063
C         1.78387207159002    2.57394955680351   -1.23048075421615
C         1.82023246119774    3.93394962488171   -0.99283970694275
C         2.14897126157250    4.43322164132651    0.26361411536999
C         2.15734812064611    5.91136576368050    0.50525091505924
C         2.47217403643192    3.53522776986686    1.27168404048785
C         2.44962780632303    2.17165100919066    1.03997111286640
O         2.99731049162223   -0.51008462791085   -0.22724209404681
C        -0.41252625785088    0.46449310972274   -0.59032674017513
C        -1.24071670852758    0.54821102934492   -1.88228826103289
O        -0.50152058263647    0.96740864514729   -2.90546918265208
O        -2.41006381486776    0.30061470336681   -1.97003692816710
N        -1.09064230418228   -0.29447119210020    0.43858445428065
C        -1.80489748565868    0.24580667360180    1.46100043313327
C        -2.02157808442209    1.72147606904515    1.30369354495309
C        -1.13199126274929    2.60465020267121    1.90323855623890
C        -1.28546675934193    3.96887310973727    1.73390203999551
C        -2.33093836516943    4.47593797646185    0.97450002875468
C        -2.50745038963067    5.95215855845114    0.78533737015458
C        -3.22521662607367    3.58392850157981    0.39147322487410
C        -3.07494073575601    2.21868903994567    0.54784642231709
O        -2.19955955019696   -0.40671875661774    2.40091352570805
H         0.19953154479266   -4.40020406952512    4.04273476866136
H        -0.58799311822172   -5.67043386680266    3.07526800199904
H        -1.57710266617203   -4.51010682473890    4.01283495813012
H        -2.69766231861427   -5.44639742143114    2.17341112028717
H        -4.46917944155832   -5.31559416501663    0.50740009451054
H        -4.47452020640491   -3.49803425625674   -1.17086134192284
H        -2.68180625433203   -1.81981924671751   -1.14874223400585
H         0.02995281670784   -1.75371946088199    1.42672400387799
H        -0.24839416267700   -1.83493344615305   -1.62452630946408
H         1.25945432761432   -3.52364484039255    1.14023526463265
H         3.10748611704486   -5.11556742297357    0.88462964579001
H         4.41875143897674   -5.15492151679764   -1.20813980202689
H         3.87477796198096   -3.62950080330179   -3.03309697208392
H         2.66571704774423   -2.57846881202877   -4.71171108852609
H         3.67834789012391   -1.40132505601411   -3.82440471833528
H         2.20902440457475   -0.85748775343634   -4.67091990952079
H         1.52184795997275    2.19518433531864   -2.20668804254414
H         1.58467087307160    4.62314884670218   -1.79119291010528
H         1.19975286036697    6.34637564419606    0.22222479284325
H         2.92916994882124    6.38796498502908   -0.09831043892929
H         2.35068040758580    6.13591528953346    1.55107495210251
H         2.74378408995179    3.90454971147720    2.25019610735694
H         2.70532174877669    1.47758729561219    1.82689154793144
H        -0.22309283729221    1.49712988514690   -0.27141738078947
H        -1.03249721736319    1.00804334175413   -3.71854961356361
H        -0.31498387355088    2.22166759647026    2.49754728448094
H        -0.58215193126575    4.64437115325382    2.19866559874852
H        -3.45414612977554    6.27654251140815    1.21568620944391
H        -2.52305619021066    6.20196808702847   -0.27480467371629
H        -1.70350095836709    6.50546197966525    1.26409133337084
H        -4.04699604865221    3.96676892112976   -0.19655976406055
H        -3.76550765962088    1.53359135888004    0.08075830089700

          :  Hamiltonian                  GFN2-xTB          :
         :: total energy            -119.414804238749 Eh    ::
         :: gradient norm              0.000838204521 Eh/a0 ::
         :: HOMO-LUMO gap              2.888341837851 eV    ::
         :: SCC energy              -121.166369437785 Eh    ::
         :: -> dispersion             -0.102049849333 Eh    ::
         :: repulsion energy           1.747693080411 Eh    ::

    * Orbital Energies and Occupations

         #    Occupation            Energy/Eh            Energy/eV
      -------------------------------------------------------------
         1        2.0000           -0.7714728             -20.9928
       ...           ...                  ...                  ...
        95        2.0000           -0.4151235             -11.2961
        96        2.0000           -0.4138787             -11.2622
        97        2.0000           -0.4101675             -11.1612
        98        2.0000           -0.4090986             -11.1321
        99        2.0000           -0.4045377             -11.0080
       100        2.0000           -0.4016621             -10.9298
       101        2.0000           -0.4002792             -10.8922
       102        2.0000           -0.3957233             -10.7682
       103        2.0000           -0.3906137             -10.6291
       104        2.0000           -0.3853176             -10.4850
       105        2.0000           -0.3826755             -10.4131
       106        2.0000           -0.3717494             -10.1158
       107        2.0000           -0.3677036             -10.0057 (HOMO)
       108                         -0.2615590              -7.1174 (LUMO)
       109                         -0.2445669              -6.6550
       110                         -0.2315705              -6.3014
       111                         -0.2295385              -6.2461
       112                         -0.2270211              -6.1776
       113                         -0.2198858              -5.9834
       114                         -0.2170437              -5.9061
       115                         -0.2074639              -5.6454
       116                         -0.2073484              -5.6422
       117                         -0.2059862              -5.6052
       118                         -0.1985655              -5.4032
       ...                                ...                  ...
       200                          0.6827487              18.5785
      -------------------------------------------------------------
                  HL-Gap            0.1061446 Eh            2.8883 eV

     #   Z          covCN         q      C6AA      Î±(0)
     1   6 C        2.867     0.144    24.855     8.172
     2   8 O        1.705    -0.270    18.475     5.803
     3   6 C        3.643     0.039    20.262     6.471
     4   6 C        2.918    -0.065    29.613     8.924
     5   6 C        2.921    -0.031    28.785     8.798
     6   6 C        2.918    -0.040    28.988     8.829
     7   6 C        2.925    -0.036    28.896     8.815
     8   6 C        2.970    -0.011    28.298     8.726
     9   6 C        3.826     0.043    19.831     6.337
    10   6 C        3.874     0.049    19.713     6.313
    11   6 C        2.970    -0.004    28.110     8.697
    12   6 C        2.922    -0.036    28.908     8.817
    13   6 C        2.919    -0.038    28.952     8.824
    14   6 C        2.921    -0.030    28.758     8.794
    15   6 C        2.917    -0.063    29.563     8.916
    16   6 C        2.873     0.147    24.809     8.165
    17   8 O        1.705    -0.275    18.568     5.818
    18   6 C        3.644     0.040    20.231     6.465
    19   7 N        2.766    -0.117    23.554     7.208
    20   6 C        2.760     0.278    22.295     7.732
    21   6 C        2.977    -0.024    28.599     8.772
    22   6 C        2.919    -0.037    28.909     8.817
    23   6 C        2.925    -0.040    28.988     8.829
    24   6 C        2.966     0.021    27.528     8.606
    25   6 C        3.758    -0.110    22.658     6.786
    26   6 C        2.924    -0.037    28.913     8.818
    27   6 C        2.923    -0.024    28.600     8.770
    28   8 O        0.858    -0.410    21.872     6.270
    29   6 C        3.811     0.086    19.141     6.228
    30   6 C        2.688     0.352    21.028     7.505
    31   8 O        1.659    -0.358    20.057     6.046
    32   8 O        0.856    -0.383    21.352     6.195
    33   7 N        2.772    -0.127    23.755     7.239
    34   6 C        2.760     0.275    22.353     7.742
    35   6 C        2.979    -0.024    28.606     8.773
    36   6 C        2.922    -0.032    28.790     8.799
    37   6 C        2.924    -0.040    28.985     8.829
    38   6 C        2.966     0.018    27.608     8.619
    39   6 C        3.758    -0.110    22.656     6.786
    40   6 C        2.926    -0.039    28.970     8.827
    41   6 C        2.920    -0.030    28.748     8.792
    42   8 O        0.858    -0.413    21.951     6.282
    43   1 H        0.925     0.062     2.175     2.306
    44   1 H        0.924     0.039     2.462     2.454
    45   1 H        0.924     0.047     2.363     2.404
    46   1 H        0.926     0.039     2.463     2.454
    47   1 H        0.926     0.036     2.500     2.473
    48   1 H        0.926     0.037     2.484     2.464
    49   1 H        0.926     0.052     2.294     2.368
    50   1 H        0.924     0.071     2.079     2.255
    51   1 H        0.923     0.056     2.249     2.345
    52   1 H        0.926     0.059     2.206     2.323
    53   1 H        0.926     0.037     2.495     2.470
    54   1 H        0.926     0.036     2.502     2.474
    55   1 H        0.926     0.037     2.490     2.467
    56   1 H        0.924     0.038     2.475     2.460
    57   1 H        0.924     0.046     2.375     2.410
    58   1 H        0.925     0.056     2.245     2.343
    59   1 H        0.926     0.044     2.392     2.419
    60   1 H        0.926     0.036     2.509     2.477
    61   1 H        0.925     0.048     2.343     2.394
    62   1 H        0.925     0.051     2.309     2.376
    63   1 H        0.925     0.044     2.395     2.420
    64   1 H        0.926     0.038     2.470     2.458
    65   1 H        0.926     0.044     2.396     2.421
    66   1 H        0.924     0.072     2.059     2.244
    67   1 H        0.804     0.342     0.607     1.224
    68   1 H        0.926     0.032     2.553     2.499
    69   1 H        0.926     0.036     2.503     2.474
    70   1 H        0.925     0.051     2.304     2.374
    71   1 H        0.925     0.046     2.372     2.409
    72   1 H        0.925     0.042     2.420     2.433
    73   1 H        0.926     0.038     2.469     2.457
    74   1 H        0.926     0.049     2.327     2.385

Wiberg/Mayer (AO) data.
largest (>0.10) Wiberg bond orders for each atom

     #   Z sym  total        # sym  WBO       # sym  WBO       # sym  WBO
 ---------------------------------------------------------------------------
     1   6 C    3.934 --     4 C    1.381     8 C    1.326     2 O    1.058
     2   8 O    2.236 --     1 C    1.058     3 C    0.982
     3   6 C    3.944 --     2 O    0.982    43 H    0.979    45 H    0.977
                            44 H    0.976
     4   6 C    3.987 --     5 C    1.436     1 C    1.381    46 H    0.965
                             7 C    0.103
     5   6 C    3.990 --     6 C    1.442     4 C    1.436    47 H    0.971
                             8 C    0.106
     6   6 C    3.991 --     5 C    1.442     7 C    1.427    48 H    0.971
     7   6 C    3.989 --     8 C    1.435     6 C    1.427    49 H    0.961
                             4 C    0.103
     8   6 C    3.983 --     7 C    1.435     1 C    1.326     9 C    0.996
                             5 C    0.106
     9   6 C    3.960 --     8 C    0.996    10 C    0.957    50 H    0.950
                            33 N    0.946
    10   6 C    3.962 --    11 C    1.000     9 C    0.957    19 N    0.945
                            51 H    0.944
    11   6 C    3.982 --    12 C    1.448    16 C    1.313    10 C    1.000
                            14 C    0.107
    12   6 C    3.988 --    11 C    1.448    13 C    1.414    52 H    0.958
                            15 C    0.100
    13   6 C    3.991 --    14 C    1.454    12 C    1.414    53 H    0.971
    14   6 C    3.991 --    13 C    1.454    15 C    1.423    54 H    0.971
                            11 C    0.107
    15   6 C    3.987 --    14 C    1.423    16 C    1.395    55 H    0.966
                            12 C    0.100
    16   6 C    3.934 --    15 C    1.395    11 C    1.313    17 O    1.056
    17   8 O    2.224 --    16 C    1.056    18 C    0.985
    18   6 C    3.947 --    17 O    0.985    58 H    0.980    57 H    0.977
                            56 H    0.976
    19   7 N    3.438 --    20 C    1.183    29 C    0.992    10 C    0.945
                            28 O    0.182
    20   6 C    3.943 --    28 O    1.713    19 N    1.183    21 C    0.965
    21   6 C    3.987 --    27 C    1.405    22 C    1.387    20 C    0.965
                            24 C    0.105
    22   6 C    3.991 --    23 C    1.459    21 C    1.387    59 H    0.967
                            26 C    0.107
    23   6 C    3.991 --    22 C    1.459    24 C    1.399    60 H    0.969
                            27 C    0.108
    24   6 C    3.988 --    26 C    1.415    23 C    1.399    25 C    1.027
                            21 C    0.105
    25   6 C    3.996 --    24 C    1.027    63 H    0.986    61 H    0.973
                            62 H    0.970
    26   6 C    3.991 --    27 C    1.443    24 C    1.415    64 H    0.968
                            22 C    0.107
    27   6 C    3.990 --    26 C    1.443    21 C    1.405    65 H    0.969
                            23 C    0.108
    28   8 O    2.036 --    20 C    1.713    19 N    0.182
    29   6 C    3.975 --    19 N    0.992    33 N    0.981    30 C    0.920
                            66 H    0.919
    30   6 C    3.920 --    32 O    1.776    31 O    1.153    29 C    0.920
    31   8 O    2.221 --    30 C    1.153    67 H    0.857    32 O    0.181
    32   8 O    2.062 --    30 C    1.776    31 O    0.181
    33   7 N    3.454 --    34 C    1.206    29 C    0.981     9 C    0.946
                            42 O    0.191
    34   6 C    3.946 --    42 O    1.708    33 N    1.206    35 C    0.952
    35   6 C    3.987 --    36 C    1.405    41 C    1.402    34 C    0.952
                            38 C    0.107
    36   6 C    3.991 --    37 C    1.441    35 C    1.405    68 H    0.970
                            40 C    0.111
    37   6 C    3.991 --    36 C    1.441    38 C    1.415    69 H    0.968
                            41 C    0.108
    38   6 C    3.989 --    37 C    1.415    40 C    1.405    39 C    1.026
                            35 C    0.107
    39   6 C    3.996 --    38 C    1.026    72 H    0.986    71 H    0.974
                            70 H    0.971
    40   6 C    3.991 --    41 C    1.453    38 C    1.405    73 H    0.969
                            36 C    0.111
    41   6 C    3.990 --    40 C    1.453    35 C    1.402    74 H    0.968
                            37 C    0.108
    42   8 O    2.027 --    34 C    1.708    33 N    0.191
    43   1 H    0.996 --     3 C    0.979
    44   1 H    0.998 --     3 C    0.976
    45   1 H    0.998 --     3 C    0.977
    46   1 H    0.998 --     4 C    0.965
    47   1 H    0.998 --     5 C    0.971
    48   1 H    0.998 --     6 C    0.971
    49   1 H    0.997 --     7 C    0.961
    50   1 H    0.995 --     9 C    0.950
    51   1 H    0.996 --    10 C    0.944
    52   1 H    0.996 --    12 C    0.958
    53   1 H    0.998 --    13 C    0.971
    54   1 H    0.998 --    14 C    0.971
    55   1 H    0.998 --    15 C    0.966
    56   1 H    0.999 --    18 C    0.976
    57   1 H    0.998 --    18 C    0.977
    58   1 H    0.996 --    18 C    0.980
    59   1 H    0.998 --    22 C    0.967
    60   1 H    0.998 --    23 C    0.969
    61   1 H    0.997 --    25 C    0.973
    62   1 H    0.997 --    25 C    0.970
    63   1 H    0.998 --    25 C    0.986
    64   1 H    0.998 --    26 C    0.968
    65   1 H    0.998 --    27 C    0.969
    66   1 H    0.994 --    29 C    0.919
    67   1 H    0.882 --    31 O    0.857
    68   1 H    0.999 --    36 C    0.970
    69   1 H    0.998 --    37 C    0.968
    70   1 H    0.997 --    39 C    0.971
    71   1 H    0.998 --    39 C    0.974
    72   1 H    0.998 --    39 C    0.986
    73   1 H    0.998 --    40 C    0.969
    74   1 H    0.997 --    41 C    0.968
 ---------------------------------------------------------------------------

molecular dipole:
                 x           y           z       tot (Debye)
 q only:        0.246       0.936      -1.343
   full:        0.251       1.213      -1.550       5.043

           -------------------------------------------------
          | TOTAL ENERGY             -119.414804238749 Eh   |
          | GRADIENT NORM               0.000838204521 Eh/Î± |
          | HOMO-LUMO GAP               2.888341837851 eV   |
           -------------------------------------------------

 * finished run on 2022/03/17 at 01:09:23.622
