   * xtb version 6.3.3 (4ae9cef) compiled by 'conda@95abc7406d43' on 2020-10-14
          program call               : xtb acid_155.xyz --opt --chrg 0 --uhf 0 --gfn 2
          number of atoms            :                    68
          number of electrons        :                   214
          charge                     :                     0
          spin                       :                   0.0

   ID    Z sym.   atoms
    1    6 C      1, 3-16, 18, 20-25, 27, 29, 30, 34-37, 39-41
    2    8 O      2, 17, 28, 31, 32, 42
    3    7 N      19, 33
    4   35 Br     26, 38
    5    1 H      43-68

          :  Hamiltonian                  GFN2-xTB          :
 * total energy  :  -120.2231312 Eh     change       -0.3282594E-08 Eh
 * total energy  :  -120.2368712 Eh     change       -0.1373998E-01 Eh
 * total energy  :  -120.2414744 Eh     change       -0.4603234E-02 Eh
 * total energy  :  -120.2427266 Eh     change       -0.1252175E-02 Eh
 * total energy  :  -120.2434694 Eh     change       -0.7428341E-03 Eh
 * total energy  :  -120.2438787 Eh     change       -0.4093114E-03 Eh
 * total energy  :  -120.2441779 Eh     change       -0.2992028E-03 Eh
 * total energy  :  -120.2444499 Eh     change       -0.2719188E-03 Eh
 * total energy  :  -120.2447190 Eh     change       -0.2691146E-03 Eh
 * total energy  :  -120.2449447 Eh     change       -0.2257396E-03 Eh
 * total energy  :  -120.2462490 Eh     change       -0.1344384E-04 Eh
 * total energy  :  -120.2462608 Eh     change       -0.1173032E-04 Eh
 * total energy  :  -120.2462715 Eh     change       -0.1074895E-04 Eh
 * total energy  :  -120.2462823 Eh     change       -0.1073217E-04 Eh
 * total energy  :  -120.2462932 Eh     change       -0.1094329E-04 Eh
 * total energy  :  -120.2463029 Eh     change       -0.9686687E-05 Eh
 * total energy  :  -120.2463097 Eh     change       -0.6825802E-05 Eh
 * total energy  :  -120.2463152 Eh     change       -0.5525742E-05 Eh
 * total energy  :  -120.2463200 Eh     change       -0.4788099E-05 Eh
   *** GEOMETRY OPTIMIZATION CONVERGED AFTER 40 ITERATIONS ***

 final structure:
================
68
 xtb: 6.3.3 (4ae9cef)
C         2.08584684851224   -2.53212085431897    0.53880067137671
O         1.59538950874881   -2.81016382529784   -0.70074325491241
C         1.93386029329678   -4.03364158182289   -1.30940993781853
C         2.93320134873709   -3.35947936266804    1.26364033804274
C         3.37722186554173   -2.97065825523068    2.51746104217429
C         2.99069826856543   -1.75832870592735    3.05434920492230
C         2.14643424431090   -0.92875912125063    2.33286883008289
C         1.68601905710849   -1.30084305567261    1.08403271408423
C         0.75483440692911   -0.45436612047358    0.25466611231603
C        -0.70519264300905   -0.97394139012434    0.33733065479978
C        -1.24677868565253   -1.37305327276120   -1.01017105597559
C        -1.57510721901942   -2.68961461308452   -1.27455352055726
C        -2.06212307290376   -3.06755745239934   -2.51401481006124
C        -2.23351442552091   -2.11245639877080   -3.49697891017454
C        -1.91746172352564   -0.78669745296819   -3.25128488460689
C        -1.41754241604408   -0.40649065021412   -2.01308373460211
O        -1.06071934690809    0.87330642923947   -1.68843312309804
C        -1.30601887946192    1.90602868048898   -2.61533029769661
N        -1.45108816477847    0.14622902249266    0.89234475122811
C        -2.77551569912093    0.03068464280415    1.15849549855985
C        -3.43238653963137    1.29035644268394    1.63164852992722
C        -4.06621196286459    1.33411830807205    2.86606614887177
C        -4.70782196546596    2.49184534283092    3.27231408247727
C        -4.74319882427845    3.60278005664032    2.44663436524706
C        -4.13011385934768    3.53553317817692    1.20706203906787
Br       -4.18929004666324    5.04492282145390    0.04628253196171
C        -3.47120951380604    2.39434854236659    0.78873364681157
O        -3.38992179344197   -0.99760712576299    0.97273912333490
C        -0.57868557929890    1.20253710315442    1.32088458584039
C        -0.45046059382704    1.22640838720708    2.85352610134191
O         0.50770927249906    2.05775219429323    3.25197430697828
O        -1.15132451206070    0.60381368302745    3.60022307972211
N         0.67443904719383    0.93790074215798    0.65763371837825
C         1.26896549003299    1.95609157880749   -0.02919887956744
C         2.44699331917024    1.54869419508540   -0.85249370551243
C         2.44857258189303    1.87001545864779   -2.20376006479755
C         3.52718403857966    1.49646870084359   -2.98398056526509
Br        3.50597372881338    1.89634439206537   -4.84511544066134
C         4.61590685514883    0.83471660493744   -2.44200698559217
C         4.61975803765155    0.55135253225055   -1.08677606666161
C         3.54198389846668    0.90023842283435   -0.29195548767865
O         0.88248070173946    3.10264639699011    0.04628267228670
H         1.40737285610609   -4.03591597479050   -2.26245260911707
H         3.01121887836382   -4.11032113571869   -1.48717053701103
H         1.60024108380870   -4.88607827299805   -0.71040089213960
H         3.25336068453193   -4.30739505626595    0.86159652528604
H         4.03320404131708   -3.62495499254247    3.07144451385218
H         3.34259679695785   -1.45613305998062    4.02846684327359
H         1.85693553941252    0.02758182957647    2.73845209480588
H         1.09275027397111   -0.50999788029865   -0.78572801535814
H        -0.77453356624048   -1.83187645472589    1.01741503056350
H        -1.45428650607033   -3.42391888968000   -0.49327728759242
H        -2.31540495764043   -4.09878165591480   -2.70563439329088
H        -2.62017013270432   -2.39077320910009   -4.46596291076999
H        -2.06466273542058   -0.05807061630075   -4.03259303818187
H        -2.37066187683380    1.98583655398952   -2.85691440115057
H        -0.73844854907760    1.76233291788789   -3.54041156298881
H        -0.97529063109795    2.82250928457817   -2.12588941801623
H        -4.03889137183121    0.46400220243308    3.50195788916335
H        -5.19099146212404    2.53187706917150    4.23661103125482
H        -5.24610973229072    4.50620797729281    2.75549628532262
H        -3.00779029967137    2.35569905418450   -0.18554462019427
H        -0.91772254642181    2.20738033296313    1.01853659715625
H         0.54924945782388    2.10638522424032    4.22175850678907
H         1.61337041205195    2.40150614169463   -2.63175532586734
H         5.44896504999683    0.55443811007764   -3.06814735077174
H         5.46996038287493    0.05022457234515   -0.64977593691245
H         3.55395356391434    0.67887830709058    0.76322095730524

          :  Hamiltonian                  GFN2-xTB          :
         :: total energy            -120.246320031121 Eh    ::
         :: gradient norm              0.000426605687 Eh/a0 ::
         :: HOMO-LUMO gap              3.104393617127 eV    ::
         :: SCC energy              -121.882971205633 Eh    ::
         :: -> dispersion             -0.102447835088 Eh    ::
         :: repulsion energy           1.632017300240 Eh    ::

    * Orbital Energies and Occupations

         #    Occupation            Energy/Eh            Energy/eV
      -------------------------------------------------------------
         1        2.0000           -0.8438684             -22.9628
       ...           ...                  ...                  ...
        95        2.0000           -0.4283257             -11.6553
        96        2.0000           -0.4235001             -11.5240
        97        2.0000           -0.4216293             -11.4731
        98        2.0000           -0.4184490             -11.3866
        99        2.0000           -0.4120224             -11.2117
       100        2.0000           -0.4112157             -11.1897
       101        2.0000           -0.4096680             -11.1476
       102        2.0000           -0.4086309             -11.1194
       103        2.0000           -0.4011405             -10.9156
       104        2.0000           -0.3999897             -10.8843
       105        2.0000           -0.3978203             -10.8252
       106        2.0000           -0.3952950             -10.7565
       107        2.0000           -0.3863219             -10.5124 (HOMO)
       108                         -0.2722375              -7.4080 (LUMO)
       109                         -0.2662255              -7.2444
       110                         -0.2595669              -7.0632
       111                         -0.2567213              -6.9857
       112                         -0.2489911              -6.7754
       113                         -0.2459014              -6.6913
       114                         -0.2352852              -6.4024
       115                         -0.2315499              -6.3008
       116                         -0.2235159              -6.0822
       117                         -0.2210781              -6.0158
       118                         -0.2122252              -5.7749
       ...                                ...                  ...
       204                          0.6598645              17.9558
      -------------------------------------------------------------
                  HL-Gap            0.1140844 Eh            3.1044 eV

     #   Z          covCN         q      C6AA      Î±(0)
     1   6 C        2.870     0.137    25.013     8.198
     2   8 O        1.705    -0.276    18.582     5.820
     3   6 C        3.643     0.036    20.317     6.480
     4   6 C        2.917    -0.065    29.625     8.925
     5   6 C        2.921    -0.031    28.776     8.797
     6   6 C        2.918    -0.041    29.014     8.833
     7   6 C        2.922    -0.036    28.885     8.814
     8   6 C        2.972    -0.024    28.608     8.773
     9   6 C        3.825     0.040    19.882     6.345
    10   6 C        3.824     0.054    19.653     6.308
    11   6 C        2.973    -0.010    28.270     8.721
    12   6 C        2.925    -0.024    28.610     8.772
    13   6 C        2.918    -0.039    28.961     8.825
    14   6 C        2.921    -0.030    28.757     8.794
    15   6 C        2.917    -0.065    29.608     8.923
    16   6 C        2.866     0.140    24.952     8.188
    17   8 O        1.704    -0.288    18.777     5.851
    18   6 C        3.641     0.044    20.188     6.461
    19   7 N        2.763    -0.104    23.287     7.167
    20   6 C        2.764     0.277    22.312     7.736
    21   6 C        2.980    -0.012    28.315     8.729
    22   6 C        2.921    -0.020    28.505     8.755
    23   6 C        2.923    -0.025    28.638     8.776
    24   6 C        2.989    -0.035    28.854     8.811
    25   6 C        2.917     0.084    26.139     8.384
    26  35 Br       1.070    -0.162   189.537    22.198
    27   6 C        2.999    -0.039    28.966     8.828
    28   8 O        0.859    -0.415    21.982     6.286
    29   6 C        3.773     0.090    19.114     6.230
    30   6 C        2.688     0.351    21.044     7.507
    31   8 O        1.659    -0.357    20.041     6.043
    32   8 O        0.856    -0.387    21.430     6.207
    33   7 N        2.759    -0.107    23.333     7.174
    34   6 C        2.771     0.278    22.302     7.734
    35   6 C        2.979    -0.007    28.199     8.711
    36   6 C        3.000    -0.027    28.658     8.782
    37   6 C        2.917     0.085    26.104     8.378
    38  35 Br       1.071    -0.157   189.393    22.189
    39   6 C        2.991    -0.033    28.803     8.804
    40   6 C        2.923    -0.025    28.624     8.774
    41   6 C        2.920    -0.030    28.755     8.794
    42   8 O        0.859    -0.413    21.947     6.281
    43   1 H        0.925     0.067     2.121     2.277
    44   1 H        0.924     0.044     2.395     2.420
    45   1 H        0.924     0.047     2.362     2.403
    46   1 H        0.926     0.043     2.405     2.425
    47   1 H        0.926     0.043     2.412     2.429
    48   1 H        0.926     0.041     2.439     2.442
    49   1 H        0.926     0.039     2.466     2.456
    50   1 H        0.924     0.068     2.113     2.273
    51   1 H        0.924     0.061     2.186     2.312
    52   1 H        0.926     0.046     2.370     2.407
    53   1 H        0.926     0.041     2.442     2.444
    54   1 H        0.926     0.041     2.438     2.442
    55   1 H        0.926     0.042     2.417     2.431
    56   1 H        0.924     0.042     2.423     2.434
    57   1 H        0.924     0.039     2.463     2.454
    58   1 H        0.924     0.067     2.114     2.274
    59   1 H        0.926     0.065     2.140     2.288
    60   1 H        0.926     0.052     2.301     2.372
    61   1 H        0.926     0.058     2.227     2.334
    62   1 H        0.926     0.057     2.240     2.341
    63   1 H        0.923     0.102     1.765     2.078
    64   1 H        0.804     0.343     0.605     1.222
    65   1 H        0.926     0.068     2.109     2.271
    66   1 H        0.926     0.059     2.205     2.322
    67   1 H        0.926     0.050     2.323     2.384
    68   1 H        0.926     0.049     2.333     2.389

Wiberg/Mayer (AO) data.
largest (>0.10) Wiberg bond orders for each atom

     #   Z sym  total        # sym  WBO       # sym  WBO       # sym  WBO
 ---------------------------------------------------------------------------
     1   6 C    3.934 --     4 C    1.386     8 C    1.314     2 O    1.063
     2   8 O    2.234 --     1 C    1.063     3 C    0.980
     3   6 C    3.941 --     2 O    0.980    43 H    0.979    44 H    0.977
                            45 H    0.976
     4   6 C    3.987 --     5 C    1.430     1 C    1.386    46 H    0.965
                             7 C    0.101
     5   6 C    3.990 --     6 C    1.449     4 C    1.430    47 H    0.971
                             8 C    0.106
     6   6 C    3.991 --     5 C    1.449     7 C    1.418    48 H    0.971
     7   6 C    3.989 --     8 C    1.443     6 C    1.418    49 H    0.964
                             4 C    0.101
     8   6 C    3.983 --     7 C    1.443     1 C    1.314     9 C    0.992
                             5 C    0.106
     9   6 C    3.965 --     8 C    0.992    33 N    0.969    50 H    0.947
                            10 C    0.944
    10   6 C    3.965 --    11 C    0.992    19 N    0.958    51 H    0.955
                             9 C    0.944
    11   6 C    3.983 --    12 C    1.438    16 C    1.325    10 C    0.992
                            14 C    0.107
    12   6 C    3.988 --    11 C    1.438    13 C    1.425    52 H    0.967
                            15 C    0.103
    13   6 C    3.991 --    14 C    1.446    12 C    1.425    53 H    0.970
    14   6 C    3.990 --    13 C    1.446    15 C    1.432    54 H    0.971
                            11 C    0.107
    15   6 C    3.988 --    14 C    1.432    16 C    1.387    55 H    0.965
                            12 C    0.103
    16   6 C    3.934 --    15 C    1.387    11 C    1.325    17 O    1.051
    17   8 O    2.215 --    16 C    1.051    18 C    0.980
    18   6 C    3.942 --    17 O    0.980    58 H    0.977    56 H    0.977
                            57 H    0.976
    19   7 N    3.470 --    20 C    1.211    29 C    0.992    10 C    0.958
                            28 O    0.192
    20   6 C    3.947 --    28 O    1.694    19 N    1.211    21 C    0.958
    21   6 C    3.987 --    22 C    1.408    27 C    1.400    20 C    0.958
                            24 C    0.107
    22   6 C    3.988 --    23 C    1.438    21 C    1.408    59 H    0.967
                            25 C    0.100
    23   6 C    3.990 --    24 C    1.439    22 C    1.438    60 H    0.968
                            27 C    0.109
    24   6 C    3.989 --    23 C    1.439    25 C    1.407    61 H    0.968
                            21 C    0.107
    25   6 C    3.940 --    27 C    1.417    24 C    1.407    26 Br   0.980
                            22 C    0.100
    26  35 Br   1.110 --    25 C    0.980
    27   6 C    3.989 --    25 C    1.417    21 C    1.400    62 H    0.964
                            23 C    0.109
    28   8 O    2.022 --    20 C    1.694    19 N    0.192
    29   6 C    3.968 --    19 N    0.992    33 N    0.985    30 C    0.917
                            63 H    0.915
    30   6 C    3.919 --    32 O    1.778    31 O    1.154    29 C    0.917
    31   8 O    2.222 --    30 C    1.154    64 H    0.856    32 O    0.181
    32   8 O    2.063 --    30 C    1.778    31 O    0.181
    33   7 N    3.453 --    34 C    1.194    29 C    0.985     9 C    0.969
                            42 O    0.183
    34   6 C    3.943 --    42 O    1.699    33 N    1.194    35 C    0.969
    35   6 C    3.987 --    36 C    1.402    41 C    1.397    34 C    0.969
                            39 C    0.106
    36   6 C    3.988 --    37 C    1.415    35 C    1.402    65 H    0.964
                            40 C    0.108
    37   6 C    3.941 --    36 C    1.415    39 C    1.409    38 Br   0.984
                            41 C    0.100
    38  35 Br   1.115 --    37 C    0.984
    39   6 C    3.989 --    40 C    1.436    37 C    1.409    66 H    0.968
                            35 C    0.106
    40   6 C    3.991 --    41 C    1.443    39 C    1.436    67 H    0.968
                            36 C    0.108
    41   6 C    3.990 --    40 C    1.443    35 C    1.397    68 H    0.966
                            37 C    0.100
    42   8 O    2.031 --    34 C    1.699    33 N    0.183
    43   1 H    0.995 --     3 C    0.979
    44   1 H    0.998 --     3 C    0.977
    45   1 H    0.998 --     3 C    0.976
    46   1 H    0.998 --     4 C    0.965
    47   1 H    0.998 --     5 C    0.971
    48   1 H    0.998 --     6 C    0.971
    49   1 H    0.998 --     7 C    0.964
    50   1 H    0.995 --     9 C    0.947
    51   1 H    0.995 --    10 C    0.955
    52   1 H    0.997 --    12 C    0.967
    53   1 H    0.998 --    13 C    0.970
    54   1 H    0.998 --    14 C    0.971
    55   1 H    0.998 --    15 C    0.965
    56   1 H    0.998 --    18 C    0.977
    57   1 H    0.998 --    18 C    0.976
    58   1 H    0.995 --    18 C    0.977
    59   1 H    0.995 --    22 C    0.967
    60   1 H    0.997 --    23 C    0.968
    61   1 H    0.996 --    24 C    0.968
    62   1 H    0.997 --    27 C    0.964
    63   1 H    0.989 --    29 C    0.915
    64   1 H    0.882 --    31 O    0.856
    65   1 H    0.995 --    36 C    0.964
    66   1 H    0.996 --    39 C    0.968
    67   1 H    0.997 --    40 C    0.968
    68   1 H    0.997 --    41 C    0.966
 ---------------------------------------------------------------------------

molecular dipole:
                 x           y           z       tot (Debye)
 q only:        1.784      -1.574       0.561
   full:        1.976      -1.991       1.379       7.944

           -------------------------------------------------
          | TOTAL ENERGY             -120.246320031121 Eh   |
          | GRADIENT NORM               0.000426605687 Eh/Î± |
          | HOMO-LUMO GAP               3.104393617127 eV   |
           -------------------------------------------------

 * finished run on 2022/03/16 at 21:54:56.350
