   * xtb version 6.3.3 (4ae9cef) compiled by 'conda@95abc7406d43' on 2020-10-14
          program call               : xtb acid_426.xyz --opt --chrg 0 --uhf 0 --gfn 2
          number of atoms            :                    60
          number of electrons        :                   190
          charge                     :                     0
          spin                       :                   0.0

   ID    Z sym.   atoms
    1    8 O      1, 13, 14, 24
    2    6 C      2-6, 8, 9, 11, 12, 16-20, 22, 23, 25-38
    3   17 Cl     7, 21
    4    7 N      10, 15
    5    1 H      39-60

          :  Hamiltonian                  GFN2-xTB          :
 * total energy  :  -106.6956693 Eh     change       -0.2514938E-08 Eh
 * total energy  :  -106.7077339 Eh     change       -0.1206458E-01 Eh
 * total energy  :  -106.7109054 Eh     change       -0.3171498E-02 Eh
 * total energy  :  -106.7116590 Eh     change       -0.7535861E-03 Eh
 * total energy  :  -106.7120219 Eh     change       -0.3629108E-03 Eh
 * total energy  :  -106.7121866 Eh     change       -0.1647152E-03 Eh
 * total energy  :  -106.7123322 Eh     change       -0.1456134E-03 Eh
 * total energy  :  -106.7125033 Eh     change       -0.1710494E-03 Eh
 * total energy  :  -106.7127105 Eh     change       -0.2072858E-03 Eh
 * total energy  :  -106.7129089 Eh     change       -0.1983665E-03 Eh
 * total energy  :  -106.7152236 Eh     change       -0.4031573E-04 Eh
 * total energy  :  -106.7152594 Eh     change       -0.3574564E-04 Eh
 * total energy  :  -106.7152893 Eh     change       -0.2986485E-04 Eh
 * total energy  :  -106.7153026 Eh     change       -0.1335744E-04 Eh
 * total energy  :  -106.7152958 Eh     change        0.6842066E-05 Eh
 * total energy  :  -106.7153128 Eh     change       -0.1698926E-04 Eh
 * total energy  :  -106.7153027 Eh     change        0.1009889E-04 Eh
 * total energy  :  -106.7153158 Eh     change       -0.1312092E-04 Eh
 * total energy  :  -106.7153197 Eh     change       -0.3912716E-05 Eh
   *** GEOMETRY OPTIMIZATION CONVERGED AFTER 47 ITERATIONS ***

 final structure:
================
60
 xtb: 6.3.3 (4ae9cef)
O        -2.56822521660567   -1.67762144950057    1.10670693105297
C        -1.93964110040901   -0.64235411840783    1.07008306947973
C        -1.85230444185191    0.29054242721348    2.22987495901111
C        -1.56132991407177   -0.25770478985151    3.47626867037687
C        -1.44657888774863    0.55144059839180    4.59032095217727
C        -1.64545387651584    1.91815445983838    4.45879721186487
Cl       -1.49067429078225    2.93899864219660    5.84204706833417
C        -1.97392652191173    2.47404310803293    3.23124103789192
C        -2.07564369108179    1.66037733903842    2.11768597910395
N        -1.25208465050323   -0.26613028006565   -0.05474528560642
C        -0.18918770596129    0.70223417532274   -0.10589154400633
C        -0.54032218031791    1.81903448449259   -1.11581992085383
O         0.15265640942789    1.72294184956554   -2.24083121390424
O        -1.34538442828099    2.67929450612919   -0.89265284173406
N         0.94724874976925   -0.07237937750630   -0.53246789287370
C         2.25140936274153    0.29390779581635   -0.44842744267695
C         2.47735211417770    1.51464629002135    0.39357425685944
C         2.94520610500354    2.68380498793772   -0.19030219566647
C         3.14957488251941    3.81634914500669    0.57764639412360
C         2.89234383086500    3.77083921011808    1.93899580171059
Cl        3.13232256390027    5.18326315718466    2.90065959600093
C         2.44824855505438    2.60264212775449    2.54082160631307
C         2.24326756432964    1.47721248029623    1.76469023225301
O         3.14036278757614   -0.32280078432887   -0.99083265833326
C         0.51780705791661   -1.25071964478626   -1.27916895996413
C         1.12836228799394   -2.50042584653363   -0.69952714832148
C         1.06272563426546   -2.73587003066846    0.66824947882868
C         1.60416125558844   -3.88869748425324    1.20536322770341
C         2.21571540635065   -4.81768902111424    0.38060007305329
C         2.28630735714580   -4.58703314949475   -0.98199853504072
C         1.74526066916756   -3.43277224518270   -1.51979289688772
C        -1.02781336674803   -1.22555851135780   -1.12757630590821
C        -1.75137759046571   -0.85403128125908   -2.40038470073350
C        -1.44278632715077   -1.51445870073336   -3.58419460989859
C        -2.09146313481606   -1.18629388850058   -4.76046995346900
C        -3.06189706627492   -0.19816409298490   -4.76813186010124
C        -3.39471888017520    0.44206599139773   -3.58783262642341
C        -2.74825854095580    0.11203075023662   -2.40868694592583
H        -1.42335783724995   -1.32535656073297    3.56186333818082
H        -1.20889898758112    0.12946965472016    5.55433185675748
H        -2.14724586417464    3.53480025774042    3.14658137010351
H        -2.33630984480827    2.09564146522757    1.16559703542550
H        -0.03522283184934    1.18068266925500    0.86757031142354
H        -0.09772662495352    2.42062886856435   -2.86876751599868
H         3.14891540901597    2.70217384319930   -1.25000669506298
H         3.50801623044888    4.72816414100482    0.12663503253943
H         2.26588959892020    2.57701613162895    3.60360327346495
H         1.91359636736175    0.55965768226306    2.23107715553823
H         0.81850187178062   -1.14028665172706   -2.32646968608312
H         0.58602863783882   -2.01332920612950    1.31630613467805
H         1.54918012524851   -4.06285189833623    2.26977007316291
H         2.63964917954665   -5.71741890605111    0.80074488157543
H         2.76804766637665   -5.30557857742620   -1.62820770743731
H         1.81264095024887   -3.24924292348579   -2.58198040313670
H        -1.40136575368974   -2.19753793131749   -0.78068644259913
H        -0.70089493403960   -2.29930267485131   -3.58190912026669
H        -1.84112573936487   -1.70601288358237   -5.67319197520029
H        -3.56513864945471    0.06123179105684   -5.68733158006283
H        -4.16345814579665    1.20025287556973   -3.57891968527743
H        -3.03098260498711    0.60408100394844   -1.49049965953053

          :  Hamiltonian                  GFN2-xTB          :
         :: total energy            -106.715319698683 Eh    ::
         :: gradient norm              0.000816543300 Eh/a0 ::
         :: HOMO-LUMO gap              3.369566509348 eV    ::
         :: SCC energy              -108.250284191136 Eh    ::
         :: -> dispersion             -0.088320981692 Eh    ::
         :: repulsion energy           1.532016428050 Eh    ::

    * Orbital Energies and Occupations

         #    Occupation            Energy/Eh            Energy/eV
      -------------------------------------------------------------
         1        2.0000           -1.0654127             -28.9914
       ...           ...                  ...                  ...
        83        2.0000           -0.4310344             -11.7290
        84        2.0000           -0.4283169             -11.6551
        85        2.0000           -0.4280656             -11.6483
        86        2.0000           -0.4264563             -11.6045
        87        2.0000           -0.4195438             -11.4164
        88        2.0000           -0.4177021             -11.3663
        89        2.0000           -0.4144528             -11.2778
        90        2.0000           -0.4135994             -11.2546
        91        2.0000           -0.4123963             -11.2219
        92        2.0000           -0.4111371             -11.1876
        93        2.0000           -0.4086256             -11.1193
        94        2.0000           -0.4052624             -11.0278
        95        2.0000           -0.4016100             -10.9284 (HOMO)
        96                         -0.2777807              -7.5588 (LUMO)
        97                         -0.2717617              -7.3950
        98                         -0.2628460              -7.1524
        99                         -0.2561782              -6.9710
       100                         -0.2544781              -6.9247
       101                         -0.2404750              -6.5437
       102                         -0.2370944              -6.4517
       103                         -0.2323457              -6.3224
       104                         -0.2300678              -6.2605
       105                         -0.2206948              -6.0054
       106                         -0.2175275              -5.9192
       ...                                ...                  ...
       184                          0.6584836              17.9183
      -------------------------------------------------------------
                  HL-Gap            0.1238293 Eh            3.3696 eV

     #   Z          covCN         q      C6AA      Î±(0)
     1   8 O        0.859    -0.407    21.822     6.263
     2   6 C        2.764     0.272    22.395     7.750
     3   6 C        2.973    -0.022    28.545     8.764
     4   6 C        2.927    -0.019    28.495     8.754
     5   6 C        2.953    -0.038    28.934     8.823
     6   6 C        2.889     0.103    25.723     8.315
     7  17 Cl       0.967    -0.164   104.284    15.623
     8   6 C        2.954    -0.037    28.917     8.820
     9   6 C        2.922    -0.034    28.844     8.807
    10   7 N        2.766    -0.115    23.505     7.201
    11   6 C        3.778     0.083    19.223     6.246
    12   6 C        2.688     0.352    21.021     7.503
    13   8 O        1.659    -0.351    19.931     6.027
    14   8 O        0.856    -0.388    21.441     6.208
    15   7 N        2.770    -0.114    23.492     7.199
    16   6 C        2.760     0.273    22.385     7.748
    17   6 C        2.976    -0.022    28.545     8.764
    18   6 C        2.925    -0.022    28.567     8.765
    19   6 C        2.955    -0.037    28.913     8.820
    20   6 C        2.889     0.102    25.741     8.318
    21  17 Cl       0.968    -0.162   104.245    15.620
    22   6 C        2.955    -0.038    28.940     8.824
    23   6 C        2.925    -0.030    28.755     8.794
    24   8 O        0.859    -0.408    21.850     6.267
    25   6 C        3.824     0.039    19.905     6.349
    26   6 C        2.974     0.009    27.808     8.650
    27   6 C        2.924    -0.028    28.700     8.785
    28   6 C        2.920    -0.026    28.647     8.777
    29   6 C        2.921    -0.027    28.684     8.783
    30   6 C        2.920    -0.025    28.621     8.773
    31   6 C        2.924    -0.028    28.696     8.785
    32   6 C        3.842     0.034    19.972     6.357
    33   6 C        2.971     0.002    27.972     8.675
    34   6 C        2.924    -0.037    28.919     8.819
    35   6 C        2.920    -0.027    28.683     8.783
    36   6 C        2.920    -0.031    28.767     8.795
    37   6 C        2.920    -0.028    28.696     8.785
    38   6 C        2.923    -0.034    28.854     8.809
    39   1 H        0.926     0.063     2.159     2.298
    40   1 H        0.926     0.065     2.137     2.286
    41   1 H        0.926     0.066     2.125     2.280
    42   1 H        0.926     0.069     2.097     2.265
    43   1 H        0.924     0.073     2.050     2.239
    44   1 H        0.804     0.346     0.598     1.215
    45   1 H        0.926     0.058     2.222     2.331
    46   1 H        0.926     0.066     2.132     2.283
    47   1 H        0.926     0.064     2.150     2.293
    48   1 H        0.926     0.044     2.394     2.420
    49   1 H        0.924     0.066     2.132     2.283
    50   1 H        0.925     0.021     2.717     2.578
    51   1 H        0.926     0.036     2.498     2.472
    52   1 H        0.926     0.038     2.474     2.460
    53   1 H        0.926     0.040     2.452     2.449
    54   1 H        0.926     0.037     2.490     2.468
    55   1 H        0.924     0.089     1.892     2.151
    56   1 H        0.926     0.036     2.509     2.477
    57   1 H        0.926     0.039     2.463     2.454
    58   1 H        0.926     0.038     2.480     2.463
    59   1 H        0.926     0.039     2.456     2.451
    60   1 H        0.926     0.036     2.497     2.471

Wiberg/Mayer (AO) data.
largest (>0.10) Wiberg bond orders for each atom

     #   Z sym  total        # sym  WBO       # sym  WBO       # sym  WBO
 ---------------------------------------------------------------------------
     1   8 O    2.033 --     2 C    1.704    10 N    0.182
     2   6 C    3.944 --     1 O    1.704    10 N    1.174     3 C    0.983
     3   6 C    3.988 --     4 C    1.393     9 C    1.390     2 C    0.983
     4   6 C    3.988 --     5 C    1.450     3 C    1.393    39 H    0.966
                             8 C    0.106
     5   6 C    3.988 --     4 C    1.450     6 C    1.397    40 H    0.966
                             9 C    0.106
     6   6 C    3.920 --     8 C    1.399     5 C    1.397     7 Cl   0.985
     7  17 Cl   1.124 --     6 C    0.985
     8   6 C    3.988 --     9 C    1.448     6 C    1.399    41 H    0.966
                             4 C    0.106
     9   6 C    3.988 --     8 C    1.448     3 C    1.390    42 H    0.961
                             5 C    0.106
    10   7 N    3.449 --     2 C    1.174    11 C    0.989    32 C    0.965
                             1 O    0.182
    11   6 C    3.974 --    10 N    0.989    15 N    0.987    43 H    0.930
                            12 C    0.908
    12   6 C    3.919 --    14 O    1.771    13 O    1.169    11 C    0.908
    13   8 O    2.234 --    12 C    1.169    44 H    0.854    14 O    0.184
    14   8 O    2.059 --    12 C    1.771    13 O    0.184
    15   7 N    3.465 --    16 C    1.207    11 C    0.987    25 C    0.953
                            24 O    0.193
    16   6 C    3.950 --    24 O    1.704    15 N    1.207    17 C    0.956
    17   6 C    3.988 --    18 C    1.409    23 C    1.396    16 C    0.956
    18   6 C    3.989 --    19 C    1.441    17 C    1.409    45 H    0.967
                            22 C    0.107
    19   6 C    3.988 --    18 C    1.441    20 C    1.404    46 H    0.966
                            23 C    0.108
    20   6 C    3.922 --    19 C    1.404    22 C    1.397    21 Cl   0.985
    21  17 Cl   1.124 --    20 C    0.985
    22   6 C    3.988 --    23 C    1.449    20 C    1.397    47 H    0.966
                            18 C    0.107
    23   6 C    3.991 --    22 C    1.449    17 C    1.396    48 H    0.967
                            19 C    0.108
    24   8 O    2.029 --    16 C    1.704    15 N    0.193
    25   6 C    3.961 --    26 C    0.990    15 N    0.953    49 H    0.952
                            32 C    0.951
    26   6 C    3.986 --    31 C    1.416    27 C    1.409    25 C    0.990
                            29 C    0.110
    27   6 C    3.992 --    28 C    1.449    26 C    1.409    50 H    0.969
                            30 C    0.112
    28   6 C    3.992 --    27 C    1.449    29 C    1.435    51 H    0.971
                            31 C    0.111
    29   6 C    3.990 --    30 C    1.442    28 C    1.435    52 H    0.971
                            26 C    0.110
    30   6 C    3.992 --    29 C    1.442    31 C    1.441    53 H    0.971
                            27 C    0.112
    31   6 C    3.990 --    30 C    1.441    26 C    1.416    54 H    0.968
                            28 C    0.111
    32   6 C    3.959 --    33 C    0.989    10 N    0.965    25 C    0.951
                            55 H    0.939
    33   6 C    3.985 --    38 C    1.417    34 C    1.406    32 C    0.989
                            36 C    0.109
    34   6 C    3.991 --    35 C    1.450    33 C    1.406    56 H    0.967
                            37 C    0.112
    35   6 C    3.991 --    34 C    1.450    36 C    1.434    57 H    0.971
                            38 C    0.110
    36   6 C    3.992 --    37 C    1.444    35 C    1.434    58 H    0.971
                            33 C    0.109
    37   6 C    3.992 --    36 C    1.444    38 C    1.438    59 H    0.970
                            34 C    0.112
    38   6 C    3.991 --    37 C    1.438    33 C    1.417    60 H    0.967
                            35 C    0.110
    39   1 H    0.996 --     4 C    0.966
    40   1 H    0.995 --     5 C    0.966
    41   1 H    0.995 --     8 C    0.966
    42   1 H    0.995 --     9 C    0.961
    43   1 H    0.994 --    11 C    0.930
    44   1 H    0.880 --    13 O    0.854
    45   1 H    0.997 --    18 C    0.967
    46   1 H    0.995 --    19 C    0.966
    47   1 H    0.995 --    22 C    0.966
    48   1 H    0.998 --    23 C    0.967
    49   1 H    0.995 --    25 C    0.952
    50   1 H    1.000 --    27 C    0.969
    51   1 H    0.998 --    28 C    0.971
    52   1 H    0.998 --    29 C    0.971
    53   1 H    0.998 --    30 C    0.971
    54   1 H    0.999 --    31 C    0.968
    55   1 H    0.992 --    32 C    0.939
    56   1 H    0.999 --    34 C    0.967
    57   1 H    0.998 --    35 C    0.971
    58   1 H    0.998 --    36 C    0.971
    59   1 H    0.998 --    37 C    0.970
    60   1 H    0.999 --    38 C    0.967
 ---------------------------------------------------------------------------

molecular dipole:
                 x           y           z       tot (Debye)
 q only:       -0.128      -0.367      -1.492
   full:       -0.073       0.307      -1.100       2.909

           -------------------------------------------------
          | TOTAL ENERGY             -106.715319698683 Eh   |
          | GRADIENT NORM               0.000816543300 Eh/Î± |
          | HOMO-LUMO GAP               3.369566509348 eV   |
           -------------------------------------------------

 * finished run on 2022/03/17 at 01:04:00.180
