   * xtb version 6.3.3 (4ae9cef) compiled by 'conda@95abc7406d43' on 2020-10-14
          program call               : xtb acid_418.xyz --opt --chrg 0 --uhf 0 --gfn 2
          number of atoms            :                    78
          number of electrons        :                   230
          charge                     :                     0
          spin                       :                   0.0

   ID    Z sym.   atoms
    1    6 C      1-22, 24-27, 29-31, 33, 34, 38-41, 43-45
    2    7 N      23, 37
    3    8 O      28, 32, 35, 36, 42, 46
    4    1 H      47-78

          :  Hamiltonian                  GFN2-xTB          :
 * total energy  :  -127.9942310 Eh     change       -0.3433342E-08 Eh
 * total energy  :  -128.0090384 Eh     change       -0.1480745E-01 Eh
 * total energy  :  -128.0132575 Eh     change       -0.4219125E-02 Eh
 * total energy  :  -128.0145412 Eh     change       -0.1283691E-02 Eh
 * total energy  :  -128.0155647 Eh     change       -0.1023420E-02 Eh
 * total energy  :  -128.0160277 Eh     change       -0.4630724E-03 Eh
 * total energy  :  -128.0163463 Eh     change       -0.3186016E-03 Eh
 * total energy  :  -128.0166409 Eh     change       -0.2946089E-03 Eh
 * total energy  :  -128.0169623 Eh     change       -0.3213725E-03 Eh
 * total energy  :  -128.0173342 Eh     change       -0.3718951E-03 Eh
 * total energy  :  -128.0240072 Eh     change       -0.2241197E-04 Eh
 * total energy  :  -128.0240326 Eh     change       -0.2533641E-04 Eh
 * total energy  :  -128.0240600 Eh     change       -0.2745079E-04 Eh
 * total energy  :  -128.0240864 Eh     change       -0.2641557E-04 Eh
 * total energy  :  -128.0241110 Eh     change       -0.2453883E-04 Eh
 * total energy  :  -128.0241165 Eh     change       -0.5520326E-05 Eh
 * total energy  :  -128.0241321 Eh     change       -0.1558988E-04 Eh
 * total energy  :  -128.0241400 Eh     change       -0.7913764E-05 Eh
 * total energy  :  -128.0241443 Eh     change       -0.4344511E-05 Eh
   *** GEOMETRY OPTIMIZATION CONVERGED AFTER 125 ITERATIONS ***

 final structure:
================
78
 xtb: 6.3.3 (4ae9cef)
C         1.85546564061330    1.24734855718556   -1.83906245104646
C         2.67193683511591    1.94872897566102   -2.67795397304060
C         3.24399157928986    3.17409201681121   -2.27620177600422
C         4.09167492177074    3.92167306271066   -3.11911549450929
C         4.62815376646697    5.10590077845040   -2.69724465624088
C         4.34143964781338    5.59642249334080   -1.41361225534402
C         3.52333292814808    4.89496073291745   -0.57318139554252
C         2.95493065477155    3.66932008298679   -0.97808368762938
C         2.11570396077928    2.91836619268439   -0.13090958532049
C         1.57883163828577    1.72972135426729   -0.54466401749352
C         0.66587071285464    0.94013672512051    0.35767739314707
C        -0.79290881254067    0.96998950485464   -0.13241942982533
C        -1.72678886524161    1.61044361171603    0.86239788218327
C        -2.05853154786608    0.96601877227517    2.02569552220823
C        -2.93764143911540    1.54995304659974    2.95848660208864
C        -3.30579168706854    0.89665523184760    4.15340488795827
C        -4.16444334162445    1.48898708093074    5.03600400055314
C        -4.69369843527816    2.76094058108310    4.76587328537025
C        -4.35539611510280    3.41957633358198    3.61713806825113
C        -3.47269247366185    2.83585944522757    2.68514991914335
C        -3.10391889319379    3.48351320843242    1.48786497127531
C        -2.25651520731179    2.88633310484029    0.59920825563065
N        -1.13826532212664   -0.42800683241445   -0.35046487465357
C        -2.24671082901377   -0.72907818792593   -1.08378234690269
C        -2.51498907015308   -2.17504617501169   -1.24805251270755
C        -2.87647662780092   -3.08059070007796   -0.28635254340731
C        -3.07109865353627   -2.93262104172297    1.17999669023007
O        -3.10478547873165   -4.28149383515996   -0.85054786411121
C        -2.89783192359041   -4.15116696668808   -2.17911214540490
C        -2.54822567062863   -2.87571303766301   -2.49702572559044
C        -2.22812437921022   -2.29335534328792   -3.82505398691600
O        -2.95819408752179    0.14011228072040   -1.53969463496934
C        -0.09498196569482   -1.34125163504081    0.04259447060277
C         0.25553062421530   -2.29894242557206   -1.11272749347343
O         0.10527654148825   -3.57414837540216   -0.76456959120246
O         0.61290397638945   -1.94026224908392   -2.20033094098478
N         1.01202918384728   -0.47635677321072    0.37163706597016
C         2.29074841350284   -0.86167331274307    0.63141690943491
C         2.55242399450295   -2.31233215253769    0.47348740940151
C         2.24822864296267   -3.34531330611516    1.31648763591033
C         1.51927929694556   -3.37556752194695    2.61157626246751
O         2.72837591595919   -4.50101828965166    0.81723436852207
C         3.35291383626710   -4.21151505040561   -0.34491394693275
C         3.29535132186804   -2.87897202757903   -0.61274442103044
C         3.83329649874175   -2.13071720442182   -1.77767464955926
O         3.14683533363767   -0.06252363896093    0.94358725553090
H         1.42254611496332    0.31063357114246   -2.15786052171224
H         2.89159321980158    1.57179658681437   -3.66669874115071
H         4.30987436587002    3.53967627823817   -4.10646596260922
H         5.27763141156209    5.67338484368376   -3.34785493587192
H         4.77508126997358    6.53372467168578   -1.09648729050515
H         3.30135929614680    5.26714854181537    0.41682473951811
H         1.90880713140009    3.29309330940974    0.86158076255490
H         0.73960131359004    1.33388547857125    1.38018304496338
H        -0.87260872454577    1.49996116565762   -1.08967359941216
H        -1.64840828176927   -0.01098634782753    2.24421307865022
H        -2.89695722219056   -0.08310304250107    4.35816011474600
H        -4.44340862855028    0.98265424427816    5.94849770365722
H        -5.37139480510136    3.21315719422109    5.47497026828859
H        -4.76105059574610    4.39818287548587    3.40388423782450
H        -3.51165970620965    4.46234530291677    1.28095056961347
H        -1.98748772784583    3.38323482849391   -0.32065501726348
H        -4.00671500508274   -3.40292691462115    1.47689715374223
H        -3.10361438537957   -1.87888893744418    1.44275786508591
H        -2.26441846417083   -3.42209964908685    1.72765968370070
H        -3.04376487240271   -5.02325700120089   -2.78442214810028
H        -2.80849441010959   -1.38517493320551   -3.97540962016353
H        -1.17227276742663   -2.02484153119799   -3.87174822019903
H        -2.45102842193333   -3.00261706913782   -4.61751125191681
H        -0.39206495849810   -1.95887284457674    0.90844264128548
H         0.32584147253717   -4.16777325954225   -1.50113663335820
H         0.56784329068856   -3.89707098787137    2.50130711418887
H         2.10693562011009   -3.90881435808615    3.35683975107426
H         1.34202541980901   -2.36139839114161    2.95805971570047
H         3.80518811457852   -5.02645364436970   -0.87374047732185
H         3.02116063673218   -1.85387136322931   -2.45082849836815
H         4.55059104419170   -2.73749938144029   -2.32355932872180
H         4.31275321478572   -1.21461332756238   -1.43860265399709

          :  Hamiltonian                  GFN2-xTB          :
         :: total energy            -128.024144347613 Eh    ::
         :: gradient norm              0.000363517478 Eh/a0 ::
         :: HOMO-LUMO gap              2.750320098467 eV    ::
         :: SCC energy              -129.948197272617 Eh    ::
         :: -> dispersion             -0.111214418524 Eh    ::
         :: repulsion energy           1.920700008671 Eh    ::

    * Orbital Energies and Occupations

         #    Occupation            Energy/Eh            Energy/eV
      -------------------------------------------------------------
         1        2.0000           -0.7772616             -21.1504
       ...           ...                  ...                  ...
       103        2.0000           -0.4190556             -11.4031
       104        2.0000           -0.4173320             -11.3562
       105        2.0000           -0.4114880             -11.1972
       106        2.0000           -0.4074148             -11.0863
       107        2.0000           -0.4060971             -11.0505
       108        2.0000           -0.4052642             -11.0278
       109        2.0000           -0.3990401             -10.8584
       110        2.0000           -0.3972887             -10.8108
       111        2.0000           -0.3920946             -10.6694
       112        2.0000           -0.3910398             -10.6407
       113        2.0000           -0.3900258             -10.6131
       114        2.0000           -0.3840587             -10.4508
       115        2.0000           -0.3746499             -10.1947 (HOMO)
       116                         -0.2735775              -7.4444 (LUMO)
       117                         -0.2663071              -7.2466
       118                         -0.2561095              -6.9691
       119                         -0.2357008              -6.4137
       120                         -0.2321480              -6.3171
       121                         -0.2273280              -6.1859
       122                         -0.2238968              -6.0925
       123                         -0.2131876              -5.8011
       124                         -0.2099858              -5.7140
       125                         -0.1953015              -5.3144
       126                         -0.1851828              -5.0391
       ...                                ...                  ...
       216                          0.7004258              19.0596
      -------------------------------------------------------------
                  HL-Gap            0.1010724 Eh            2.7503 eV

     #   Z          covCN         q      C6AA      Î±(0)
     1   6 C        2.919    -0.035    28.880     8.813
     2   6 C        2.918    -0.033    28.831     8.805
     3   6 C        2.987     0.014    27.699     8.633
     4   6 C        2.918    -0.034    28.852     8.808
     5   6 C        2.916    -0.030    28.746     8.792
     6   6 C        2.916    -0.030    28.737     8.791
     7   6 C        2.918    -0.033    28.834     8.806
     8   6 C        2.987     0.017    27.625     8.622
     9   6 C        2.922    -0.036    28.884     8.813
    10   6 C        2.971     0.010    27.799     8.648
    11   6 C        3.820     0.047    19.776     6.329
    12   6 C        3.824     0.043    19.831     6.337
    13   6 C        2.970     0.006    27.876     8.660
    14   6 C        2.923    -0.042    29.035     8.836
    15   6 C        2.987     0.014    27.701     8.633
    16   6 C        2.918    -0.036    28.884     8.813
    17   6 C        2.916    -0.029    28.724     8.789
    18   6 C        2.916    -0.029    28.727     8.789
    19   6 C        2.918    -0.033    28.821     8.804
    20   6 C        2.987     0.014    27.688     8.631
    21   6 C        2.918    -0.032    28.786     8.798
    22   6 C        2.919    -0.030    28.751     8.793
    23   7 N        2.766    -0.117    23.552     7.208
    24   6 C        2.760     0.275    22.354     7.743
    25   6 C        3.080    -0.078    29.850     8.957
    26   6 C        3.083     0.113    25.433     8.267
    27   6 C        3.753    -0.115    22.770     6.805
    28   8 O        1.729    -0.189    17.162     5.594
    29   6 C        3.057     0.046    26.909     8.507
    30   6 C        3.044    -0.009    28.203     8.710
    31   6 C        3.754    -0.111    22.682     6.791
    32   8 O        0.859    -0.417    22.022     6.292
    33   6 C        3.744     0.091    19.135     6.240
    34   6 C        2.688     0.356    20.961     7.493
    35   8 O        1.659    -0.370    20.282     6.080
    36   8 O        0.856    -0.387    21.432     6.207
    37   7 N        2.766    -0.116    23.523     7.203
    38   6 C        2.759     0.276    22.334     7.739
    39   6 C        3.080    -0.078    29.856     8.958
    40   6 C        3.082     0.113    25.429     8.267
    41   6 C        3.753    -0.115    22.759     6.803
    42   8 O        1.729    -0.191    17.186     5.597
    43   6 C        3.057     0.046    26.909     8.507
    44   6 C        3.045    -0.010    28.220     8.713
    45   6 C        3.754    -0.110    22.666     6.789
    46   8 O        0.859    -0.417    22.017     6.291
    47   1 H        0.926     0.048     2.351     2.398
    48   1 H        0.926     0.036     2.498     2.472
    49   1 H        0.926     0.032     2.557     2.500
    50   1 H        0.926     0.030     2.581     2.512
    51   1 H        0.926     0.031     2.577     2.510
    52   1 H        0.926     0.033     2.546     2.495
    53   1 H        0.926     0.034     2.525     2.485
    54   1 H        0.923     0.055     2.263     2.352
    55   1 H        0.924     0.070     2.083     2.257
    56   1 H        0.925     0.025     2.665     2.553
    57   1 H        0.926     0.029     2.603     2.523
    58   1 H        0.926     0.032     2.555     2.500
    59   1 H        0.926     0.033     2.543     2.494
    60   1 H        0.926     0.035     2.515     2.480
    61   1 H        0.926     0.041     2.439     2.442
    62   1 H        0.926     0.041     2.435     2.440
    63   1 H        0.925     0.070     2.086     2.258
    64   1 H        0.925     0.057     2.239     2.340
    65   1 H        0.924     0.057     2.238     2.340
    66   1 H        0.926     0.049     2.329     2.386
    67   1 H        0.925     0.067     2.122     2.278
    68   1 H        0.924     0.062     2.179     2.308
    69   1 H        0.925     0.043     2.404     2.424
    70   1 H        0.923     0.057     2.233     2.337
    71   1 H        0.804     0.346     0.598     1.215
    72   1 H        0.924     0.059     2.214     2.327
    73   1 H        0.925     0.070     2.083     2.257
    74   1 H        0.925     0.053     2.286     2.364
    75   1 H        0.926     0.049     2.332     2.388
    76   1 H        0.924     0.062     2.173     2.305
    77   1 H        0.925     0.045     2.386     2.415
    78   1 H        0.925     0.063     2.168     2.303

Wiberg/Mayer (AO) data.
largest (>0.10) Wiberg bond orders for each atom

     #   Z sym  total        # sym  WBO       # sym  WBO       # sym  WBO
 ---------------------------------------------------------------------------
     1   6 C    3.990 --     2 C    1.566    10 C    1.292    47 H    0.963
     2   6 C    3.992 --     1 C    1.566     3 C    1.275    48 H    0.968
                             9 C    0.114
     3   6 C    3.990 --     4 C    1.282     2 C    1.275     8 C    1.251
     4   6 C    3.992 --     5 C    1.556     3 C    1.282    49 H    0.968
                             7 C    0.118
     5   6 C    3.990 --     4 C    1.556     6 C    1.321    50 H    0.971
     6   6 C    3.992 --     7 C    1.557     5 C    1.321    51 H    0.971
     7   6 C    3.990 --     6 C    1.557     8 C    1.279    52 H    0.968
                             4 C    0.118
     8   6 C    3.990 --     9 C    1.281     7 C    1.279     3 C    1.251
     9   6 C    3.990 --    10 C    1.528     8 C    1.281    53 H    0.965
                             2 C    0.114
    10   6 C    3.984 --     9 C    1.528     1 C    1.292    11 C    0.987
    11   6 C    3.958 --    10 C    0.987    12 C    0.956    54 H    0.955
                            37 N    0.954
    12   6 C    3.958 --    13 C    0.987    11 C    0.956    23 N    0.956
                            55 H    0.952
    13   6 C    3.985 --    14 C    1.524    22 C    1.298    12 C    0.987
    14   6 C    3.991 --    13 C    1.524    15 C    1.285    56 H    0.965
                            21 C    0.116
    15   6 C    3.991 --    14 C    1.285    16 C    1.278    20 C    1.249
    16   6 C    3.990 --    17 C    1.558    15 C    1.278    57 H    0.969
                            19 C    0.118
    17   6 C    3.992 --    16 C    1.558    18 C    1.320    58 H    0.971
    18   6 C    3.990 --    19 C    1.557    17 C    1.320    59 H    0.971
    19   6 C    3.992 --    18 C    1.557    20 C    1.281    60 H    0.968
                            16 C    0.118
    20   6 C    3.990 --    19 C    1.281    21 C    1.278    15 C    1.249
    21   6 C    3.991 --    22 C    1.561    20 C    1.278    61 H    0.967
                            14 C    0.116
    22   6 C    3.990 --    21 C    1.561    13 C    1.298    62 H    0.967
    23   7 N    3.453 --    24 C    1.192    33 C    0.987    12 C    0.956
                            32 O    0.188
    24   6 C    3.947 --    32 O    1.695    23 N    1.192    25 C    0.980
    25   6 C    3.972 --    26 C    1.531    30 C    1.214    24 C    0.980
    26   6 C    3.916 --    25 C    1.531    28 O    1.130    27 C    1.029
                            29 C    0.137
    27   6 C    3.993 --    26 C    1.029    64 H    0.980    63 H    0.971
                            65 H    0.965
    28   8 O    2.433 --    26 C    1.130    29 C    1.107
    29   6 C    3.895 --    30 C    1.596    28 O    1.107    66 H    0.966
                            26 C    0.137
    30   6 C    3.983 --    29 C    1.596    25 C    1.214    31 C    1.037
    31   6 C    3.994 --    30 C    1.037    69 H    0.985    67 H    0.971
                            68 H    0.964
    32   8 O    2.024 --    24 C    1.695    23 N    0.188
    33   6 C    3.973 --    23 N    0.987    37 N    0.986    70 H    0.941
                            34 C    0.912
    34   6 C    3.920 --    36 O    1.764    35 O    1.149    33 C    0.912
    35   8 O    2.211 --    34 C    1.149    71 H    0.854    36 O    0.176
    36   8 O    2.062 --    34 C    1.764    35 O    0.176
    37   7 N    3.458 --    38 C    1.199    33 C    0.986    11 C    0.954
                            46 O    0.191
    38   6 C    3.947 --    46 O    1.696    37 N    1.199    39 C    0.972
    39   6 C    3.972 --    40 C    1.540    44 C    1.213    38 C    0.972
    40   6 C    3.916 --    39 C    1.540    42 O    1.127    41 C    1.029
                            43 C    0.138
    41   6 C    3.994 --    40 C    1.029    74 H    0.983    73 H    0.970
                            72 H    0.967
    42   8 O    2.431 --    40 C    1.127    43 C    1.108
    43   6 C    3.895 --    44 C    1.594    42 O    1.108    75 H    0.966
                            40 C    0.138
    44   6 C    3.983 --    43 C    1.594    39 C    1.213    45 C    1.036
    45   6 C    3.994 --    44 C    1.036    77 H    0.984    78 H    0.974
                            76 H    0.961
    46   8 O    2.027 --    38 C    1.696    37 N    0.191
    47   1 H    0.997 --     1 C    0.963
    48   1 H    0.998 --     2 C    0.968
    49   1 H    0.998 --     4 C    0.968
    50   1 H    0.999 --     5 C    0.971
    51   1 H    0.999 --     6 C    0.971
    52   1 H    0.998 --     7 C    0.968
    53   1 H    0.998 --     9 C    0.965
    54   1 H    0.996 --    11 C    0.955
    55   1 H    0.994 --    12 C    0.952
    56   1 H    0.999 --    14 C    0.965
    57   1 H    0.999 --    16 C    0.969
    58   1 H    0.998 --    17 C    0.971
    59   1 H    0.998 --    18 C    0.971
    60   1 H    0.998 --    19 C    0.968
    61   1 H    0.997 --    21 C    0.967
    62   1 H    0.998 --    22 C    0.967
    63   1 H    0.995 --    27 C    0.971
    64   1 H    0.997 --    27 C    0.980
    65   1 H    0.997 --    27 C    0.965
    66   1 H    0.997 --    29 C    0.966
    67   1 H    0.995 --    31 C    0.971
    68   1 H    0.996 --    31 C    0.964
    69   1 H    0.998 --    31 C    0.985
    70   1 H    0.996 --    33 C    0.941
    71   1 H    0.879 --    35 O    0.854
    72   1 H    0.996 --    41 C    0.967
    73   1 H    0.995 --    41 C    0.970
    74   1 H    0.997 --    41 C    0.983
    75   1 H    0.997 --    43 C    0.966
    76   1 H    0.996 --    45 C    0.961
    77   1 H    0.998 --    45 C    0.984
    78   1 H    0.996 --    45 C    0.974
 ---------------------------------------------------------------------------

molecular dipole:
                 x           y           z       tot (Debye)
 q only:       -0.350      -0.653       0.508
   full:       -0.367      -1.236       0.537       3.550

           -------------------------------------------------
          | TOTAL ENERGY             -128.024144347613 Eh   |
          | GRADIENT NORM               0.000363517478 Eh/Î± |
          | HOMO-LUMO GAP               2.750320098467 eV   |
           -------------------------------------------------

 * finished run on 2022/03/17 at 00:58:55.546
