   * xtb version 6.3.3 (4ae9cef) compiled by 'conda@95abc7406d43' on 2020-10-14
          program call               : xtb acid_325.xyz --opt --chrg 0 --uhf 0 --gfn 2
          number of atoms            :                    80
          number of electrons        :                   238
          charge                     :                     0
          spin                       :                   0.0

   ID    Z sym.   atoms
    1    6 C      1-22, 24-28, 30-32, 34, 35, 39-43, 45-47
    2    7 N      23, 38
    3    8 O      29, 33, 36, 37, 44, 48
    4    1 H      49-80

          :  Hamiltonian                  GFN2-xTB          :
 * total energy  :  -132.2405589 Eh     change       -0.3947065E-08 Eh
 * total energy  :  -132.2578207 Eh     change       -0.1726175E-01 Eh
 * total energy  :  -132.2631441 Eh     change       -0.5323384E-02 Eh
 * total energy  :  -132.2644552 Eh     change       -0.1311182E-02 Eh
 * total energy  :  -132.2653761 Eh     change       -0.9208621E-03 Eh
 * total energy  :  -132.2659097 Eh     change       -0.5335681E-03 Eh
 * total energy  :  -132.2664691 Eh     change       -0.5593822E-03 Eh
 * total energy  :  -132.2670768 Eh     change       -0.6077013E-03 Eh
 * total energy  :  -132.2677090 Eh     change       -0.6322093E-03 Eh
 * total energy  :  -132.2680851 Eh     change       -0.3761012E-03 Eh
 * total energy  :  -132.2718175 Eh     change       -0.1400609E-04 Eh
 * total energy  :  -132.2718393 Eh     change       -0.2181544E-04 Eh
 * total energy  :  -132.2718621 Eh     change       -0.2275713E-04 Eh
 * total energy  :  -132.2718789 Eh     change       -0.1681839E-04 Eh
 * total energy  :  -132.2718927 Eh     change       -0.1385615E-04 Eh
 * total energy  :  -132.2719056 Eh     change       -0.1291417E-04 Eh
 * total energy  :  -132.2719152 Eh     change       -0.9576422E-05 Eh
 * total energy  :  -132.2719246 Eh     change       -0.9372392E-05 Eh
 * total energy  :  -132.2719278 Eh     change       -0.3238560E-05 Eh
   *** GEOMETRY OPTIMIZATION CONVERGED AFTER 63 ITERATIONS ***

 final structure:
================
80
 xtb: 6.3.3 (4ae9cef)
C         0.33623596041221   -1.43134410259719   -4.16165059819749
C         0.94839783885715   -2.30458638681039   -5.01309793053097
C         2.26757467811927   -2.74472715227943   -4.77574178175863
C         2.92364094507347   -3.66031958559707   -5.62342947436958
C         4.20669679755075   -4.05469399853440   -5.36470105842033
C         4.89259013056239   -3.54916945489090   -4.24919732200818
C         4.28393043227035   -2.65865798524266   -3.40979863150009
C         2.95982609480505   -2.23520866764828   -3.64761783151915
C         2.30337220631977   -1.32690992716161   -2.79254507687837
C         1.00790235471714   -0.94698851357529   -3.02083533241394
C         0.28664702595530    0.00177170016733   -2.09809729857709
C        -1.11826750912228   -0.51761848855005   -1.66651212231689
C        -2.20620300779961    0.48235554848339   -1.95271779389742
C        -2.21840175921533    1.69372595524302   -1.31074407321079
C        -3.21138755590334    2.65320703410436   -1.58455360814804
C        -3.24121847841636    3.90656308451073   -0.93795558651421
C        -4.21590471943476    4.81882592579635   -1.22876692644078
C        -5.20627287702169    4.52050686454604   -2.17827394871591
C        -5.20417388559813    3.31502566547419   -2.82198406305891
C        -4.21149560368224    2.35228468477224   -2.54556329482159
C        -4.17823178814023    1.09824451876617   -3.18907918484219
C        -3.20249160216340    0.18807301929051   -2.90005890072714
N        -0.96581687932956   -0.72874250921768   -0.23038796818683
C        -2.00053220031490   -1.08297590438908    0.57739833026302
C        -1.63302198088708   -1.16125293394524    2.02545435639221
C        -1.77949679912538   -2.34831908740762    2.72459268461112
C        -1.45267078030162   -2.42611035570158    4.06810459723572
C        -0.98411120525705   -1.29949699235372    4.73627405784387
O        -0.63095087251311   -1.25902730713643    6.04767554610227
C        -0.75809650784629   -2.43011416028499    6.81853174609733
C        -0.85674941289342   -0.09666164255172    4.03687384614886
C        -1.17803885893547   -0.02895209728530    2.69986314111924
O        -3.12043539651460   -1.27174454194924    0.15717236549722
C         0.43555355188303   -0.73928975353153    0.09910918376473
C         1.01589694649041   -2.15096757678720   -0.12435587395907
O         2.29775410961683   -2.21730065607769    0.23285951059857
O         0.39013552513391   -3.08521136028408   -0.53393594985954
N         0.99629729125828    0.19799245009213   -0.83922649996766
C         1.43998656896030    1.45633246119737   -0.50606108015681
C         1.81224287471764    1.65249184135522    0.91983079707104
C         1.31180407909845    2.77132445351736    1.57388421582556
C         1.58237564642637    2.99676321177792    2.91081979310855
C         2.38974507031233    2.10633925639828    3.61328097040536
O         2.71582557742091    2.21885522774447    4.92427082276570
C         2.22049669921560    3.31684249833586    5.65406666848837
C         2.92761531051006    1.00231368194692    2.94557300038754
C         2.64021357329577    0.77462385499155    1.61874000626853
O         1.51286513629882    2.33787294088125   -1.33530868821262
H        -0.66884143160199   -1.09064373122649   -4.36141178727391
H         0.42812857159877   -2.67136503527262   -5.88616861869938
H         2.39211205205280   -4.04546177123976   -6.48188369176276
H         4.70354554873694   -4.75799518162223   -6.01682227643841
H         5.90655412181216   -3.87091421927182   -4.06073630580668
H         4.80851526808980   -2.26318311132455   -2.55104651650202
H         2.84932297453820   -0.92485495723707   -1.95132827795179
H         0.20525826211183    0.98150077092149   -2.58633760659348
H        -1.34674554245217   -1.47448973372776   -2.14973688657883
H        -1.45770199287257    1.93207598863842   -0.57958120415513
H        -2.47534634971575    4.13327018151748   -0.20978135980297
H        -4.23217669372654    5.77775507721832   -0.73132523881496
H        -5.96973857213960    5.25365205686181   -2.39462504125116
H        -5.96442124240035    3.08056948635502   -3.55351466363438
H        -4.94437399057660    0.86687588258713   -3.91492924868500
H        -3.19352741013355   -0.77575931561568   -3.38758243171700
H        -2.14755933411441   -3.22196996335648    2.20879594004130
H        -1.57148441329156   -3.36733295789090    4.58111093862526
H        -1.79545054418170   -2.77691564544337    6.85388429088398
H        -0.11815154060644   -3.23274495052145    6.43866142466898
H        -0.43555847790593   -2.15782692092195    7.82220613958393
H        -0.50445343575485    0.77135227829290    4.57074263978109
H        -1.09331771955284    0.91346484090205    2.17720837491735
H         0.63100814328129   -0.45265232078945    1.13628817848137
H         2.65460038833057   -3.10594892685938    0.06677321118682
H         0.69595551931899    3.46773137277643    1.02421747666803
H         1.16369413628048    3.86707402048427    3.39034218274639
H         1.12635974378052    3.31761382031549    5.68649820218757
H         2.60888204396378    3.19775211621553    6.66394864732885
H         2.57423260900188    4.26623495297376    5.23986517779500
H         3.56938625651204    0.33521252306731    3.49838311990821
H         3.06964230679199   -0.07802136445069    1.11570847008839

          :  Hamiltonian                  GFN2-xTB          :
         :: total energy            -132.271927837379 Eh    ::
         :: gradient norm              0.000780678727 Eh/a0 ::
         :: HOMO-LUMO gap              2.942670859532 eV    ::
         :: SCC energy              -134.308413854483 Eh    ::
         :: -> dispersion             -0.112819820992 Eh    ::
         :: repulsion energy           2.033587324762 Eh    ::

    * Orbital Energies and Occupations

         #    Occupation            Energy/Eh            Energy/eV
      -------------------------------------------------------------
         1        2.0000           -0.7732939             -21.0424
       ...           ...                  ...                  ...
       107        2.0000           -0.4185360             -11.3889
       108        2.0000           -0.4179294             -11.3724
       109        2.0000           -0.4131349             -11.2420
       110        2.0000           -0.4102908             -11.1646
       111        2.0000           -0.4041911             -10.9986
       112        2.0000           -0.4003021             -10.8928
       113        2.0000           -0.3973871             -10.8135
       114        2.0000           -0.3962804             -10.7833
       115        2.0000           -0.3924339             -10.6787
       116        2.0000           -0.3895940             -10.6014
       117        2.0000           -0.3869516             -10.5295
       118        2.0000           -0.3823573             -10.4045
       119        2.0000           -0.3733974             -10.1607 (HOMO)
       120                         -0.2652563              -7.2180 (LUMO)
       121                         -0.2625343              -7.1439
       122                         -0.2563602              -6.9759
       123                         -0.2532982              -6.8926
       124                         -0.2395722              -6.5191
       125                         -0.2387260              -6.4961
       126                         -0.2360545              -6.4234
       127                         -0.2330385              -6.3413
       128                         -0.2245312              -6.1098
       129                         -0.2011254              -5.4729
       130                         -0.1984713              -5.4007
       ...                                ...                  ...
       224                          0.7021719              19.1071
      -------------------------------------------------------------
                  HL-Gap            0.1081412 Eh            2.9427 eV

     #   Z          covCN         q      C6AA      Î±(0)
     1   6 C        2.920    -0.036    28.897     8.815
     2   6 C        2.917    -0.032    28.802     8.801
     3   6 C        2.987     0.013    27.705     8.634
     4   6 C        2.918    -0.033    28.827     8.804
     5   6 C        2.916    -0.030    28.744     8.792
     6   6 C        2.916    -0.030    28.742     8.791
     7   6 C        2.919    -0.037    28.917     8.818
     8   6 C        2.987     0.014    27.697     8.633
     9   6 C        2.923    -0.044    29.085     8.844
    10   6 C        2.967     0.002    27.971     8.675
    11   6 C        3.848     0.035    19.958     6.355
    12   6 C        3.828     0.042    19.854     6.340
    13   6 C        2.970     0.011    27.770     8.644
    14   6 C        2.924    -0.034    28.843     8.807
    15   6 C        2.987     0.016    27.637     8.623
    16   6 C        2.918    -0.032    28.809     8.802
    17   6 C        2.916    -0.029    28.734     8.790
    18   6 C        2.916    -0.030    28.743     8.792
    19   6 C        2.918    -0.033    28.834     8.806
    20   6 C        2.988     0.015    27.681     8.630
    21   6 C        2.918    -0.032    28.798     8.800
    22   6 C        2.919    -0.029    28.725     8.789
    23   7 N        2.772    -0.121    23.635     7.221
    24   6 C        2.759     0.275    22.346     7.741
    25   6 C        2.976    -0.032    28.786     8.801
    26   6 C        2.923    -0.024    28.607     8.771
    27   6 C        2.917    -0.065    29.626     8.926
    28   6 C        2.866     0.147    24.812     8.165
    29   8 O        1.706    -0.263    18.362     5.786
    30   6 C        3.644     0.035    20.319     6.479
    31   6 C        2.920    -0.054    29.334     8.882
    32   6 C        2.922    -0.033    28.821     8.804
    33   8 O        0.859    -0.413    21.935     6.279
    34   6 C        3.792     0.085    19.186     6.238
    35   6 C        2.689     0.352    21.026     7.504
    36   8 O        1.659    -0.366    20.195     6.067
    37   8 O        0.856    -0.378    21.254     6.181
    38   7 N        2.765    -0.123    23.678     7.227
    39   6 C        2.765     0.273    22.382     7.748
    40   6 C        2.973    -0.031    28.778     8.799
    41   6 C        2.926    -0.022    28.547     8.762
    42   6 C        2.916    -0.065    29.615     8.924
    43   6 C        2.866     0.150    24.743     8.154
    44   8 O        1.706    -0.259    18.300     5.776
    45   6 C        3.645     0.035    20.317     6.479
    46   6 C        2.920    -0.053    29.328     8.881
    47   6 C        2.920    -0.035    28.880     8.813
    48   8 O        0.859    -0.414    21.952     6.282
    49   1 H        0.926     0.036     2.497     2.471
    50   1 H        0.926     0.039     2.462     2.454
    51   1 H        0.926     0.034     2.525     2.485
    52   1 H        0.926     0.032     2.555     2.500
    53   1 H        0.926     0.031     2.570     2.507
    54   1 H        0.925     0.030     2.590     2.517
    55   1 H        0.926     0.036     2.508     2.477
    56   1 H        0.924     0.085     1.926     2.170
    57   1 H        0.924     0.063     2.164     2.301
    58   1 H        0.925     0.025     2.662     2.551
    59   1 H        0.926     0.030     2.591     2.517
    60   1 H        0.926     0.030     2.583     2.513
    61   1 H        0.926     0.030     2.580     2.512
    62   1 H        0.926     0.033     2.548     2.496
    63   1 H        0.926     0.038     2.478     2.461
    64   1 H        0.926     0.036     2.501     2.473
    65   1 H        0.926     0.052     2.289     2.366
    66   1 H        0.926     0.044     2.398     2.422
    67   1 H        0.924     0.044     2.395     2.420
    68   1 H        0.924     0.042     2.422     2.434
    69   1 H        0.925     0.065     2.139     2.287
    70   1 H        0.926     0.050     2.323     2.383
    71   1 H        0.926     0.034     2.535     2.490
    72   1 H        0.924     0.077     2.007     2.216
    73   1 H        0.804     0.343     0.605     1.222
    74   1 H        0.926     0.051     2.308     2.376
    75   1 H        0.926     0.044     2.395     2.420
    76   1 H        0.924     0.044     2.403     2.424
    77   1 H        0.925     0.066     2.127     2.280
    78   1 H        0.924     0.044     2.392     2.419
    79   1 H        0.926     0.055     2.263     2.353
    80   1 H        0.926     0.051     2.312     2.378

Wiberg/Mayer (AO) data.
largest (>0.10) Wiberg bond orders for each atom

     #   Z sym  total        # sym  WBO       # sym  WBO       # sym  WBO
 ---------------------------------------------------------------------------
     1   6 C    3.991 --     2 C    1.568    10 C    1.288    49 H    0.967
     2   6 C    3.991 --     1 C    1.568     3 C    1.273    50 H    0.968
                             9 C    0.113
     3   6 C    3.990 --     4 C    1.283     2 C    1.273     8 C    1.252
     4   6 C    3.992 --     5 C    1.555     3 C    1.283    51 H    0.968
                             7 C    0.118
     5   6 C    3.990 --     4 C    1.555     6 C    1.322    52 H    0.971
     6   6 C    3.992 --     7 C    1.556     5 C    1.322    53 H    0.971
     7   6 C    3.990 --     6 C    1.556     8 C    1.280    54 H    0.968
                             4 C    0.118
     8   6 C    3.990 --     7 C    1.280     9 C    1.278     3 C    1.252
     9   6 C    3.990 --    10 C    1.528     8 C    1.278    55 H    0.963
                             2 C    0.113
    10   6 C    3.985 --     9 C    1.528     1 C    1.288    11 C    0.993
    11   6 C    3.958 --    10 C    0.993    38 N    0.966    12 C    0.946
                            56 H    0.939
    12   6 C    3.960 --    13 C    0.993    23 N    0.955    57 H    0.953
                            11 C    0.946
    13   6 C    3.986 --    14 C    1.521    22 C    1.299    12 C    0.993
    14   6 C    3.991 --    13 C    1.521    15 C    1.286    58 H    0.966
                            21 C    0.116
    15   6 C    3.991 --    14 C    1.286    16 C    1.277    20 C    1.249
    16   6 C    3.990 --    17 C    1.559    15 C    1.277    59 H    0.968
                            19 C    0.118
    17   6 C    3.992 --    16 C    1.559    18 C    1.320    60 H    0.971
    18   6 C    3.990 --    19 C    1.557    17 C    1.320    61 H    0.971
    19   6 C    3.992 --    18 C    1.557    20 C    1.281    62 H    0.968
                            16 C    0.118
    20   6 C    3.990 --    19 C    1.281    21 C    1.279    15 C    1.249
    21   6 C    3.991 --    22 C    1.560    20 C    1.279    63 H    0.968
                            14 C    0.116
    22   6 C    3.990 --    21 C    1.560    13 C    1.299    64 H    0.967
    23   7 N    3.455 --    24 C    1.198    34 C    0.986    12 C    0.955
                            33 O    0.189
    24   6 C    3.947 --    33 O    1.703    23 N    1.198    25 C    0.963
    25   6 C    3.987 --    26 C    1.416    32 C    1.374    24 C    0.963
    26   6 C    3.990 --    27 C    1.438    25 C    1.416    65 H    0.969
                            31 C    0.106
    27   6 C    3.987 --    26 C    1.438    28 C    1.375    66 H    0.965
                            32 C    0.101
    28   6 C    3.937 --    27 C    1.375    31 C    1.340    29 O    1.072
    29   8 O    2.240 --    28 C    1.072    30 C    0.983
    30   6 C    3.944 --    29 O    0.983    69 H    0.979    68 H    0.977
                            67 H    0.977
    31   6 C    3.988 --    32 C    1.479    28 C    1.340    70 H    0.967
                            26 C    0.106
    32   6 C    3.991 --    31 C    1.479    25 C    1.374    71 H    0.968
                            27 C    0.101
    33   8 O    2.025 --    24 C    1.703    23 N    0.189
    34   6 C    3.974 --    38 N    0.987    23 N    0.986    72 H    0.927
                            35 C    0.912
    35   6 C    3.919 --    37 O    1.793    36 O    1.145    34 C    0.912
    36   8 O    2.212 --    35 C    1.145    73 H    0.856    37 O    0.180
    37   8 O    2.069 --    35 C    1.793    36 O    0.180
    38   7 N    3.431 --    39 C    1.164    34 C    0.987    11 C    0.966
                            48 O    0.177
    39   6 C    3.942 --    48 O    1.704    38 N    1.164    40 C    0.989
    40   6 C    3.987 --    41 C    1.400    47 C    1.366    39 C    0.989
    41   6 C    3.990 --    42 C    1.447    40 C    1.400    74 H    0.968
                            46 C    0.104
    42   6 C    3.987 --    41 C    1.447    43 C    1.367    75 H    0.965
    43   6 C    3.936 --    42 C    1.367    46 C    1.337    44 O    1.079
    44   8 O    2.247 --    43 C    1.079    45 C    0.982
    45   6 C    3.943 --    44 O    0.982    77 H    0.979    78 H    0.976
                            76 H    0.976
    46   6 C    3.988 --    47 C    1.483    43 C    1.337    79 H    0.967
                            41 C    0.104
    47   6 C    3.990 --    46 C    1.483    40 C    1.366    80 H    0.965
    48   8 O    2.027 --    39 C    1.704    38 N    0.177
    49   1 H    0.998 --     1 C    0.967
    50   1 H    0.998 --     2 C    0.968
    51   1 H    0.998 --     4 C    0.968
    52   1 H    0.999 --     5 C    0.971
    53   1 H    0.999 --     6 C    0.971
    54   1 H    0.999 --     7 C    0.968
    55   1 H    0.998 --     9 C    0.963
    56   1 H    0.990 --    11 C    0.939
    57   1 H    0.995 --    12 C    0.953
    58   1 H    0.999 --    14 C    0.966
    59   1 H    0.999 --    16 C    0.968
    60   1 H    0.999 --    17 C    0.971
    61   1 H    0.999 --    18 C    0.971
    62   1 H    0.998 --    19 C    0.968
    63   1 H    0.998 --    21 C    0.968
    64   1 H    0.998 --    22 C    0.967
    65   1 H    0.997 --    26 C    0.969
    66   1 H    0.998 --    27 C    0.965
    67   1 H    0.998 --    30 C    0.977
    68   1 H    0.998 --    30 C    0.977
    69   1 H    0.995 --    30 C    0.979
    70   1 H    0.997 --    31 C    0.967
    71   1 H    0.998 --    32 C    0.968
    72   1 H    0.994 --    34 C    0.927
    73   1 H    0.882 --    36 O    0.856
    74   1 H    0.997 --    41 C    0.968
    75   1 H    0.998 --    42 C    0.965
    76   1 H    0.998 --    45 C    0.976
    77   1 H    0.995 --    45 C    0.979
    78   1 H    0.998 --    45 C    0.976
    79   1 H    0.996 --    46 C    0.967
    80   1 H    0.997 --    47 C    0.965
 ---------------------------------------------------------------------------

molecular dipole:
                 x           y           z       tot (Debye)
 q only:        1.145      -0.420       1.407
   full:        1.275      -0.595       1.780       5.767

           -------------------------------------------------
          | TOTAL ENERGY             -132.271927837379 Eh   |
          | GRADIENT NORM               0.000780678727 Eh/Î± |
          | HOMO-LUMO GAP               2.942670859532 eV   |
           -------------------------------------------------

 * finished run on 2022/03/16 at 23:51:06.944
