   * xtb version 6.3.3 (4ae9cef) compiled by 'conda@95abc7406d43' on 2020-10-14
          program call               : xtb acid_196.xyz --opt --chrg 0 --uhf 0 --gfn 2
          number of atoms            :                    78
          number of electrons        :                   214
          charge                     :                     0
          spin                       :                   0.0

   ID    Z sym.   atoms
    1    6 C      1-14, 16-25, 27, 28, 32-41
    2    7 N      15, 31
    3    8 O      26, 29, 30, 42
    4    1 H      43-78

          :  Hamiltonian                  GFN2-xTB          :
 * total energy  :  -117.5670761 Eh     change       -0.2293930E-08 Eh
 * total energy  :  -117.5798159 Eh     change       -0.1273988E-01 Eh
 * total energy  :  -117.5828852 Eh     change       -0.3069280E-02 Eh
 * total energy  :  -117.5839296 Eh     change       -0.1044426E-02 Eh
 * total energy  :  -117.5845122 Eh     change       -0.5825655E-03 Eh
 * total energy  :  -117.5847665 Eh     change       -0.2542914E-03 Eh
 * total energy  :  -117.5849495 Eh     change       -0.1829530E-03 Eh
 * total energy  :  -117.5851021 Eh     change       -0.1526197E-03 Eh
 * total energy  :  -117.5852461 Eh     change       -0.1440711E-03 Eh
 * total energy  :  -117.5853864 Eh     change       -0.1403024E-03 Eh
 * total energy  :  -117.6228661 Eh     change       -0.8622282E-05 Eh
 * total energy  :  -117.6228739 Eh     change       -0.7814154E-05 Eh
 * total energy  :  -117.6228815 Eh     change       -0.7591999E-05 Eh
 * total energy  :  -117.6228887 Eh     change       -0.7121987E-05 Eh
 * total energy  :  -117.6228968 Eh     change       -0.8113190E-05 Eh
 * total energy  :  -117.6229040 Eh     change       -0.7258427E-05 Eh
 * total energy  :  -117.6228959 Eh     change        0.8114137E-05 Eh
 * total energy  :  -117.6229091 Eh     change       -0.1323146E-04 Eh
 * total energy  :  -117.6229134 Eh     change       -0.4245964E-05 Eh
   *** GEOMETRY OPTIMIZATION CONVERGED AFTER 139 ITERATIONS ***

 final structure:
================
78
 xtb: 6.3.3 (4ae9cef)
C         2.98239944734474   -1.73448767354884    0.91946954377051
C         3.96235430292348   -1.93117399124862    1.87537303615398
C         3.79335140755173   -1.43528515747625    3.15635717266523
C         2.63215367060637   -0.75633599038160    3.48472042004535
C         1.64736413614929   -0.56579003304412    2.53303405505056
C         1.82291931549332   -1.04296529913286    1.23979989844185
C         0.75767951031653   -0.82592240955642    0.19975538177918
C        -0.50532799777341   -1.67778842169742    0.45564005164308
C        -0.49472832943201   -2.93964596531641   -0.36250010013575
C        -0.20428120193018   -4.15762136127761    0.23327653772045
C        -0.16032171322817   -5.31248292730498   -0.52742359471659
C        -0.40698148770381   -5.25877873671280   -1.88821184536705
C        -0.69374913638112   -4.04439850319652   -2.48839824516432
C        -0.73041518648714   -2.88896535874757   -1.73037286585561
N        -1.59176556923965   -0.78296880550014    0.07755088800231
C        -2.89054739348588   -1.22378675123762    0.15175593293332
C        -3.90876146836979   -0.16912837812791   -0.11933614570972
C        -4.88106183735401    0.10224620073890    0.83443510941963
C        -5.82740847664371    1.08087607638608    0.60069156098017
C        -5.84143917360157    1.79314325996042   -0.59338716143648
C        -6.86741485500663    2.86888343437499   -0.84908002033746
C        -8.28258381982061    2.28894191452990   -0.82212106045641
C        -6.72410875405273    4.00202168693609    0.16877394087398
C        -4.88478674439490    1.49075202234763   -1.55458126112422
C        -3.92367455640375    0.52398928569390   -1.32348701659235
O        -3.15963203071665   -2.38487337522163    0.35767142001793
C        -1.19719726810233    0.58019841801126    0.29740495471210
C        -1.66206903842525    1.09089297973110    1.69985758135888
O        -1.38710777199289    2.35366499980303    1.94153338485772
O        -2.23187686956896    0.36892555949000    2.46713152026171
N         0.25299968835438    0.54093508380226    0.19749034396920
C         0.99221751060578    1.65893857032758    0.09517319157809
C         2.45065676075443    1.45500879717831   -0.10532544761817
C         3.32687966553483    1.82094974913072    0.90749483151926
C         4.68370509776293    1.61000810824171    0.75519856036559
C         5.19696297558717    1.05742645705635   -0.41108501518210
C         6.67893350628219    0.82207540042606   -0.55825640398204
C         6.97095410605054   -0.67088990336429   -0.72255074588191
C         7.24655743771024    1.62231335486258   -1.73247065292978
C         4.31306330254395    0.73284709545638   -1.43420559267823
C         2.95351058948744    0.92427815158106   -1.28651658939276
O         0.48061751366191    2.77427262387722    0.19061254587145
H         3.11673179025283   -2.11717919763450   -0.08165391457739
H         4.85978287692140   -2.47418414026555    1.61913015710911
H         4.56245570982992   -1.58211308433728    3.89965892463742
H         2.49054802475706   -0.37592838965388    4.48502129350424
H         0.74035858210456   -0.04043176033896    2.79681566649799
H         1.15856962636694   -1.06961316705377   -0.79241096043719
H        -0.58616128590093   -1.92937347518926    1.52231459923755
H        -0.02064358877113   -4.20090429855349    1.29668257363038
H         0.06031515377205   -6.25793898119860   -0.05463631886877
H        -0.38119356802954   -6.16169431978407   -2.48006954200853
H        -0.89187117444622   -3.99814831910966   -3.54926774559946
H        -0.96170513670601   -1.94229216141247   -2.19792579496966
H        -4.87087151458629   -0.44629443752844    1.76313979676939
H        -6.56485140175204    1.28892468287198    1.36082394896139
H        -6.68775970926233    3.28246847472829   -1.84771437010144
H        -9.00860011037174    3.05803803152527   -1.07633309863578
H        -8.52351953500757    1.90252573417088    0.16439117517571
H        -8.37233911958521    1.47660109946004   -1.53949683009116
H        -7.42687614971507    4.80108578884034   -0.05657642425977
H        -6.92195537895431    3.64444515082593    1.17552336025254
H        -5.71600781128911    4.40912954478859    0.14298412851635
H        -4.88950742632946    2.02050169201976   -2.49706634137204
H        -3.19525249485530    0.29286541307725   -2.08883904938281
H        -1.60943588162332    1.26284703901162   -0.46198521086952
H        -0.78545537622585    2.75201337503570    1.24340061265742
H         2.93961869009617    2.25454774728838    1.81697460493754
H         5.35434833199538    1.88214409146126    1.55708131397493
H         7.17044141446270    1.16630217102273    0.35813589630803
H         8.04409374039495   -0.84025961023178   -0.77155815392202
H         6.52072889428821   -1.05626050078515   -1.63389547753290
H         6.56901474903886   -1.22692255826063    0.12131978546931
H         7.01644867833025    2.67894133908661   -1.61599815858750
H         8.32691470491374    1.50618216293225   -1.77748960762308
H         6.82644264354171    1.28136751150155   -2.67512891330212
H         4.68696936684800    0.32196284343705   -2.35983692921417
H         2.28217842087411    0.67634632036167   -2.09640809565289

          :  Hamiltonian                  GFN2-xTB          :
         :: total energy            -117.622913391185 Eh    ::
         :: gradient norm              0.000644117042 Eh/a0 ::
         :: HOMO-LUMO gap              3.371507742689 eV    ::
         :: SCC energy              -119.464674396155 Eh    ::
         :: -> dispersion             -0.104675918611 Eh    ::
         :: repulsion energy           1.838991981310 Eh    ::

    * Orbital Energies and Occupations

         #    Occupation            Energy/Eh            Energy/eV
      -------------------------------------------------------------
         1        2.0000           -0.7493015             -20.3895
       ...           ...                  ...                  ...
        95        2.0000           -0.4252350             -11.5712
        96        2.0000           -0.4243802             -11.5480
        97        2.0000           -0.4224349             -11.4950
        98        2.0000           -0.4199501             -11.4274
        99        2.0000           -0.4170638             -11.3489
       100        2.0000           -0.4163730             -11.3301
       101        2.0000           -0.4117310             -11.2038
       102        2.0000           -0.4081882             -11.1074
       103        2.0000           -0.4066913             -11.0666
       104        2.0000           -0.4057406             -11.0408
       105        2.0000           -0.3990280             -10.8581
       106        2.0000           -0.3908960             -10.6368
       107        2.0000           -0.3847087             -10.4685 (HOMO)
       108                         -0.2608081              -7.0969 (LUMO)
       109                         -0.2485080              -6.7622
       110                         -0.2441297              -6.6431
       111                         -0.2427860              -6.6065
       112                         -0.2404317              -6.5425
       113                         -0.2392511              -6.5104
       114                         -0.2290349              -6.2324
       115                         -0.2263754              -6.1600
       116                         -0.2253150              -6.1311
       117                         -0.2234726              -6.0810
       118                         -0.1981525              -5.3920
       ...                                ...                  ...
       204                          0.6721337              18.2897
      -------------------------------------------------------------
                  HL-Gap            0.1239006 Eh            3.3715 eV

     #   Z          covCN         q      C6AA      Î±(0)
     1   6 C        2.924    -0.034    28.844     8.807
     2   6 C        2.920    -0.026    28.651     8.778
     3   6 C        2.920    -0.028    28.705     8.786
     4   6 C        2.920    -0.026    28.640     8.776
     5   6 C        2.924    -0.031    28.777     8.797
     6   6 C        2.974    -0.002    28.077     8.692
     7   6 C        3.821     0.037    19.934     6.354
     8   6 C        3.834     0.051    19.703     6.315
     9   6 C        2.974     0.014    27.693     8.632
    10   6 C        2.924    -0.028    28.706     8.786
    11   6 C        2.920    -0.025    28.626     8.774
    12   6 C        2.920    -0.028    28.709     8.787
    13   6 C        2.920    -0.027    28.669     8.780
    14   6 C        2.924    -0.029    28.732     8.790
    15   7 N        2.765    -0.128    23.780     7.243
    16   6 C        2.765     0.281    22.246     7.724
    17   6 C        2.977    -0.024    28.587     8.770
    18   6 C        2.922    -0.020    28.511     8.756
    19   6 C        2.925    -0.030    28.761     8.795
    20   6 C        2.973     0.014    27.687     8.631
    21   6 C        3.855    -0.014    20.789     6.485
    22   6 C        3.756    -0.104    22.534     6.768
    23   6 C        3.756    -0.104    22.538     6.769
    24   6 C        2.925    -0.039    28.968     8.826
    25   6 C        2.921    -0.036    28.884     8.813
    26   8 O        0.859    -0.406    21.805     6.261
    27   6 C        3.764     0.079    19.299     6.262
    28   6 C        2.684     0.348    21.082     7.514
    29   8 O        1.653    -0.374    20.354     6.090
    30   8 O        0.856    -0.371    21.107     6.160
    31   7 N        2.764    -0.108    23.367     7.179
    32   6 C        2.765     0.269    22.458     7.761
    33   6 C        2.979    -0.016    28.414     8.744
    34   6 C        2.923    -0.022    28.562     8.764
    35   6 C        2.926    -0.035    28.865     8.811
    36   6 C        2.973     0.017    27.619     8.620
    37   6 C        3.855    -0.015    20.801     6.487
    38   6 C        3.756    -0.104    22.534     6.768
    39   6 C        3.756    -0.104    22.549     6.771
    40   6 C        2.925    -0.032    28.787     8.799
    41   6 C        2.921    -0.030    28.748     8.792
    42   8 O        0.860    -0.461    22.947     6.423
    43   1 H        0.926     0.032     2.558     2.501
    44   1 H        0.926     0.038     2.482     2.464
    45   1 H        0.926     0.041     2.435     2.440
    46   1 H        0.926     0.044     2.390     2.417
    47   1 H        0.926     0.037     2.484     2.464
    48   1 H        0.924     0.052     2.299     2.371
    49   1 H        0.923     0.057     2.239     2.340
    50   1 H        0.926     0.036     2.501     2.473
    51   1 H        0.926     0.039     2.468     2.457
    52   1 H        0.926     0.037     2.494     2.469
    53   1 H        0.926     0.036     2.506     2.475
    54   1 H        0.926     0.029     2.600     2.521
    55   1 H        0.926     0.057     2.240     2.341
    56   1 H        0.926     0.043     2.406     2.425
    57   1 H        0.924     0.032     2.554     2.499
    58   1 H        0.925     0.038     2.476     2.461
    59   1 H        0.925     0.040     2.445     2.445
    60   1 H        0.925     0.035     2.520     2.483
    61   1 H        0.925     0.038     2.472     2.459
    62   1 H        0.925     0.041     2.438     2.442
    63   1 H        0.925     0.034     2.524     2.484
    64   1 H        0.926     0.033     2.544     2.494
    65   1 H        0.925     0.025     2.654     2.548
    66   1 H        0.923     0.064     2.151     2.294
    67   1 H        0.799     0.366     0.552     1.168
    68   1 H        0.926     0.042     2.417     2.431
    69   1 H        0.926     0.040     2.444     2.445
    70   1 H        0.924     0.036     2.508     2.477
    71   1 H        0.925     0.042     2.428     2.437
    72   1 H        0.925     0.039     2.465     2.455
    73   1 H        0.925     0.034     2.530     2.487
    74   1 H        0.925     0.037     2.492     2.469
    75   1 H        0.925     0.041     2.435     2.440
    76   1 H        0.925     0.040     2.450     2.448
    77   1 H        0.926     0.043     2.408     2.427
    78   1 H        0.926     0.032     2.555     2.499

Wiberg/Mayer (AO) data.
largest (>0.10) Wiberg bond orders for each atom

     #   Z sym  total        # sym  WBO       # sym  WBO       # sym  WBO
 ---------------------------------------------------------------------------
     1   6 C    3.991 --     2 C    1.443     6 C    1.413    43 H    0.968
                             4 C    0.110
     2   6 C    3.992 --     1 C    1.443     3 C    1.440    44 H    0.969
                             5 C    0.111
     3   6 C    3.990 --     2 C    1.440     4 C    1.436    45 H    0.971
                             6 C    0.109
     4   6 C    3.991 --     5 C    1.447     3 C    1.436    46 H    0.970
                             1 C    0.110
     5   6 C    3.991 --     4 C    1.447     6 C    1.409    47 H    0.968
                             2 C    0.111
     6   6 C    3.986 --     1 C    1.413     5 C    1.409     7 C    0.991
                             3 C    0.109
     7   6 C    3.962 --     6 C    0.991    31 N    0.956    48 H    0.952
                             8 C    0.951
     8   6 C    3.966 --     9 C    0.993    15 N    0.960    49 H    0.953
                             7 C    0.951
     9   6 C    3.985 --    10 C    1.415    14 C    1.409     8 C    0.993
                            12 C    0.109
    10   6 C    3.990 --    11 C    1.442     9 C    1.415    50 H    0.969
                            13 C    0.111
    11   6 C    3.992 --    10 C    1.442    12 C    1.441    51 H    0.971
                            14 C    0.112
    12   6 C    3.991 --    11 C    1.441    13 C    1.436    52 H    0.971
                             9 C    0.109
    13   6 C    3.992 --    14 C    1.448    12 C    1.436    53 H    0.971
                            10 C    0.111
    14   6 C    3.991 --    13 C    1.448     9 C    1.409    54 H    0.969
                            11 C    0.112
    15   7 N    3.413 --    16 C    1.159    27 C    1.001     8 C    0.960
                            26 O    0.175
    16   6 C    3.941 --    26 O    1.721    15 N    1.159    17 C    0.971
    17   6 C    3.986 --    25 C    1.400    18 C    1.399    16 C    0.971
                            20 C    0.106
    18   6 C    3.989 --    19 C    1.452    17 C    1.399    55 H    0.968
                            24 C    0.107
    19   6 C    3.991 --    18 C    1.452    20 C    1.408    56 H    0.965
                            25 C    0.109
    20   6 C    3.987 --    24 C    1.410    19 C    1.408    21 C    1.000
                            17 C    0.106
    21   6 C    3.996 --    20 C    1.000    22 C    0.997    23 C    0.997
                            57 H    0.968
    22   6 C    3.996 --    21 C    0.997    60 H    0.987    58 H    0.986
                            59 H    0.985
    23   6 C    3.995 --    21 C    0.997    63 H    0.987    61 H    0.985
                            62 H    0.985
    24   6 C    3.991 --    25 C    1.448    20 C    1.410    64 H    0.967
                            18 C    0.107
    25   6 C    3.991 --    24 C    1.448    17 C    1.400    65 H    0.969
                            19 C    0.109
    26   8 O    2.036 --    16 C    1.721    15 N    0.175
    27   6 C    3.961 --    15 N    1.001    31 N    0.967    66 H    0.939
                            28 C    0.885
    28   6 C    3.930 --    30 O    1.776    29 O    1.207    27 C    0.885
    29   8 O    2.232 --    28 C    1.207    67 H    0.756    30 O    0.183
    30   8 O    2.080 --    28 C    1.776    29 O    0.183
    31   7 N    3.503 --    32 C    1.273    27 C    0.967     7 C    0.956
                            42 O    0.185
    32   6 C    3.941 --    42 O    1.588    31 N    1.273    33 C    0.976
    33   6 C    3.985 --    34 C    1.400    41 C    1.395    32 C    0.976
                            36 C    0.106
    34   6 C    3.990 --    35 C    1.446    33 C    1.400    68 H    0.969
                            40 C    0.108
    35   6 C    3.990 --    34 C    1.446    36 C    1.412    69 H    0.967
                            41 C    0.107
    36   6 C    3.986 --    35 C    1.412    40 C    1.403    37 C    1.000
                            33 C    0.106
    37   6 C    3.995 --    36 C    1.000    39 C    0.997    38 C    0.996
                            70 H    0.968
    38   6 C    3.995 --    37 C    0.996    73 H    0.986    72 H    0.985
                            71 H    0.985
    39   6 C    3.995 --    37 C    0.997    74 H    0.987    75 H    0.985
                            76 H    0.985
    40   6 C    3.991 --    41 C    1.455    36 C    1.403    77 H    0.965
                            34 C    0.108
    41   6 C    3.990 --    40 C    1.455    33 C    1.395    78 H    0.969
                            35 C    0.107
    42   8 O    2.012 --    32 C    1.588    31 N    0.185
    43   1 H    0.999 --     1 C    0.968
    44   1 H    0.998 --     2 C    0.969
    45   1 H    0.998 --     3 C    0.971
    46   1 H    0.998 --     4 C    0.970
    47   1 H    0.999 --     5 C    0.968
    48   1 H    0.997 --     7 C    0.952
    49   1 H    0.996 --     8 C    0.953
    50   1 H    0.999 --    10 C    0.969
    51   1 H    0.998 --    11 C    0.971
    52   1 H    0.998 --    12 C    0.971
    53   1 H    0.998 --    13 C    0.971
    54   1 H    0.999 --    14 C    0.969
    55   1 H    0.996 --    18 C    0.968
    56   1 H    0.998 --    19 C    0.965
    57   1 H    0.999 --    21 C    0.968
    58   1 H    0.998 --    22 C    0.986
    59   1 H    0.998 --    22 C    0.985
    60   1 H    0.999 --    22 C    0.987
    61   1 H    0.998 --    23 C    0.985
    62   1 H    0.998 --    23 C    0.985
    63   1 H    0.999 --    23 C    0.987
    64   1 H    0.998 --    24 C    0.967
    65   1 H    0.999 --    25 C    0.969
    66   1 H    0.995 --    27 C    0.939
    67   1 H    0.866 --    29 O    0.756
    68   1 H    0.998 --    34 C    0.969
    69   1 H    0.998 --    35 C    0.967
    70   1 H    0.998 --    37 C    0.968
    71   1 H    0.997 --    38 C    0.985
    72   1 H    0.998 --    38 C    0.985
    73   1 H    0.999 --    38 C    0.986
    74   1 H    0.999 --    39 C    0.987
    75   1 H    0.997 --    39 C    0.985
    76   1 H    0.998 --    39 C    0.985
    77   1 H    0.997 --    40 C    0.965
    78   1 H    0.999 --    41 C    0.969
 ---------------------------------------------------------------------------

molecular dipole:
                 x           y           z       tot (Debye)
 q only:        2.334      -0.058      -1.096
   full:        2.465       0.172      -1.337       7.140

           -------------------------------------------------
          | TOTAL ENERGY             -117.622913391185 Eh   |
          | GRADIENT NORM               0.000644117042 Eh/Î± |
          | HOMO-LUMO GAP               3.371507742689 eV   |
           -------------------------------------------------

 * finished run on 2022/03/16 at 22:23:26.305
