   * xtb version 6.3.3 (4ae9cef) compiled by 'conda@95abc7406d43' on 2020-10-14
          program call               : xtb acid_341.xyz --opt --chrg 0 --uhf 0 --gfn 2
          number of atoms            :                   120
          number of electrons        :                   310
          charge                     :                     0
          spin                       :                   0.0

   ID    Z sym.   atoms
    1    6 C      1-22, 24-38, 40, 41, 45-59
    2    7 N      23, 44
    3    8 O      39, 42, 43, 60
    4    1 H      61-120

          :  Hamiltonian                  GFN2-xTB          :
 * total energy  :  -168.4224127 Eh     change       -0.4354661E-08 Eh
 * total energy  :  -168.4442457 Eh     change       -0.2183301E-01 Eh
 * total energy  :  -168.4518359 Eh     change       -0.7590244E-02 Eh
 * total energy  :  -168.4544685 Eh     change       -0.2632575E-02 Eh
 * total energy  :  -168.4562322 Eh     change       -0.1763676E-02 Eh
 * total energy  :  -168.4572107 Eh     change       -0.9784970E-03 Eh
 * total energy  :  -168.4579625 Eh     change       -0.7517798E-03 Eh
 * total energy  :  -168.4586220 Eh     change       -0.6595220E-03 Eh
 * total energy  :  -168.4591673 Eh     change       -0.5453175E-03 Eh
 * total energy  :  -168.4595726 Eh     change       -0.4052899E-03 Eh
 * total energy  :  -168.4640275 Eh     change        0.1276535E-05 Eh
 * total energy  :  -168.4640173 Eh     change        0.1026021E-04 Eh
 * total energy  :  -168.4640325 Eh     change       -0.1521213E-04 Eh
 * total energy  :  -168.4640247 Eh     change        0.7768129E-05 Eh
 * total energy  :  -168.4640354 Eh     change       -0.1069961E-04 Eh
 * total energy  :  -168.4640300 Eh     change        0.5428591E-05 Eh
 * total energy  :  -168.4640382 Eh     change       -0.8228847E-05 Eh
 * total energy  :  -168.4640354 Eh     change        0.2856048E-05 Eh
 * total energy  :  -168.4640356 Eh     change       -0.2750765E-06 Eh
   *** GEOMETRY OPTIMIZATION CONVERGED AFTER 68 ITERATIONS ***

 final structure:
================
120
 xtb: 6.3.3 (4ae9cef)
C         0.24758009703590    5.36782948759504   -3.44052572032225
C        -0.32355236625082    6.16581169145071   -2.49193540306079
C        -0.47895822349593    5.68698697420308   -1.18352864589554
C        -0.05905891153004    4.43119154195378   -0.84587094047586
C         0.53131276833635    3.57247749284785   -1.80003044628985
C         0.67920278724038    4.06102117766117   -3.12860289382868
C         1.24013844114789    3.23321873632934   -4.12152433916108
C         1.61919074914278    1.95531138393698   -3.82632695413746
C         1.46147471619890    1.46299074210573   -2.52663619765984
C         0.96082928337474    2.24848859460013   -1.51766347092243
C         0.76445724421553    1.64610196698376   -0.15326977625915
C        -0.52969886114813    0.79643606140380   -0.14916563537338
C        -1.75433043750219    1.65716751047541    0.00958043690293
C        -2.43272467309164    1.96727352538962   -1.14430063839511
C        -3.48507365654288    2.88849929056856   -1.15770581148555
C        -3.84359540499395    3.52908862566672   -0.00771164905782
C        -3.18670060593973    3.23865963030058    1.20461036381528
C        -2.14414500917597    2.27089463846250    1.22953773793037
C        -1.55219577400633    1.97437434988405    2.47563472620804
C        -1.93450703950300    2.61962107086595    3.61871532667484
C        -2.93433984462442    3.60181930510347    3.58186322075547
C        -3.55043659810806    3.89563089572679    2.39942614079495
N        -0.24584064151344   -0.23338449084977    0.83903911862959
C        -1.02136733022003   -1.34108679003973    1.04052972039799
C        -2.41742926544572   -1.19221559019285    0.52652905582945
C        -2.68369568888559   -1.45903037308672   -0.81019593138422
C        -3.97169730779816   -1.33041598836801   -1.30307713466249
C        -4.32553624898247   -1.59537353351009   -2.75879965589393
C        -5.31170371316059   -2.76990074429972   -2.82304747680634
C        -4.97020341018933   -0.33886017282654   -3.36039679807322
C        -3.10182433040829   -1.95258960024635   -3.60704152170895
C        -4.97877966043248   -0.95596484794235   -0.41615579901541
C        -4.74254337188138   -0.71719908507789    0.92859720903215
C        -5.84928930550603   -0.36235027369075    1.90939091503578
C        -5.55205328267056    1.00920772392390    2.52793325163876
C        -7.23009831435929   -0.29697075560891    1.25081076890093
C        -5.89418135309652   -1.43270534506985    3.00890440751578
C        -3.43464392173168   -0.83144573148922    1.39021058114348
O        -0.60018306001742   -2.32510298892342    1.60518888680893
C         1.17835286791892   -0.26915885120573    1.14288799167163
C         1.38785707545106    0.16270522628578    2.61245188540907
O         1.76873247671467    1.44048471647626    2.70783350071430
O         1.21752347146747   -0.54248432125470    3.56554619111704
N         1.76906897178733    0.65651493584113    0.21728963730429
C         3.10504864063190    0.85404674329330   -0.00242992924489
C         3.97742694865281   -0.33300235891016    0.24682130859344
C         4.69892481934089   -0.78965954386476   -0.85286064693357
C         5.52174362166290   -1.89776210619477   -0.74595456596356
C         6.32643490245135   -2.43882149177815   -1.91807370068537
C         5.90266312636504   -3.88849248702071   -2.19366981068686
C         6.11442137314411   -1.62714367174505   -3.19878127100029
C         7.81868572407198   -2.38946711280699   -1.56221037532644
C         5.60748928518989   -2.53449187420235    0.49125600145763
C         4.92244406553466   -2.08556172035401    1.60972645275144
C         4.99859089392506   -2.77518322629707    2.96292137074560
C         5.94995318387565   -3.97519494929004    2.96071134144206
C         3.59593303779276   -3.27479703741197    3.34003212512764
C         5.49661595058766   -1.77478895407261    4.01500066449480
C         4.10901161793657   -0.96454750545291    1.47035751785941
O         3.52511500260966    1.87767799953545   -0.49833283498459
H         0.37529478735693    5.72269689496567   -4.45344349190432
H        -0.65567722526871    7.16332645682121   -2.73910886062912
H        -0.93398008308926    6.32058911701786   -0.43627873551996
H        -0.19671583812521    4.10039459687428    0.17125367714565
H         1.35560493648403    3.62657617457709   -5.12121449914856
H         2.03929891566093    1.31528179087642   -4.58813924459706
H         1.75754497009188    0.44539296780069   -2.31372561340358
H         0.72176971457710    2.41948436870085    0.62015993670631
H        -0.60055577212486    0.31108968055404   -1.13450479602160
H        -2.13559949420286    1.50580154200850   -2.07509412456297
H        -3.99110623680706    3.10076552645031   -2.08735617912458
H        -4.63438116881740    4.26535247286190   -0.00689378251039
H        -0.80399084404006    1.20325808090521    2.52855129852575
H        -1.47145918624172    2.36815871274238    4.56194951216614
H        -3.21920310102252    4.10869086707881    4.49173242011482
H        -4.33771764119066    4.63475962543963    2.35967118350694
H        -1.87111022865901   -1.77622552352304   -1.44367768383941
H        -4.86823271116453   -3.65641320876097   -2.37491536878569
H        -6.23143403398004   -2.54382962800812   -2.29086680718705
H        -5.56230377228944   -2.99379483156779   -3.85776529724542
H        -5.20833691023218   -0.50678123626128   -4.40868252605767
H        -4.28634553441778    0.50412929230134   -3.29102681335446
H        -5.88770775857928   -0.07442524434613   -2.84286182146565
H        -2.62997125316678   -2.86481023707274   -3.25004588574131
H        -2.37150689495956   -1.14618267066324   -3.60166766920858
H        -3.41063634668204   -2.11746704201909   -4.63736622075888
H        -5.98181207487005   -0.86405562993335   -0.79569195955823
H        -5.52085944074603    1.77035833401993    1.75156145069959
H        -4.59636212729471    1.01484762488237    3.04395166734803
H        -6.32777076263636    1.27403655908917    3.24330641021296
H        -7.97599170745498   -0.04459833200315    2.00172279081944
H        -7.50398387139420   -1.25602932953936    0.81727297293466
H        -7.25999058171726    0.46894809586303    0.47901078104538
H        -6.07709490264792   -2.41235364866106    2.57259255528129
H        -4.95815049317654   -1.47523933233905    3.55781318632011
H        -6.69365059303921   -1.21302712863172    3.71342120537604
H        -3.19298824806266   -0.64855196389657    2.42571321524029
H         1.55359731991866   -1.29858100649678    1.04110550924988
H         1.88582160619009    1.70191187859421    3.63565040305175
H         4.59121134145371   -0.24916705773479   -1.77854248367139
H         6.10075942767843   -4.53084577368415   -1.34024784725649
H         6.44930109282686   -4.28153149393658   -3.04825625683171
H         4.83820498551595   -3.93390321884245   -2.41448077961231
H         5.07324100974579   -1.65474392831466   -3.51176481097269
H         6.41713501031279   -0.59213567048522   -3.06032629880935
H         6.71722628677361   -2.05013712946551   -4.00003055667224
H         8.11685264222547   -1.36676717851555   -1.34162849257286
H         8.41496944054283   -2.75104936230533   -2.39729875404426
H         8.04137579138048   -3.00430295349894   -0.69456407279330
H         6.23853368376421   -3.40242531060932    0.57654904655305
H         6.96388834512933   -3.67241222845804    2.70787189746114
H         5.61677571033237   -4.73806506253950    2.26083944452419
H         5.97093840818178   -4.42071894272830    3.95308815109482
H         3.21684001793483   -3.94926254223880    2.57512019304407
H         3.63467249393137   -3.81424915851837    4.28376606250077
H         2.88785830694070   -2.45814545831617    3.45001747664781
H         6.46725056220945   -1.37505062952392    3.72769055979664
H         4.80532829937635   -0.94525250527846    4.13222385443218
H         5.59637083306058   -2.26780101381019    4.97948428763226
H         3.59311836689538   -0.57189556367035    2.33086470245091

          :  Hamiltonian                  GFN2-xTB          :
         :: total energy            -168.464035629154 Eh    ::
         :: gradient norm              0.000948586861 Eh/a0 ::
         :: HOMO-LUMO gap              2.773354093653 eV    ::
         :: SCC energy              -171.166955636872 Eh    ::
         :: -> dispersion             -0.170982924226 Eh    ::
         :: repulsion energy           2.694647176186 Eh    ::

    * Orbital Energies and Occupations

         #    Occupation            Energy/Eh            Energy/eV
      -------------------------------------------------------------
         1        2.0000           -0.7683578             -20.9081
       ...           ...                  ...                  ...
       143        2.0000           -0.4108219             -11.1790
       144        2.0000           -0.4072857             -11.0828
       145        2.0000           -0.4029901             -10.9659
       146        2.0000           -0.4007141             -10.9040
       147        2.0000           -0.3990948             -10.8599
       148        2.0000           -0.3966867             -10.7944
       149        2.0000           -0.3930543             -10.6956
       150        2.0000           -0.3925448             -10.6817
       151        2.0000           -0.3897420             -10.6054
       152        2.0000           -0.3890843             -10.5875
       153        2.0000           -0.3874691             -10.5436
       154        2.0000           -0.3855504             -10.4914
       155        2.0000           -0.3744684             -10.1898 (HOMO)
       156                         -0.2725495              -7.4164 (LUMO)
       157                         -0.2611298              -7.1057
       158                         -0.2584885              -7.0338
       159                         -0.2395027              -6.5172
       160                         -0.2377806              -6.4703
       161                         -0.2291812              -6.2363
       162                         -0.2267572              -6.1704
       163                         -0.2213489              -6.0232
       164                         -0.2189308              -5.9574
       165                         -0.2128659              -5.7924
       166                         -0.2024285              -5.5084
       ...                                ...                  ...
       300                          0.6947541              18.9052
      -------------------------------------------------------------
                  HL-Gap            0.1019189 Eh            2.7734 eV

     #   Z          covCN         q      C6AA      Î±(0)
     1   6 C        2.921    -0.034    28.847     8.808
     2   6 C        2.915    -0.030    28.742     8.791
     3   6 C        2.917    -0.029    28.730     8.790
     4   6 C        2.917    -0.034    28.840     8.806
     5   6 C        2.984     0.011    27.763     8.643
     6   6 C        2.989     0.016    27.636     8.623
     7   6 C        2.921    -0.035    28.883     8.813
     8   6 C        2.914    -0.028    28.706     8.786
     9   6 C        2.923    -0.027    28.664     8.780
    10   6 C        2.969     0.009    27.821     8.652
    11   6 C        3.839     0.050    19.705     6.315
    12   6 C        3.833     0.045    19.799     6.331
    13   6 C        2.965    -0.005    28.136     8.701
    14   6 C        2.928    -0.033    28.816     8.803
    15   6 C        2.914    -0.028    28.700     8.785
    16   6 C        2.921    -0.035    28.881     8.813
    17   6 C        2.989     0.016    27.642     8.624
    18   6 C        2.984     0.012    27.736     8.639
    19   6 C        2.918    -0.035    28.871     8.811
    20   6 C        2.917    -0.029    28.729     8.789
    21   6 C        2.915    -0.029    28.716     8.787
    22   6 C        2.921    -0.032    28.805     8.801
    23   7 N        2.762    -0.132    23.869     7.256
    24   6 C        2.764     0.274    22.368     7.745
    25   6 C        2.976    -0.019    28.468     8.752
    26   6 C        2.928    -0.042    29.047     8.839
    27   6 C        2.973     0.009    27.811     8.650
    28   6 C        3.903     0.026    20.082     6.370
    29   6 C        3.762    -0.106    22.575     6.773
    30   6 C        3.762    -0.106    22.563     6.771
    31   6 C        3.761    -0.106    22.567     6.772
    32   6 C        2.934    -0.046    29.151     8.855
    33   6 C        2.973     0.010    27.789     8.647
    34   6 C        3.903     0.026    20.084     6.370
    35   6 C        3.762    -0.104    22.525     6.765
    36   6 C        3.761    -0.107    22.597     6.776
    37   6 C        3.762    -0.107    22.584     6.774
    38   6 C        2.930    -0.033    28.823     8.805
    39   8 O        0.859    -0.410    21.883     6.272
    40   6 C        3.774     0.097    19.008     6.212
    41   6 C        2.688     0.354    20.991     7.498
    42   8 O        1.659    -0.368    20.232     6.072
    43   8 O        0.856    -0.380    21.289     6.186
    44   7 N        2.764    -0.124    23.701     7.231
    45   6 C        2.763     0.273    22.383     7.748
    46   6 C        2.971    -0.026    28.641     8.779
    47   6 C        2.934    -0.037    28.909     8.818
    48   6 C        2.971     0.010    27.786     8.646
    49   6 C        3.903     0.026    20.081     6.370
    50   6 C        3.761    -0.106    22.567     6.772
    51   6 C        3.761    -0.108    22.618     6.780
    52   6 C        3.762    -0.106    22.573     6.773
    53   6 C        2.933    -0.044    29.098     8.847
    54   6 C        2.971     0.011    27.757     8.642
    55   6 C        3.903     0.026    20.084     6.370
    56   6 C        3.761    -0.107    22.595     6.776
    57   6 C        3.762    -0.109    22.638     6.782
    58   6 C        3.761    -0.104    22.534     6.767
    59   6 C        2.929    -0.041    29.030     8.836
    60   8 O        0.859    -0.418    22.052     6.296
    61   1 H        0.926     0.035     2.519     2.482
    62   1 H        0.926     0.033     2.550     2.497
    63   1 H        0.926     0.030     2.581     2.512
    64   1 H        0.926     0.026     2.649     2.545
    65   1 H        0.926     0.036     2.500     2.473
    66   1 H        0.926     0.035     2.515     2.480
    67   1 H        0.926     0.030     2.585     2.514
    68   1 H        0.924     0.057     2.233     2.337
    69   1 H        0.923     0.042     2.424     2.435
    70   1 H        0.926     0.027     2.634     2.538
    71   1 H        0.926     0.036     2.497     2.471
    72   1 H        0.926     0.037     2.484     2.465
    73   1 H        0.926     0.033     2.548     2.496
    74   1 H        0.926     0.032     2.556     2.500
    75   1 H        0.926     0.035     2.522     2.483
    76   1 H        0.926     0.035     2.512     2.478
    77   1 H        0.926     0.033     2.545     2.495
    78   1 H        0.925     0.037     2.493     2.469
    79   1 H        0.925     0.037     2.484     2.465
    80   1 H        0.925     0.039     2.466     2.456
    81   1 H        0.925     0.039     2.467     2.456
    82   1 H        0.925     0.033     2.546     2.495
    83   1 H        0.925     0.037     2.492     2.469
    84   1 H        0.925     0.038     2.477     2.461
    85   1 H        0.925     0.031     2.574     2.509
    86   1 H        0.925     0.038     2.480     2.463
    87   1 H        0.926     0.043     2.408     2.427
    88   1 H        0.925     0.031     2.569     2.506
    89   1 H        0.925     0.034     2.529     2.487
    90   1 H        0.925     0.038     2.472     2.459
    91   1 H        0.925     0.038     2.475     2.460
    92   1 H        0.925     0.037     2.491     2.468
    93   1 H        0.925     0.034     2.525     2.485
    94   1 H        0.925     0.037     2.494     2.470
    95   1 H        0.925     0.041     2.440     2.443
    96   1 H        0.925     0.038     2.470     2.458
    97   1 H        0.926     0.034     2.527     2.486
    98   1 H        0.923     0.086     1.915     2.164
    99   1 H        0.804     0.338     0.616     1.233
   100   1 H        0.926     0.048     2.342     2.393
   101   1 H        0.925     0.037     2.486     2.466
   102   1 H        0.925     0.038     2.472     2.459
   103   1 H        0.925     0.034     2.536     2.490
   104   1 H        0.925     0.035     2.519     2.482
   105   1 H        0.925     0.040     2.445     2.445
   106   1 H        0.925     0.037     2.492     2.469
   107   1 H        0.925     0.036     2.498     2.472
   108   1 H        0.925     0.038     2.474     2.460
   109   1 H        0.925     0.037     2.493     2.469
   110   1 H        0.926     0.044     2.390     2.417
   111   1 H        0.925     0.034     2.527     2.486
   112   1 H        0.925     0.036     2.501     2.473
   113   1 H        0.925     0.038     2.476     2.461
   114   1 H        0.925     0.036     2.505     2.475
   115   1 H        0.925     0.041     2.440     2.443
   116   1 H        0.925     0.049     2.333     2.389
   117   1 H        0.925     0.033     2.544     2.494
   118   1 H        0.925     0.034     2.526     2.485
   119   1 H        0.925     0.039     2.457     2.451
   120   1 H        0.926     0.022     2.696     2.568

Wiberg/Mayer (AO) data.
largest (>0.10) Wiberg bond orders for each atom

     #   Z sym  total        # sym  WBO       # sym  WBO       # sym  WBO
 ---------------------------------------------------------------------------
     1   6 C    3.991 --     2 C    1.559     6 C    1.278    61 H    0.968
                             4 C    0.118
     2   6 C    3.992 --     1 C    1.559     3 C    1.321    62 H    0.971
     3   6 C    3.991 --     4 C    1.556     2 C    1.321    63 H    0.971
     4   6 C    3.992 --     3 C    1.556     5 C    1.282    64 H    0.961
                             1 C    0.118
     5   6 C    3.989 --     4 C    1.282    10 C    1.256     6 C    1.251
     6   6 C    3.990 --     7 C    1.282     1 C    1.278     5 C    1.251
     7   6 C    3.990 --     8 C    1.548     6 C    1.282    65 H    0.968
                            10 C    0.115
     8   6 C    3.992 --     7 C    1.548     9 C    1.332    66 H    0.970
     9   6 C    3.991 --    10 C    1.517     8 C    1.332    67 H    0.967
    10   6 C    3.984 --     9 C    1.517     5 C    1.256    11 C    0.997
                             7 C    0.115
    11   6 C    3.965 --    10 C    0.997    44 N    0.959    68 H    0.946
                            12 C    0.940
    12   6 C    3.965 --    13 C    0.996    23 N    0.959    69 H    0.950
                            11 C    0.940
    13   6 C    3.984 --    14 C    1.515    18 C    1.253    12 C    0.996
                            16 C    0.115
    14   6 C    3.990 --    13 C    1.515    15 C    1.330    70 H    0.966
    15   6 C    3.991 --    16 C    1.550    14 C    1.330    71 H    0.970
    16   6 C    3.990 --    15 C    1.550    17 C    1.279    72 H    0.968
                            13 C    0.115
    17   6 C    3.990 --    22 C    1.279    16 C    1.279    18 C    1.251
    18   6 C    3.989 --    19 C    1.284    13 C    1.253    17 C    1.251
    19   6 C    3.992 --    20 C    1.553    18 C    1.284    73 H    0.959
                            22 C    0.118
    20   6 C    3.992 --    19 C    1.553    21 C    1.322    74 H    0.971
    21   6 C    3.992 --    22 C    1.557    20 C    1.322    75 H    0.971
    22   6 C    3.991 --    21 C    1.557    17 C    1.279    76 H    0.968
                            19 C    0.118
    23   7 N    3.433 --    24 C    1.182    40 C    0.965    12 C    0.959
                            39 O    0.183
    24   6 C    3.939 --    39 O    1.718    23 N    1.182    25 C    0.956
    25   6 C    3.986 --    38 C    1.425    26 C    1.391    24 C    0.956
                            32 C    0.105
    26   6 C    3.989 --    27 C    1.427    25 C    1.391    77 H    0.964
                            33 C    0.105
    27   6 C    3.985 --    26 C    1.427    32 C    1.399    28 C    0.983
                            38 C    0.107
    28   6 C    3.990 --    31 C    1.000    30 C    0.988    29 C    0.987
                            27 C    0.983
    29   6 C    3.995 --    78 H    0.987    28 C    0.987    80 H    0.984
                            79 H    0.984
    30   6 C    3.996 --    28 C    0.988    82 H    0.986    81 H    0.984
                            83 H    0.983
    31   6 C    3.996 --    28 C    1.000    85 H    0.985    86 H    0.984
                            84 H    0.984
    32   6 C    3.990 --    33 C    1.433    27 C    1.399    87 H    0.958
                            25 C    0.105
    33   6 C    3.985 --    32 C    1.433    38 C    1.394    34 C    0.983
                            26 C    0.105
    34   6 C    3.990 --    36 C    1.000    35 C    0.987    37 C    0.987
                            33 C    0.983
    35   6 C    3.996 --    34 C    0.987    88 H    0.985    90 H    0.984
                            89 H    0.983
    36   6 C    3.996 --    34 C    1.000    93 H    0.985    92 H    0.985
                            91 H    0.984
    37   6 C    3.995 --    34 C    0.987    94 H    0.987    96 H    0.984
                            95 H    0.983
    38   6 C    3.990 --    25 C    1.425    33 C    1.394    97 H    0.964
                            27 C    0.107
    39   8 O    2.034 --    24 C    1.718    23 N    0.183
    40   6 C    3.967 --    44 N    0.998    23 N    0.965    98 H    0.937
                            41 C    0.909
    41   6 C    3.916 --    43 O    1.782    42 O    1.139    40 C    0.909
    42   8 O    2.211 --    41 C    1.139    99 H    0.859    43 O    0.180
    43   8 O    2.070 --    41 C    1.782    42 O    0.180
    44   7 N    3.436 --    45 C    1.177    40 C    0.998    11 C    0.959
                            60 O    0.180
    45   6 C    3.940 --    60 O    1.703    44 N    1.177    46 C    0.972
    46   6 C    3.985 --    59 C    1.422    47 C    1.381    45 C    0.972
                            53 C    0.103
    47   6 C    3.987 --    48 C    1.431    46 C    1.381   100 H    0.963
                            54 C    0.104
    48   6 C    3.985 --    47 C    1.431    53 C    1.397    49 C    0.983
                            59 C    0.105
    49   6 C    3.990 --    51 C    1.000    50 C    0.987    52 C    0.987
                            48 C    0.983
    50   6 C    3.996 --    49 C    0.987   103 H    0.987   102 H    0.984
                           101 H    0.983
    51   6 C    3.996 --    49 C    1.000   104 H    0.985   106 H    0.984
                           105 H    0.984
    52   6 C    3.995 --    49 C    0.987   107 H    0.987   108 H    0.984
                           109 H    0.983
    53   6 C    3.990 --    54 C    1.432    48 C    1.397   110 H    0.958
                            46 C    0.103
    54   6 C    3.985 --    53 C    1.432    59 C    1.394    55 C    0.984
                            47 C    0.104
    55   6 C    3.990 --    56 C    1.000    58 C    0.987    57 C    0.986
                            54 C    0.984
    56   6 C    3.996 --    55 C    1.000   111 H    0.985   112 H    0.984
                           113 H    0.984
    57   6 C    3.994 --   114 H    0.986    55 C    0.986   115 H    0.984
                           116 H    0.980
    58   6 C    3.996 --    55 C    0.987   117 H    0.987   119 H    0.984
                           118 H    0.983
    59   6 C    3.990 --    46 C    1.422    54 C    1.394   120 H    0.955
                            48 C    0.105
    60   8 O    2.025 --    45 C    1.703    44 N    0.180
    61   1 H    0.998 --     1 C    0.968
    62   1 H    0.998 --     2 C    0.971
    63   1 H    0.999 --     3 C    0.971
    64   1 H    0.999 --     4 C    0.961
    65   1 H    0.998 --     7 C    0.968
    66   1 H    0.998 --     8 C    0.970
    67   1 H    0.999 --     9 C    0.967
    68   1 H    0.996 --    11 C    0.946
    69   1 H    0.998 --    12 C    0.950
    70   1 H    0.999 --    14 C    0.966
    71   1 H    0.998 --    15 C    0.970
    72   1 H    0.997 --    16 C    0.968
    73   1 H    0.998 --    19 C    0.959
    74   1 H    0.999 --    20 C    0.971
    75   1 H    0.998 --    21 C    0.971
    76   1 H    0.998 --    22 C    0.968
    77   1 H    0.998 --    26 C    0.964
    78   1 H    0.999 --    29 C    0.987
    79   1 H    0.999 --    29 C    0.984
    80   1 H    0.998 --    29 C    0.984
    81   1 H    0.998 --    30 C    0.984
    82   1 H    0.999 --    30 C    0.986
    83   1 H    0.999 --    30 C    0.983
    84   1 H    0.999 --    31 C    0.984
    85   1 H    0.999 --    31 C    0.985
    86   1 H    0.998 --    31 C    0.984
    87   1 H    0.998 --    32 C    0.958
    88   1 H    0.999 --    35 C    0.985
    89   1 H    0.999 --    35 C    0.983
    90   1 H    0.998 --    35 C    0.984
    91   1 H    0.998 --    36 C    0.984
    92   1 H    0.999 --    36 C    0.985
    93   1 H    0.999 --    36 C    0.985
    94   1 H    0.999 --    37 C    0.987
    95   1 H    0.998 --    37 C    0.983
    96   1 H    0.998 --    37 C    0.984
    97   1 H    0.998 --    38 C    0.964
    98   1 H    0.992 --    40 C    0.937
    99   1 H    0.885 --    42 O    0.859
   100   1 H    0.997 --    47 C    0.963
   101   1 H    0.999 --    50 C    0.983
   102   1 H    0.998 --    50 C    0.984
   103   1 H    0.999 --    50 C    0.987
   104   1 H    0.999 --    51 C    0.985
   105   1 H    0.998 --    51 C    0.984
   106   1 H    0.998 --    51 C    0.984
   107   1 H    0.999 --    52 C    0.987
   108   1 H    0.998 --    52 C    0.984
   109   1 H    0.999 --    52 C    0.983
   110   1 H    0.997 --    53 C    0.958
   111   1 H    0.999 --    56 C    0.985
   112   1 H    0.999 --    56 C    0.984
   113   1 H    0.998 --    56 C    0.984
   114   1 H    0.999 --    57 C    0.986
   115   1 H    0.997 --    57 C    0.984
   116   1 H    0.998 --    57 C    0.980
   117   1 H    0.999 --    58 C    0.987
   118   1 H    0.999 --    58 C    0.983
   119   1 H    0.998 --    58 C    0.984
   120   1 H    0.999 --    59 C    0.955
 ---------------------------------------------------------------------------

molecular dipole:
                 x           y           z       tot (Debye)
 q only:       -1.201       0.706      -0.828
   full:       -1.143       0.729      -0.629       3.799

           -------------------------------------------------
          | TOTAL ENERGY             -168.464035629154 Eh   |
          | GRADIENT NORM               0.000948586861 Eh/Î± |
          | HOMO-LUMO GAP               2.773354093653 eV   |
           -------------------------------------------------

 * finished run on 2022/03/17 at 00:03:49.735
