   * xtb version 6.3.3 (4ae9cef) compiled by 'conda@95abc7406d43' on 2020-10-14
          program call               : xtb acid_359.xyz --opt --chrg 0 --uhf 0 --gfn 2
          number of atoms            :                    84
          number of electrons        :                   238
          charge                     :                     0
          spin                       :                   0.0

   ID    Z sym.   atoms
    1    6 C      1-22, 24-32, 34, 35, 39-47
    2    7 N      23, 38
    3    8 O      33, 36, 37, 48
    4    1 H      49-84

          :  Hamiltonian                  GFN2-xTB          :
 * total energy  :  -130.4494664 Eh     change       -0.9218923E-08 Eh
 * total energy  :  -130.4654313 Eh     change       -0.1596487E-01 Eh
 * total energy  :  -130.4700939 Eh     change       -0.4662600E-02 Eh
 * total energy  :  -130.4712375 Eh     change       -0.1143607E-02 Eh
 * total energy  :  -130.4719178 Eh     change       -0.6802940E-03 Eh
 * total energy  :  -130.4722190 Eh     change       -0.3011393E-03 Eh
 * total energy  :  -130.4725321 Eh     change       -0.3131208E-03 Eh
 * total energy  :  -130.4728705 Eh     change       -0.3384345E-03 Eh
 * total energy  :  -130.4731755 Eh     change       -0.3049439E-03 Eh
 * total energy  :  -130.4733981 Eh     change       -0.2226655E-03 Eh
 * total energy  :  -130.4750161 Eh     change       -0.3213520E-04 Eh
 * total energy  :  -130.4750423 Eh     change       -0.2612507E-04 Eh
 * total energy  :  -130.4750542 Eh     change       -0.1197839E-04 Eh
 * total energy  :  -130.4750669 Eh     change       -0.1265141E-04 Eh
 * total energy  :  -130.4750787 Eh     change       -0.1185943E-04 Eh
 * total energy  :  -130.4750936 Eh     change       -0.1484012E-04 Eh
 * total energy  :  -130.4751034 Eh     change       -0.9776395E-05 Eh
 * total energy  :  -130.4751110 Eh     change       -0.7679397E-05 Eh
 * total energy  :  -130.4751160 Eh     change       -0.4916484E-05 Eh
   *** GEOMETRY OPTIMIZATION CONVERGED AFTER 44 ITERATIONS ***

 final structure:
================
84
 xtb: 6.3.3 (4ae9cef)
C         0.05859756541290    1.60331111413534    2.91249455924091
C        -0.00390051092499    1.95151019625014    4.23026550718665
C        -0.79164255217456    3.04252903881460    4.65276135543297
C        -0.88888460317873    3.42142447705469    6.00725693269342
C        -1.67143556264672    4.47763583798447    6.38126714144097
C        -2.39083120834409    5.20281976645015    5.41835180999164
C        -2.31383918504280    4.86230429690632    4.09709265624858
C        -1.51612130690023    3.77707255800464    3.67854028382826
C        -1.42576406182979    3.39445339763120    2.32510395073358
C        -0.65716630405814    2.32934186144447    1.94012510973775
C        -0.58439992459037    1.91045041777709    0.49263806980550
C         0.84026102435955    2.01024192711797   -0.08381312295515
C         0.94910032750650    2.42965430743236   -1.53112567461599
C        -0.08476364564193    2.34739640337729   -2.42631266173963
C         0.10973920109480    2.65001036276857   -3.79109015325080
C        -0.94124861873157    2.55639274656018   -4.72696095262691
C        -0.72588267639085    2.84176568704841   -6.04637964404801
C         0.54720764207129    3.23452668510122   -6.48890327697427
C         1.58573008656266    3.33361597150208   -5.60526643412747
C         1.39713278349564    3.04365585396276   -4.23844504311506
C         2.44446294819919    3.12302608014331   -3.29579356658483
C         2.22742416683039    2.82231327729988   -1.98300258299025
N         1.32855783232308    0.63644005616495    0.03005636590844
C         2.54893675133262    0.31362158935095    0.53316399159584
C         2.74690031298121   -1.15786220252478    0.73182688469541
C         2.47865573042100   -1.73461172019503    1.96715080304140
C         2.65004899465103   -3.09717993394545    2.13751507417742
C         3.09387291324739   -3.87873296813240    1.08627649693760
C         3.38346377126895   -3.31055030250609   -0.14846026281451
C         3.92558260862139   -4.15080593922437   -1.26835972803348
C         5.44539638226999   -4.27984167704871   -1.14716704874619
C         3.20652609869442   -1.94391991019838   -0.31510234109351
O         3.38479902301889    1.15280466267383    0.78672355786191
C         0.21826674684862   -0.24273869835720   -0.18056807325360
C        -0.01350694921271   -0.54629130086837   -1.67729644520255
O         1.13328703757687   -0.70423761064086   -2.33127708582934
O        -1.09424306980007   -0.67238664060942   -2.17797874006280
N        -0.89813531918717    0.48673258388070    0.36996450219821
C        -2.15411529963443    0.01294954664014    0.59562107794403
C        -2.26169992955623   -1.47638878899612    0.59345774120904
C        -3.11900721398071   -2.11037370509710   -0.29171854006123
C        -3.23922919915816   -3.49381586395956   -0.29390274866051
C        -4.19693513592125   -4.16831241595488   -1.23293242010670
C        -5.59368600078527   -4.22926681742025   -0.61134034903941
C        -2.49939200386714   -4.23215787292286    0.62068018739077
C        -1.66238373826725   -3.60305502940789    1.52628790754682
C        -1.54033772328996   -2.22593063619922    1.51762961104372
O        -3.08322647513752    0.75624602165361    0.82691848788688
H         0.66175959683414    0.76285967706992    2.60208183930454
H         0.54816510906720    1.39155131102260    4.97193799148201
H        -0.33421347310961    2.85915530277729    6.74514866292495
H        -1.74392642472586    4.76163083162057    7.42103519385194
H        -3.00607708443925    6.03319906929756    5.73283788400376
H        -2.86632899371307    5.41662916498232    3.35214541240048
H        -1.98858284089745    3.95166909304353    1.59024921189933
H        -1.30301997371703    2.50501143058009   -0.07887500267042
H         1.48295571267939    2.64542542450547    0.53432692959704
H        -1.07525849901619    2.04160126254360   -2.12289756777790
H        -1.91764126586328    2.25039414616371   -4.37993781841919
H        -1.53424697217920    2.76787492842449   -6.75891353127229
H         0.69833741515802    3.45774370787158   -7.53495539740515
H         2.56774624335833    3.63550813301889   -5.94074299560571
H         3.42596973651780    3.42323238759666   -3.63336037851795
H         3.03488873525665    2.86734142206346   -1.26758815477555
H         2.14215618614457   -1.12099340591875    2.79029204942392
H         2.43630648668458   -3.54934696967631    3.09467164592422
H         3.22212748771530   -4.94262319758552    1.22496925661297
H         3.67818993615271   -3.69186566879943   -2.22743417136920
H         3.47560461149526   -5.14534099214120   -1.23716487200404
H         5.90989795555360   -3.29688121494055   -1.17349013946983
H         5.71146992703862   -4.75826108174184   -0.20745609083816
H         5.84309635721065   -4.87549248900868   -1.96545262099262
H         3.42283294099880   -1.48155209949268   -1.26671700114840
H         0.37280020175436   -1.21429690943611    0.30922806926773
H         0.97087944710807   -0.89419423477863   -3.27013328527955
H        -3.68198985987336   -1.51430310528855   -0.99329823139338
H        -3.85350264535136   -5.18179599774742   -1.45056765600277
H        -4.24398263973480   -3.61199025687914   -2.17069499876957
H        -5.57035859618934   -4.79592425066978    0.31691046668936
H        -6.29344844522168   -4.70696090273596   -1.29314987109751
H        -5.95108011459421   -3.22650708375303   -0.39009462072787
H        -2.58451710819354   -5.30960960306933    0.62906362934914
H        -1.10284224991399   -4.18779795061162    2.24181488796556
H        -0.90633863051983   -1.73087256921398    2.24023610501620

          :  Hamiltonian                  GFN2-xTB          :
         :: total energy            -130.475115957599 Eh    ::
         :: gradient norm              0.000317207292 Eh/a0 ::
         :: HOMO-LUMO gap              2.991505500282 eV    ::
         :: SCC energy              -132.608071744510 Eh    ::
         :: -> dispersion             -0.115461941164 Eh    ::
         :: repulsion energy           2.129740001637 Eh    ::

    * Orbital Energies and Occupations

         #    Occupation            Energy/Eh            Energy/eV
      -------------------------------------------------------------
         1        2.0000           -0.7746513             -21.0793
       ...           ...                  ...                  ...
       107        2.0000           -0.4162758             -11.3274
       108        2.0000           -0.4140490             -11.2668
       109        2.0000           -0.4095507             -11.1444
       110        2.0000           -0.4081599             -11.1066
       111        2.0000           -0.4079653             -11.1013
       112        2.0000           -0.4058931             -11.0449
       113        2.0000           -0.4010058             -10.9119
       114        2.0000           -0.4000036             -10.8847
       115        2.0000           -0.3967365             -10.7958
       116        2.0000           -0.3920527             -10.6683
       117        2.0000           -0.3881690             -10.5626
       118        2.0000           -0.3851015             -10.4791
       119        2.0000           -0.3773300             -10.2677 (HOMO)
       120                         -0.2673942              -7.2762 (LUMO)
       121                         -0.2624186              -7.1408
       122                         -0.2589221              -7.0456
       123                         -0.2406547              -6.5485
       124                         -0.2386722              -6.4946
       125                         -0.2354847              -6.4079
       126                         -0.2347756              -6.3886
       127                         -0.2291944              -6.2367
       128                         -0.2266167              -6.1666
       129                         -0.2195266              -5.9736
       130                         -0.1977354              -5.3807
       ...                                ...                  ...
       228                          0.6982917              19.0015
      -------------------------------------------------------------
                  HL-Gap            0.1099358 Eh            2.9915 eV

     #   Z          covCN         q      C6AA      Î±(0)
     1   6 C        2.920    -0.032    28.788     8.799
     2   6 C        2.917    -0.034    28.839     8.806
     3   6 C        2.988     0.014    27.696     8.633
     4   6 C        2.918    -0.034    28.843     8.807
     5   6 C        2.916    -0.029    28.726     8.789
     6   6 C        2.916    -0.029    28.718     8.788
     7   6 C        2.919    -0.033    28.813     8.802
     8   6 C        2.987     0.017    27.623     8.621
     9   6 C        2.923    -0.035    28.867     8.811
    10   6 C        2.970     0.004    27.934     8.669
    11   6 C        3.826     0.040    19.882     6.345
    12   6 C        3.841     0.036    19.943     6.353
    13   6 C        2.969    -0.002    28.078     8.692
    14   6 C        2.920    -0.046    29.138     8.852
    15   6 C        2.987     0.012    27.742     8.640
    16   6 C        2.919    -0.035    28.867     8.811
    17   6 C        2.916    -0.030    28.743     8.791
    18   6 C        2.916    -0.030    28.744     8.792
    19   6 C        2.918    -0.035    28.882     8.813
    20   6 C        2.987     0.011    27.763     8.643
    21   6 C        2.916    -0.035    28.862     8.810
    22   6 C        2.921    -0.035    28.880     8.813
    23   7 N        2.776    -0.109    23.379     7.181
    24   6 C        2.759     0.275    22.353     7.742
    25   6 C        2.977    -0.020    28.494     8.756
    26   6 C        2.923    -0.032    28.796     8.800
    27   6 C        2.918    -0.029    28.734     8.790
    28   6 C        2.925    -0.037    28.921     8.819
    29   6 C        2.971     0.017    27.619     8.620
    30   6 C        3.807    -0.059    21.622     6.619
    31   6 C        3.754    -0.099    22.450     6.756
    32   6 C        2.928    -0.037    28.925     8.820
    33   8 O        0.859    -0.417    22.030     6.293
    34   6 C        3.774     0.091    19.108     6.228
    35   6 C        2.687     0.350    21.063     7.511
    36   8 O        1.659    -0.362    20.128     6.056
    37   8 O        0.856    -0.384    21.373     6.198
    38   7 N        2.771    -0.121    23.630     7.220
    39   6 C        2.761     0.276    22.333     7.739
    40   6 C        2.976    -0.018    28.457     8.750
    41   6 C        2.928    -0.026    28.643     8.777
    42   6 C        2.971     0.019    27.592     8.616
    43   6 C        3.807    -0.059    21.628     6.620
    44   6 C        3.754    -0.099    22.450     6.756
    45   6 C        2.925    -0.038    28.939     8.822
    46   6 C        2.918    -0.032    28.796     8.800
    47   6 C        2.923    -0.039    28.978     8.828
    48   8 O        0.859    -0.418    22.044     6.295
    49   1 H        0.926     0.023     2.682     2.561
    50   1 H        0.926     0.034     2.525     2.485
    51   1 H        0.926     0.032     2.552     2.498
    52   1 H        0.926     0.032     2.565     2.505
    53   1 H        0.926     0.032     2.555     2.500
    54   1 H        0.926     0.036     2.509     2.477
    55   1 H        0.926     0.041     2.440     2.442
    56   1 H        0.924     0.066     2.125     2.279
    57   1 H        0.924     0.078     1.996     2.210
    58   1 H        0.926     0.040     2.452     2.449
    59   1 H        0.926     0.039     2.467     2.456
    60   1 H        0.926     0.033     2.542     2.493
    61   1 H        0.926     0.032     2.558     2.501
    62   1 H        0.926     0.033     2.542     2.493
    63   1 H        0.926     0.038     2.472     2.458
    64   1 H        0.926     0.053     2.285     2.364
    65   1 H        0.926     0.033     2.538     2.492
    66   1 H        0.926     0.038     2.474     2.460
    67   1 H        0.926     0.037     2.487     2.466
    68   1 H        0.924     0.037     2.493     2.469
    69   1 H        0.924     0.039     2.461     2.454
    70   1 H        0.925     0.040     2.445     2.445
    71   1 H        0.925     0.039     2.462     2.454
    72   1 H        0.925     0.039     2.463     2.454
    73   1 H        0.926     0.042     2.423     2.434
    74   1 H        0.923     0.073     2.054     2.241
    75   1 H        0.804     0.343     0.606     1.222
    76   1 H        0.926     0.054     2.265     2.353
    77   1 H        0.924     0.037     2.491     2.468
    78   1 H        0.924     0.042     2.416     2.431
    79   1 H        0.925     0.037     2.495     2.470
    80   1 H        0.925     0.038     2.473     2.459
    81   1 H        0.925     0.042     2.423     2.434
    82   1 H        0.926     0.035     2.516     2.481
    83   1 H        0.926     0.033     2.541     2.493
    84   1 H        0.925     0.026     2.651     2.546

Wiberg/Mayer (AO) data.
largest (>0.10) Wiberg bond orders for each atom

     #   Z sym  total        # sym  WBO       # sym  WBO       # sym  WBO
 ---------------------------------------------------------------------------
     1   6 C    3.992 --     2 C    1.566    10 C    1.293    49 H    0.966
     2   6 C    3.992 --     1 C    1.566     3 C    1.275    50 H    0.968
                             9 C    0.114
     3   6 C    3.990 --     4 C    1.282     2 C    1.275     8 C    1.252
     4   6 C    3.992 --     5 C    1.556     3 C    1.282    51 H    0.968
                             7 C    0.118
     5   6 C    3.990 --     4 C    1.556     6 C    1.321    52 H    0.971
     6   6 C    3.992 --     7 C    1.557     5 C    1.321    53 H    0.971
     7   6 C    3.989 --     6 C    1.557     8 C    1.279    54 H    0.968
                             4 C    0.118
     8   6 C    3.990 --     9 C    1.281     7 C    1.279     3 C    1.252
     9   6 C    3.989 --    10 C    1.529     8 C    1.281    55 H    0.965
                             2 C    0.114
    10   6 C    3.985 --     9 C    1.529     1 C    1.293    11 C    0.987
    11   6 C    3.962 --    10 C    0.987    12 C    0.965    38 N    0.953
                            56 H    0.950
    12   6 C    3.957 --    13 C    0.985    11 C    0.965    57 H    0.952
                            23 N    0.946
    13   6 C    3.985 --    14 C    1.531    22 C    1.288    12 C    0.985
    14   6 C    3.990 --    13 C    1.531    15 C    1.275    58 H    0.961
                            21 C    0.112
    15   6 C    3.990 --    16 C    1.281    14 C    1.275    20 C    1.253
    16   6 C    3.989 --    17 C    1.556    15 C    1.281    59 H    0.968
                            19 C    0.118
    17   6 C    3.992 --    16 C    1.556    18 C    1.323    60 H    0.971
    18   6 C    3.990 --    19 C    1.555    17 C    1.323    61 H    0.971
    19   6 C    3.992 --    18 C    1.555    20 C    1.283    62 H    0.968
                            16 C    0.118
    20   6 C    3.990 --    19 C    1.283    21 C    1.273    15 C    1.253
    21   6 C    3.991 --    22 C    1.570    20 C    1.273    63 H    0.967
                            14 C    0.112
    22   6 C    3.989 --    21 C    1.570    13 C    1.288    64 H    0.966
    23   7 N    3.469 --    24 C    1.203    34 C    1.000    12 C    0.946
                            33 O    0.190
    24   6 C    3.942 --    33 O    1.701    23 N    1.203    25 C    0.954
    25   6 C    3.987 --    32 C    1.410    26 C    1.403    24 C    0.954
                            28 C    0.108
    26   6 C    3.990 --    27 C    1.437    25 C    1.403    65 H    0.968
                            29 C    0.108
    27   6 C    3.991 --    28 C    1.447    26 C    1.437    66 H    0.970
                            32 C    0.109
    28   6 C    3.991 --    27 C    1.447    29 C    1.408    67 H    0.969
                            25 C    0.108
    29   6 C    3.988 --    32 C    1.414    28 C    1.408    30 C    1.013
                            26 C    0.108
    30   6 C    3.996 --    29 C    1.013    31 C    1.000    68 H    0.975
                            69 H    0.973
    31   6 C    3.995 --    30 C    1.000    70 H    0.988    71 H    0.988
                            72 H    0.986
    32   6 C    3.990 --    29 C    1.414    25 C    1.410    73 H    0.967
                            27 C    0.109
    33   8 O    2.023 --    24 C    1.701    23 N    0.190
    34   6 C    3.977 --    23 N    1.000    38 N    0.987    74 H    0.921
                            35 C    0.909
    35   6 C    3.918 --    37 O    1.781    36 O    1.152    34 C    0.909
    36   8 O    2.217 --    35 C    1.152    75 H    0.856    37 O    0.180
    37   8 O    2.063 --    35 C    1.781    36 O    0.180
    38   7 N    3.448 --    39 C    1.194    34 C    0.987    11 C    0.953
                            48 O    0.186
    39   6 C    3.944 --    48 O    1.699    38 N    1.194    40 C    0.966
    40   6 C    3.988 --    41 C    1.417    47 C    1.392    39 C    0.966
                            45 C    0.106
    41   6 C    3.989 --    40 C    1.417    42 C    1.409    76 H    0.966
                            46 C    0.108
    42   6 C    3.988 --    45 C    1.414    41 C    1.409    43 C    1.013
                            47 C    0.108
    43   6 C    3.996 --    42 C    1.013    44 C    1.000    77 H    0.975
                            78 H    0.973
    44   6 C    3.996 --    43 C    1.000    79 H    0.988    81 H    0.988
                            80 H    0.986
    45   6 C    3.991 --    46 C    1.438    42 C    1.414    82 H    0.969
                            40 C    0.106
    46   6 C    3.992 --    47 C    1.445    45 C    1.438    83 H    0.970
                            41 C    0.108
    47   6 C    3.991 --    46 C    1.445    40 C    1.392    84 H    0.968
                            42 C    0.108
    48   8 O    2.019 --    39 C    1.699    38 N    0.186
    49   1 H    0.999 --     1 C    0.966
    50   1 H    0.998 --     2 C    0.968
    51   1 H    0.998 --     4 C    0.968
    52   1 H    0.999 --     5 C    0.971
    53   1 H    0.998 --     6 C    0.971
    54   1 H    0.998 --     7 C    0.968
    55   1 H    0.998 --     9 C    0.965
    56   1 H    0.995 --    11 C    0.950
    57   1 H    0.992 --    12 C    0.952
    58   1 H    0.998 --    14 C    0.961
    59   1 H    0.998 --    16 C    0.968
    60   1 H    0.998 --    17 C    0.971
    61   1 H    0.999 --    18 C    0.971
    62   1 H    0.998 --    19 C    0.968
    63   1 H    0.998 --    21 C    0.967
    64   1 H    0.997 --    22 C    0.966
    65   1 H    0.998 --    26 C    0.968
    66   1 H    0.997 --    27 C    0.970
    67   1 H    0.998 --    28 C    0.969
    68   1 H    0.998 --    30 C    0.975
    69   1 H    0.998 --    30 C    0.973
    70   1 H    0.998 --    31 C    0.988
    71   1 H    0.998 --    31 C    0.988
    72   1 H    0.998 --    31 C    0.986
    73   1 H    0.998 --    32 C    0.967
    74   1 H    0.994 --    34 C    0.921
    75   1 H    0.882 --    36 O    0.856
    76   1 H    0.997 --    41 C    0.966
    77   1 H    0.998 --    43 C    0.975
    78   1 H    0.998 --    43 C    0.973
    79   1 H    0.999 --    44 C    0.988
    80   1 H    0.998 --    44 C    0.986
    81   1 H    0.998 --    44 C    0.988
    82   1 H    0.998 --    45 C    0.969
    83   1 H    0.998 --    46 C    0.970
    84   1 H    0.999 --    47 C    0.968
 ---------------------------------------------------------------------------

molecular dipole:
                 x           y           z       tot (Debye)
 q only:        0.550      -1.149      -0.966
   full:        0.654      -1.513      -1.116       5.060

           -------------------------------------------------
          | TOTAL ENERGY             -130.475115957599 Eh   |
          | GRADIENT NORM               0.000317207292 Eh/Î± |
          | HOMO-LUMO GAP               2.991505500282 eV   |
           -------------------------------------------------

 * finished run on 2022/03/17 at 00:15:30.360
