   * xtb version 6.3.3 (4ae9cef) compiled by 'conda@95abc7406d43' on 2020-10-14
          program call               : xtb acid_270.xyz --opt --chrg 0 --uhf 0 --gfn 2
          number of atoms            :                    80
          number of electrons        :                   238
          charge                     :                     0
          spin                       :                   0.0

   ID    Z sym.   atoms
    1    6 C      1-22, 24-26, 28-32, 34, 35, 39-45, 47
    2    7 N      23, 38
    3    8 O      27, 33, 36, 37, 46, 48
    4    1 H      49-80

          :  Hamiltonian                  GFN2-xTB          :
 * total energy  :  -132.2083929 Eh     change       -0.1562711E-08 Eh
 * total energy  :  -132.2287238 Eh     change       -0.2033091E-01 Eh
 * total energy  :  -132.2343066 Eh     change       -0.5582814E-02 Eh
 * total energy  :  -132.2360663 Eh     change       -0.1759704E-02 Eh
 * total energy  :  -132.2375469 Eh     change       -0.1480574E-02 Eh
 * total energy  :  -132.2385475 Eh     change       -0.1000612E-02 Eh
 * total energy  :  -132.2394995 Eh     change       -0.9520088E-03 Eh
 * total energy  :  -132.2404966 Eh     change       -0.9970706E-03 Eh
 * total energy  :  -132.2413606 Eh     change       -0.8639924E-03 Eh
 * total energy  :  -132.2419696 Eh     change       -0.6090100E-03 Eh
 * total energy  :  -132.2603618 Eh     change       -0.1901361E-04 Eh
 * total energy  :  -132.2603751 Eh     change       -0.1325926E-04 Eh
 * total energy  :  -132.2603841 Eh     change       -0.9021869E-05 Eh
 * total energy  :  -132.2603909 Eh     change       -0.6790131E-05 Eh
 * total energy  :  -132.2603971 Eh     change       -0.6251186E-05 Eh
 * total energy  :  -132.2604032 Eh     change       -0.6084075E-05 Eh
 * total energy  :  -132.2604088 Eh     change       -0.5578584E-05 Eh
 * total energy  :  -132.2604143 Eh     change       -0.5503864E-05 Eh
 * total energy  :  -132.2604191 Eh     change       -0.4756925E-05 Eh
   *** GEOMETRY OPTIMIZATION CONVERGED AFTER 89 ITERATIONS ***

 final structure:
================
80
 xtb: 6.3.3 (4ae9cef)
C         2.18938772007952   -5.47106114218473    0.67358880650864
C         1.33514729178145   -6.04020957933554   -0.22612823456235
C         0.54171811568477   -5.22381619050589   -1.04356800524518
C         0.60324863494276   -3.86263718919776   -0.93964664527459
C         1.45358816380511   -3.23674652072350   -0.00118065290445
C         2.27209682748765   -4.06944228625433    0.81152255801297
C         3.14314581852990   -3.48766937862348    1.75506375371403
C         3.19169008965472   -2.13258963499542    1.91162766646151
C         2.36156282395630   -1.30764293405067    1.14277121151167
C         1.51746108864397   -1.83080741113475    0.19575710438248
C         0.57534162044965   -0.91159040175269   -0.53910006698319
C        -0.72501794629802   -0.71985331283004    0.27111503570188
C        -1.81956463534751   -1.62390842040677   -0.23463823631697
C        -2.50357035321931   -1.26021325678373   -1.36800221768528
C        -3.49455736455203   -2.08513894530039   -1.91321583985285
C        -3.77103516110016   -3.29217609188113   -1.33877092232581
C        -3.06377531187274   -3.72249284296931   -0.19779782289455
C        -2.07695952688576   -2.87776283958803    0.38258218799330
C        -1.38492058084746   -3.35870599590965    1.51638913365571
C        -1.63622579726662   -4.60008815491954    2.02892294695629
C        -2.60370305470053   -5.43108579426222    1.44814121942541
C        -3.30681099969633   -4.99399289130689    0.36311699332297
N        -1.02462599639230    0.69548879032693    0.10947738311912
C        -2.19298832226800    1.23322047693171    0.53630036115372
C        -2.38122419355546    2.67874420568197    0.17559227591477
C        -1.66255321632575    3.72960533922478    0.74970164927612
O        -0.65178905131759    3.52750667515842    1.67568639790847
C        -1.03539924670464    2.90898593260382    2.89209963410429
C        -1.89124507022585    5.03365600642824    0.32743687544059
C        -2.83551225803922    5.29887090911975   -0.64686426450750
C        -3.57402350687024    4.26434820488139   -1.19462707736150
C        -3.35072460419153    2.96528608999997   -0.77872602644499
O        -3.03965855041987    0.58319218513516    1.11364804628288
C         0.08170832947417    1.43899699686673   -0.44221059878060
C        -0.34792942715357    2.11893430854187   -1.76979453143349
O        -0.04816375826885    3.41386586164886   -1.89629850672490
O        -0.90533619746299    1.51366887100101   -2.63684419341082
N         1.09409385728336    0.44041166320828   -0.68645606827715
C         2.27497522175980    0.65907819638745   -1.32937087378528
C         2.67082539901892    2.09693811896337   -1.45767364620038
C         2.90976402902576    2.61387281935193   -2.72141657705666
C         3.29517315211855    3.93348297409773   -2.88330297028528
C         3.46205871184784    4.73437794488148   -1.76920196516021
C         3.26049494448826    4.22640196099549   -0.49531307605729
C         2.87351156408936    2.90235823557153   -0.32562625813242
O         2.65986934265027    2.30939775581879    0.88622412287553
C         2.91521669847165    3.04859514177686    2.05822117059256
O         2.95325388512418   -0.24719541054059   -1.75905942770898
H         2.81671244638732   -6.08705867121335    1.30265445821628
H         1.27015550108347   -7.11440740251392   -0.31952756912163
H        -0.12475964685559   -5.67807025557624   -1.76177039625447
H        -0.01875292005081   -3.26786455342816   -1.58917281798823
H         3.76642575805278   -4.13591356492554    2.35441747333464
H         3.85879829374733   -1.68573239804726    2.63421862016646
H         2.39878707481167   -0.23880318263755    1.29447464157098
H         0.35017683859592   -1.30305330093717   -1.53758538665802
H        -0.53528461561390   -0.90139983798384    1.33555866681884
H        -2.27492249818148   -0.32460106174117   -1.85821059680811
H        -4.02501138716129   -1.75927282994167   -2.79549935695200
H        -4.52637396488053   -3.94270363114236   -1.75624229767441
H        -0.62920408165657   -2.75225206075761    1.99024204441955
H        -1.08379745580874   -4.94852772295846    2.88921812958646
H        -2.78725303518437   -6.41014827759996    1.86555069503890
H        -4.05983564568769   -5.62090460037945   -0.09335258209649
H        -0.11404706616753    2.74773645838441    3.44918994356597
H        -1.53791801955624    1.95380589969055    2.72968156343146
H        -1.69822163527767    3.56713019366972    3.46238784896400
H        -1.31480717599596    5.82896862591090    0.77532836521754
H        -2.99938433124627    6.31572103851627   -0.96881880453383
H        -4.31969788958846    4.46702368168437   -1.94706928102748
H        -3.91530476208904    2.14768741084700   -1.20021830542541
H         0.44394885784427    2.18570174917481    0.28184975939763
H         0.39933062135169    3.78926954345918   -1.12401046846744
H         2.78014593999520    1.96728986371090   -3.57528283574422
H         3.46724314001627    4.32992288809495   -3.87099465012139
H         3.76298306307642    5.76510620422391   -1.88092908575377
H         3.41657201624020    4.86732332483444    0.35785937017579
H         2.22412526676201    3.89239028671263    2.15538517597952
H         2.75398891337226    2.35422428323875    2.88152550824149
H         3.94716120029364    3.40895686048870    2.08899034157522

          :  Hamiltonian                  GFN2-xTB          :
         :: total energy            -132.260419060641 Eh    ::
         :: gradient norm              0.000500928028 Eh/a0 ::
         :: HOMO-LUMO gap              2.815231543340 eV    ::
         :: SCC energy              -134.295456603020 Eh    ::
         :: -> dispersion             -0.125445404341 Eh    ::
         :: repulsion energy           2.030006201775 Eh    ::

    * Orbital Energies and Occupations

         #    Occupation            Energy/Eh            Energy/eV
      -------------------------------------------------------------
         1        2.0000           -0.7698445             -20.9485
       ...           ...                  ...                  ...
       107        2.0000           -0.4163858             -11.3304
       108        2.0000           -0.4155768             -11.3084
       109        2.0000           -0.4144118             -11.2767
       110        2.0000           -0.4133983             -11.2491
       111        2.0000           -0.4035757             -10.9819
       112        2.0000           -0.4024163             -10.9503
       113        2.0000           -0.4002631             -10.8917
       114        2.0000           -0.3975079             -10.8167
       115        2.0000           -0.3969024             -10.8003
       116        2.0000           -0.3963246             -10.7845
       117        2.0000           -0.3918773             -10.6635
       118        2.0000           -0.3751756             -10.2090
       119        2.0000           -0.3715853             -10.1114 (HOMO)
       120                         -0.2681275              -7.2961 (LUMO)
       121                         -0.2592790              -7.0553
       122                         -0.2565618              -6.9814
       123                         -0.2546806              -6.9302
       124                         -0.2508327              -6.8255
       125                         -0.2448502              -6.6627
       126                         -0.2363244              -6.4307
       127                         -0.2259593              -6.1487
       128                         -0.2245022              -6.1090
       129                         -0.2162016              -5.8831
       130                         -0.2064289              -5.6172
       ...                                ...                  ...
       224                          0.6989893              19.0205
      -------------------------------------------------------------
                  HL-Gap            0.1034579 Eh            2.8152 eV

     #   Z          covCN         q      C6AA      Î±(0)
     1   6 C        2.921    -0.034    28.854     8.809
     2   6 C        2.915    -0.029    28.719     8.788
     3   6 C        2.917    -0.028    28.696     8.784
     4   6 C        2.917    -0.032    28.801     8.800
     5   6 C        2.984     0.012    27.735     8.639
     6   6 C        2.989     0.016    27.642     8.624
     7   6 C        2.920    -0.036    28.898     8.815
     8   6 C        2.914    -0.029    28.731     8.790
     9   6 C        2.922    -0.033    28.820     8.804
    10   6 C        2.969     0.007    27.859     8.658
    11   6 C        3.826     0.049    19.733     6.321
    12   6 C        3.824     0.051    19.711     6.318
    13   6 C        2.968     0.006    27.892     8.663
    14   6 C        2.922    -0.032    28.805     8.801
    15   6 C        2.914    -0.027    28.684     8.782
    16   6 C        2.920    -0.035    28.873     8.812
    17   6 C        2.989     0.017    27.633     8.623
    18   6 C        2.983     0.013    27.721     8.637
    19   6 C        2.917    -0.033    28.812     8.802
    20   6 C        2.917    -0.029    28.719     8.788
    21   6 C        2.915    -0.030    28.738     8.791
    22   6 C        2.921    -0.034    28.843     8.807
    23   7 N        2.764    -0.111    23.420     7.188
    24   6 C        2.763     0.276    22.335     7.740
    25   6 C        2.973    -0.045    29.123     8.852
    26   6 C        2.867     0.129    25.172     8.224
    27   8 O        1.702    -0.322    19.386     5.945
    28   6 C        3.644     0.043    20.184     6.458
    29   6 C        2.919    -0.053    29.306     8.877
    30   6 C        2.920    -0.025    28.640     8.776
    31   6 C        2.918    -0.028    28.701     8.785
    32   6 C        2.927    -0.019    28.477     8.751
    33   8 O        0.859    -0.424    22.166     6.312
    34   6 C        3.751     0.076    19.378     6.278
    35   6 C        2.687     0.345    21.143     7.525
    36   8 O        1.659    -0.360    20.089     6.051
    37   8 O        0.856    -0.345    20.620     6.088
    38   7 N        2.763    -0.113    23.465     7.194
    39   6 C        2.763     0.277    22.317     7.736
    40   6 C        2.974    -0.047    29.162     8.858
    41   6 C        2.925    -0.020    28.500     8.755
    42   6 C        2.917    -0.036    28.898     8.815
    43   6 C        2.921    -0.030    28.751     8.793
    44   6 C        2.916    -0.071    29.782     8.949
    45   6 C        2.864     0.135    25.053     8.204
    46   8 O        1.705    -0.280    18.642     5.829
    47   6 C        3.642     0.040    20.253     6.470
    48   8 O        0.859    -0.409    21.853     6.268
    49   1 H        0.926     0.034     2.530     2.487
    50   1 H        0.926     0.033     2.549     2.497
    51   1 H        0.926     0.032     2.560     2.502
    52   1 H        0.926     0.030     2.590     2.517
    53   1 H        0.926     0.035     2.519     2.482
    54   1 H        0.926     0.032     2.556     2.500
    55   1 H        0.926     0.039     2.463     2.454
    56   1 H        0.924     0.061     2.184     2.311
    57   1 H        0.924     0.053     2.287     2.365
    58   1 H        0.926     0.048     2.349     2.397
    59   1 H        0.926     0.037     2.488     2.467
    60   1 H        0.926     0.036     2.509     2.477
    61   1 H        0.926     0.024     2.669     2.555
    62   1 H        0.926     0.030     2.587     2.515
    63   1 H        0.926     0.032     2.558     2.501
    64   1 H        0.926     0.034     2.525     2.485
    65   1 H        0.925     0.058     2.225     2.333
    66   1 H        0.924     0.046     2.367     2.406
    67   1 H        0.924     0.041     2.432     2.439
    68   1 H        0.926     0.052     2.300     2.372
    69   1 H        0.926     0.050     2.324     2.384
    70   1 H        0.926     0.053     2.282     2.362
    71   1 H        0.926     0.058     2.223     2.331
    72   1 H        0.923     0.066     2.126     2.280
    73   1 H        0.805     0.329     0.639     1.255
    74   1 H        0.926     0.058     2.225     2.332
    75   1 H        0.926     0.049     2.336     2.390
    76   1 H        0.926     0.044     2.396     2.421
    77   1 H        0.926     0.042     2.417     2.431
    78   1 H        0.924     0.045     2.385     2.415
    79   1 H        0.925     0.063     2.162     2.300
    80   1 H        0.924     0.046     2.370     2.407

Wiberg/Mayer (AO) data.
largest (>0.10) Wiberg bond orders for each atom

     #   Z sym  total        # sym  WBO       # sym  WBO       # sym  WBO
 ---------------------------------------------------------------------------
     1   6 C    3.991 --     2 C    1.557     6 C    1.279    49 H    0.968
                             4 C    0.118
     2   6 C    3.992 --     1 C    1.557     3 C    1.322    50 H    0.971
     3   6 C    3.992 --     4 C    1.555     2 C    1.322    51 H    0.971
     4   6 C    3.992 --     3 C    1.555     5 C    1.282    52 H    0.962
                             1 C    0.118
     5   6 C    3.989 --     4 C    1.282    10 C    1.253     6 C    1.253
     6   6 C    3.990 --     7 C    1.280     1 C    1.279     5 C    1.253
     7   6 C    3.990 --     8 C    1.552     6 C    1.280    53 H    0.968
                            10 C    0.114
     8   6 C    3.992 --     7 C    1.552     9 C    1.327    54 H    0.971
     9   6 C    3.990 --    10 C    1.523     8 C    1.327    55 H    0.966
    10   6 C    3.983 --     9 C    1.523     5 C    1.253    11 C    0.991
                             7 C    0.114
    11   6 C    3.960 --    10 C    0.991    38 N    0.957    12 C    0.948
                            56 H    0.946
    12   6 C    3.960 --    13 C    0.991    23 N    0.953    11 C    0.948
                            57 H    0.947
    13   6 C    3.983 --    14 C    1.522    18 C    1.253    12 C    0.991
                            16 C    0.114
    14   6 C    3.989 --    13 C    1.522    15 C    1.328    58 H    0.963
    15   6 C    3.992 --    16 C    1.552    14 C    1.328    59 H    0.970
    16   6 C    3.990 --    15 C    1.552    17 C    1.280    60 H    0.968
                            13 C    0.114
    17   6 C    3.990 --    16 C    1.280    22 C    1.279    18 C    1.252
    18   6 C    3.989 --    19 C    1.282    13 C    1.253    17 C    1.252
    19   6 C    3.992 --    20 C    1.555    18 C    1.282    61 H    0.961
                            22 C    0.118
    20   6 C    3.992 --    19 C    1.555    21 C    1.321    62 H    0.971
    21   6 C    3.992 --    22 C    1.558    20 C    1.321    63 H    0.971
    22   6 C    3.991 --    21 C    1.558    17 C    1.279    64 H    0.968
                            19 C    0.118
    23   7 N    3.472 --    24 C    1.218    34 C    0.986    12 C    0.953
                            33 O    0.195
    24   6 C    3.949 --    33 O    1.682    23 N    1.218    25 C    0.956
    25   6 C    3.985 --    32 C    1.404    26 C    1.359    24 C    0.956
                            30 C    0.107
    26   6 C    3.939 --    29 C    1.392    25 C    1.359    27 O    1.005
                            31 C    0.102
    27   8 O    2.123 --    26 C    1.005    28 C    0.966
    28   6 C    3.940 --    67 H    0.980    65 H    0.980    66 H    0.974
                            27 O    0.966
    29   6 C    3.989 --    30 C    1.443    26 C    1.392    68 H    0.967
                            32 C    0.108
    30   6 C    3.990 --    29 C    1.443    31 C    1.435    69 H    0.970
                            25 C    0.107
    31   6 C    3.990 --    32 C    1.442    30 C    1.435    70 H    0.969
                            26 C    0.102
    32   6 C    3.988 --    31 C    1.442    25 C    1.404    71 H    0.967
                            29 C    0.108
    33   8 O    2.019 --    24 C    1.682    23 N    0.195
    34   6 C    3.968 --    23 N    0.986    38 N    0.985    72 H    0.933
                            35 C    0.901
    35   6 C    3.919 --    37 O    1.802    36 O    1.141    34 C    0.901
    36   8 O    2.223 --    35 C    1.141    73 H    0.859    37 O    0.169
    37   8 O    2.093 --    35 C    1.802    36 O    0.169
    38   7 N    3.454 --    39 C    1.194    34 C    0.985    11 C    0.957
                            48 O    0.188
    39   6 C    3.949 --    48 O    1.704    38 N    1.194    40 C    0.965
    40   6 C    3.983 --    41 C    1.427    45 C    1.317    39 C    0.965
                            43 C    0.107
    41   6 C    3.988 --    42 C    1.427    40 C    1.427    74 H    0.967
                            44 C    0.103
    42   6 C    3.991 --    43 C    1.445    41 C    1.427    75 H    0.969
    43   6 C    3.991 --    42 C    1.445    44 C    1.431    76 H    0.970
                            40 C    0.107
    44   6 C    3.986 --    43 C    1.431    45 C    1.382    77 H    0.965
                            41 C    0.103
    45   6 C    3.935 --    44 C    1.382    40 C    1.317    46 O    1.054
    46   8 O    2.229 --    45 C    1.054    47 C    0.979
    47   6 C    3.941 --    46 O    0.979    79 H    0.979    80 H    0.977
                            78 H    0.976
    48   8 O    2.033 --    39 C    1.704    38 N    0.188
    49   1 H    0.998 --     1 C    0.968
    50   1 H    0.998 --     2 C    0.971
    51   1 H    0.999 --     3 C    0.971
    52   1 H    0.999 --     4 C    0.962
    53   1 H    0.998 --     7 C    0.968
    54   1 H    0.998 --     8 C    0.971
    55   1 H    0.998 --     9 C    0.966
    56   1 H    0.996 --    11 C    0.946
    57   1 H    0.997 --    12 C    0.947
    58   1 H    0.997 --    14 C    0.963
    59   1 H    0.998 --    15 C    0.970
    60   1 H    0.998 --    16 C    0.968
    61   1 H    0.999 --    19 C    0.961
    62   1 H    0.999 --    20 C    0.971
    63   1 H    0.998 --    21 C    0.971
    64   1 H    0.998 --    22 C    0.968
    65   1 H    0.996 --    28 C    0.980
    66   1 H    0.998 --    28 C    0.974
    67   1 H    0.998 --    28 C    0.980
    68   1 H    0.997 --    29 C    0.967
    69   1 H    0.997 --    30 C    0.970
    70   1 H    0.997 --    31 C    0.969
    71   1 H    0.997 --    32 C    0.967
    72   1 H    0.995 --    34 C    0.933
    73   1 H    0.891 --    36 O    0.859
    74   1 H    0.996 --    41 C    0.967
    75   1 H    0.997 --    42 C    0.969
    76   1 H    0.998 --    43 C    0.970
    77   1 H    0.997 --    44 C    0.965
    78   1 H    0.998 --    47 C    0.976
    79   1 H    0.996 --    47 C    0.979
    80   1 H    0.998 --    47 C    0.977
 ---------------------------------------------------------------------------

molecular dipole:
                 x           y           z       tot (Debye)
 q only:        0.320       1.370       1.216
   full:        0.503       1.938       1.588       6.497

           -------------------------------------------------
          | TOTAL ENERGY             -132.260419060641 Eh   |
          | GRADIENT NORM               0.000500928028 Eh/Î± |
          | HOMO-LUMO GAP               2.815231543340 eV   |
           -------------------------------------------------

 * finished run on 2022/03/16 at 23:13:20.225
