   * xtb version 6.3.3 (4ae9cef) compiled by 'conda@95abc7406d43' on 2020-10-14
          program call               : xtb acid_90.xyz --opt --chrg 0 --uhf 0 --gfn 2
          number of atoms            :                    74
          number of electrons        :                   226
          charge                     :                     0
          spin                       :                   0.0

   ID    Z sym.   atoms
    1    6 C      1-14, 16-26, 29, 30, 34-44
    2    7 N      15, 33
    3    8 O      27, 28, 31, 32, 45, 46
    4    1 H      47-74

          :  Hamiltonian                  GFN2-xTB          :
 * total energy  :  -125.8953253 Eh     change       -0.2233733E-08 Eh
 * total energy  :  -125.9085769 Eh     change       -0.1325167E-01 Eh
 * total energy  :  -125.9130354 Eh     change       -0.4458508E-02 Eh
 * total energy  :  -125.9145750 Eh     change       -0.1539566E-02 Eh
 * total energy  :  -125.9154600 Eh     change       -0.8849785E-03 Eh
 * total energy  :  -125.9159844 Eh     change       -0.5244282E-03 Eh
 * total energy  :  -125.9164262 Eh     change       -0.4417454E-03 Eh
 * total energy  :  -125.9168242 Eh     change       -0.3979997E-03 Eh
 * total energy  :  -125.9171647 Eh     change       -0.3405223E-03 Eh
 * total energy  :  -125.9174057 Eh     change       -0.2410607E-03 Eh
 * total energy  :  -125.9236917 Eh     change       -0.1409013E-04 Eh
 * total energy  :  -125.9236992 Eh     change       -0.7447773E-05 Eh
 * total energy  :  -125.9237073 Eh     change       -0.8137266E-05 Eh
 * total energy  :  -125.9237154 Eh     change       -0.8043423E-05 Eh
 * total energy  :  -125.9237223 Eh     change       -0.6907926E-05 Eh
 * total energy  :  -125.9237287 Eh     change       -0.6373335E-05 Eh
 * total energy  :  -125.9237350 Eh     change       -0.6336733E-05 Eh
 * total energy  :  -125.9237401 Eh     change       -0.5135509E-05 Eh
 * total energy  :  -125.9237438 Eh     change       -0.3700796E-05 Eh
   *** GEOMETRY OPTIMIZATION CONVERGED AFTER 107 ITERATIONS ***

 final structure:
================
74
 xtb: 6.3.3 (4ae9cef)
C        -0.41383054871419   -3.25058353692704   -1.75446275005069
C        -0.67074727458479   -4.39632777636225   -2.48455609348965
C        -1.45280553521418   -4.33155852239370   -3.62621378858394
C        -1.98650597250710   -3.11838603512009   -4.02325939581847
C        -1.73316612145983   -1.96975922648569   -3.29148593904872
C        -0.93299887516622   -2.02523874346869   -2.15884780903833
C        -0.62696408579947   -0.79411487475909   -1.33334479475132
C         0.90958742318980   -0.54361073077582   -1.22246315071713
C         1.35683004904750   -0.37351033104482    0.20795286569932
C         0.94536809580970    0.73778815958860    0.93530306409539
C         1.38080952650433    0.91970981154433    2.23456858728553
C         2.22592184990400   -0.00713997182684    2.82217550741327
C         2.62346425453047   -1.12443169019663    2.10928183961189
C         2.18862887488478   -1.30849210783824    0.80853185088210
N         1.10981470256957    0.67394665824148   -1.98765259512434
C         2.25506716550924    1.38766573588304   -2.09690635652345
C         3.40945478639267    0.77248358110592   -1.37492049881180
C         4.19939910634141   -0.29076071399512   -1.71494731195064
C         5.12926331864262   -0.43607324920989   -0.66519490460894
C         4.84257609811676    0.54941319581884    0.24877962083174
C         5.41185887969742    0.86146861293409    1.54425265507744
C         4.91034265570052    1.93190044096330    2.28663887551266
C         5.42986050177446    2.22219702573560    3.53265500417572
C         6.45499518903910    1.45257227994775    4.05836597608590
C         6.95992464437203    0.38902861422553    3.32751785634335
C         6.44497491308527    0.09218460776451    2.08077797784526
O         3.80411309912810    1.29023984237451   -0.20024407465794
O         2.32627684503037    2.41324249883579   -2.73645804767776
C        -0.10017233685094    1.07203554412318   -2.66135905545752
C        -0.11734711198312    0.60655613302954   -4.12691658348760
O         0.93925772361675   -0.14936165458721   -4.42435922821457
O        -0.98229333627180    0.87461109499178   -4.90953124732525
N        -1.14943231978620    0.42898335466352   -1.90604944242026
C        -2.17190095844674    1.19855635940315   -1.40200056548781
C        -3.18856150406250    0.49263758385876   -0.60849767736457
C        -3.63156509835264   -0.81102443026301   -0.55455070001613
C        -4.73369057189913   -0.81747800647805    0.31423072416692
C        -4.90406033559956    0.48366118176522    0.73971409998825
C        -5.87770813956481    1.08137977682985    1.63322401374120
C        -6.82442688416153    0.29710442741856    2.29405712506970
C        -7.75117489144259    0.88522958405612    3.13243062257329
C        -7.74855940492627    2.25769125340609    3.32533349975255
C        -6.81104514784370    3.04316427198210    2.67402118333089
C        -5.88122749296653    2.46332313839096    1.83356422911709
O        -3.97188244245226    1.26524405930774    0.17329639187484
O        -2.25186998989894    2.38367922113761   -1.64724443714270
H         0.18532369842626   -3.30430280170187   -0.85666500289095
H        -0.26260441720153   -5.34192006832310   -2.16025168146831
H        -1.65154726422978   -5.22535270032017   -4.19808496613706
H        -2.60717075051184   -3.06018191305027   -4.90459542507262
H        -2.16862335644113   -1.03144438517448   -3.59887845330165
H        -1.04595094618862   -0.92924567546365   -0.32900694307086
H         1.45742635924436   -1.37149201298977   -1.68937466342413
H         0.29937922980971    1.47148624318061    0.47466516791666
H         1.06646806400025    1.79230845238331    2.78704020775539
H         2.58020963424903    0.14425815595686    3.83047069909612
H         3.28554019631603   -1.84756914484208    2.56135724819605
H         2.51444847408986   -2.17306011850776    0.24750276170545
H         4.12489013355685   -0.88214542612777   -2.60490173487008
H         5.90289135741642   -1.17314240938818   -0.60301823345966
H         4.11253420834837    2.52859513962984    1.87235193283439
H         5.03525389781223    3.05390203014082    4.09782470650887
H         6.86065196602070    1.68105120178823    5.03274386446695
H         7.76033752779934   -0.21212573660049    3.73367028439150
H         6.84226172730810   -0.73793278049230    1.51785433475684
H        -0.24182138346129    2.16328795429698   -2.65096578458829
H         0.92217872592477   -0.39917530382213   -5.36256439975790
H        -3.24310107559411   -1.65172592125450   -1.09171381614046
H        -5.32501450417690   -1.66914918574036    0.57963211605357
H        -6.83123629650448   -0.77193265393831    2.14945513771823
H        -8.48103518745645    0.27100135372952    3.63901988151577
H        -8.47609330089354    2.71281485915333    3.98072228963088
H        -6.80736765956426    4.11301601643135    2.82106213576994
H        -5.15208238107269    3.07032838340567    1.31944221314893

          :  Hamiltonian                  GFN2-xTB          :
         :: total energy            -125.923743824436 Eh    ::
         :: gradient norm              0.000368509514 Eh/a0 ::
         :: HOMO-LUMO gap              2.786058368779 eV    ::
         :: SCC energy              -127.863469656231 Eh    ::
         :: -> dispersion             -0.106382871089 Eh    ::
         :: repulsion energy           1.937114178888 Eh    ::

    * Orbital Energies and Occupations

         #    Occupation            Energy/Eh            Energy/eV
      -------------------------------------------------------------
         1        2.0000           -0.7651663             -20.8212
       ...           ...                  ...                  ...
       101        2.0000           -0.4262853             -11.5998
       102        2.0000           -0.4238666             -11.5340
       103        2.0000           -0.4211326             -11.4596
       104        2.0000           -0.4190312             -11.4024
       105        2.0000           -0.4189443             -11.4001
       106        2.0000           -0.4134720             -11.2511
       107        2.0000           -0.4121543             -11.2153
       108        2.0000           -0.4098337             -11.1521
       109        2.0000           -0.4080915             -11.1047
       110        2.0000           -0.4050286             -11.0214
       111        2.0000           -0.3999374             -10.8829
       112        2.0000           -0.3871147             -10.5339
       113        2.0000           -0.3790168             -10.3136 (HOMO)
       114                         -0.2766310              -7.5275 (LUMO)
       115                         -0.2577912              -7.0149
       116                         -0.2548508              -6.9348
       117                         -0.2470871              -6.7236
       118                         -0.2415174              -6.5720
       119                         -0.2399337              -6.5289
       120                         -0.2380150              -6.4767
       121                         -0.2364973              -6.4354
       122                         -0.2305746              -6.2743
       123                         -0.2275783              -6.1927
       124                         -0.2269209              -6.1748
       ...                                ...                  ...
       212                          0.7129279              19.3998
      -------------------------------------------------------------
                  HL-Gap            0.1023858 Eh            2.7861 eV

     #   Z          covCN         q      C6AA      Î±(0)
     1   6 C        2.924    -0.039    28.957     8.825
     2   6 C        2.919    -0.027    28.686     8.783
     3   6 C        2.920    -0.029    28.736     8.791
     4   6 C        2.920    -0.026    28.662     8.779
     5   6 C        2.922    -0.036    28.891     8.814
     6   6 C        2.971    -0.002    28.072     8.691
     7   6 C        3.830     0.035    19.959     6.357
     8   6 C        3.818     0.034    19.986     6.362
     9   6 C        2.973    -0.003    28.088     8.693
    10   6 C        2.924    -0.029    28.733     8.790
    11   6 C        2.920    -0.023    28.578     8.766
    12   6 C        2.920    -0.026    28.653     8.778
    13   6 C        2.920    -0.026    28.661     8.779
    14   6 C        2.923    -0.035    28.867     8.811
    15   7 N        2.767    -0.105    23.299     7.169
    16   6 C        2.756     0.271    22.425     7.755
    17   6 C        3.112     0.086    25.945     8.345
    18   6 C        3.008    -0.066    29.624     8.928
    19   6 C        3.020    -0.068    29.662     8.934
    20   6 C        3.105     0.110    25.455     8.267
    21   6 C        2.971     0.005    27.896     8.663
    22   6 C        2.926    -0.029    28.725     8.789
    23   6 C        2.918    -0.028    28.689     8.783
    24   6 C        2.920    -0.030    28.753     8.793
    25   6 C        2.919    -0.028    28.701     8.785
    26   6 C        2.924    -0.036    28.899     8.816
    27   8 O        1.731    -0.179    17.004     5.568
    28   8 O        0.859    -0.406    21.804     6.261
    29   6 C        3.785     0.093    19.058     6.218
    30   6 C        2.688     0.358    20.927     7.487
    31   8 O        1.659    -0.363    20.153     6.060
    32   8 O        0.856    -0.376    21.216     6.176
    33   7 N        2.761    -0.125    23.705     7.231
    34   6 C        2.759     0.266    22.517     7.771
    35   6 C        3.096     0.078    26.149     8.381
    36   6 C        3.008    -0.061    29.504     8.910
    37   6 C        3.013    -0.068    29.665     8.934
    38   6 C        3.100     0.120    25.258     8.236
    39   6 C        2.971     0.005    27.904     8.665
    40   6 C        2.924    -0.034    28.857     8.809
    41   6 C        2.918    -0.027    28.677     8.782
    42   6 C        2.920    -0.027    28.681     8.782
    43   6 C        2.918    -0.026    28.654     8.778
    44   6 C        2.925    -0.027    28.687     8.783
    45   8 O        1.731    -0.160    16.705     5.519
    46   8 O        0.859    -0.402    21.726     6.249
    47   1 H        0.926     0.032     2.563     2.503
    48   1 H        0.926     0.039     2.465     2.455
    49   1 H        0.926     0.039     2.456     2.451
    50   1 H        0.926     0.043     2.412     2.429
    51   1 H        0.926     0.046     2.370     2.408
    52   1 H        0.924     0.059     2.213     2.326
    53   1 H        0.924     0.056     2.250     2.346
    54   1 H        0.926     0.038     2.479     2.462
    55   1 H        0.926     0.042     2.424     2.435
    56   1 H        0.926     0.038     2.477     2.461
    57   1 H        0.926     0.037     2.492     2.469
    58   1 H        0.926     0.029     2.595     2.519
    59   1 H        0.926     0.039     2.465     2.455
    60   1 H        0.926     0.041     2.431     2.438
    61   1 H        0.926     0.046     2.377     2.411
    62   1 H        0.926     0.035     2.516     2.480
    63   1 H        0.926     0.034     2.529     2.487
    64   1 H        0.926     0.034     2.523     2.484
    65   1 H        0.926     0.035     2.520     2.483
    66   1 H        0.923     0.122     1.600     1.978
    67   1 H        0.804     0.341     0.609     1.226
    68   1 H        0.926     0.043     2.410     2.428
    69   1 H        0.927     0.043     2.403     2.424
    70   1 H        0.926     0.036     2.502     2.474
    71   1 H        0.926     0.036     2.499     2.472
    72   1 H        0.926     0.037     2.494     2.469
    73   1 H        0.926     0.039     2.460     2.453
    74   1 H        0.926     0.055     2.253     2.347

Wiberg/Mayer (AO) data.
largest (>0.10) Wiberg bond orders for each atom

     #   Z sym  total        # sym  WBO       # sym  WBO       # sym  WBO
 ---------------------------------------------------------------------------
     1   6 C    3.991 --     2 C    1.451     6 C    1.405    47 H    0.968
                             4 C    0.112
     2   6 C    3.991 --     1 C    1.451     3 C    1.432    48 H    0.971
                             5 C    0.110
     3   6 C    3.991 --     4 C    1.445     2 C    1.432    49 H    0.971
                             6 C    0.109
     4   6 C    3.992 --     3 C    1.445     5 C    1.436    50 H    0.970
                             1 C    0.112
     5   6 C    3.990 --     4 C    1.436     6 C    1.419    51 H    0.965
                             2 C    0.110
     6   6 C    3.985 --     5 C    1.419     1 C    1.405     7 C    0.985
                             3 C    0.109
     7   6 C    3.967 --     6 C    0.985    33 N    0.978    52 H    0.947
                             8 C    0.943
     8   6 C    3.966 --     9 C    0.989    15 N    0.966    53 H    0.954
                             7 C    0.943
     9   6 C    3.985 --    14 C    1.414    10 C    1.406     8 C    0.989
                            12 C    0.109
    10   6 C    3.992 --    11 C    1.450     9 C    1.406    54 H    0.969
                            13 C    0.112
    11   6 C    3.992 --    10 C    1.450    12 C    1.434    55 H    0.970
                            14 C    0.109
    12   6 C    3.990 --    13 C    1.441    11 C    1.434    56 H    0.971
                             9 C    0.109
    13   6 C    3.992 --    12 C    1.441    14 C    1.441    57 H    0.971
                            10 C    0.112
    14   6 C    3.990 --    13 C    1.441     9 C    1.414    58 H    0.968
                            11 C    0.109
    15   7 N    3.483 --    16 C    1.221    29 C    0.980     8 C    0.966
                            28 O    0.202
    16   6 C    3.955 --    28 O    1.699    15 N    1.221    17 C    0.950
    17   6 C    3.901 --    18 C    1.542    27 O    1.132    16 C    0.950
                            20 C    0.127
    18   6 C    3.979 --    17 C    1.542    19 C    1.320    59 H    0.975
    19   6 C    3.982 --    20 C    1.507    18 C    1.320    60 H    0.973
    20   6 C    3.903 --    19 C    1.507    27 O    1.102    21 C    1.088
                            17 C    0.127
    21   6 C    3.988 --    26 C    1.369    22 C    1.369    20 C    1.088
    22   6 C    3.990 --    23 C    1.459    21 C    1.369    61 H    0.968
                            25 C    0.105
    23   6 C    3.992 --    22 C    1.459    24 C    1.431    62 H    0.971
                            26 C    0.105
    24   6 C    3.979 --    23 C    1.431    25 C    1.429    63 H    0.971
    25   6 C    3.992 --    26 C    1.461    24 C    1.429    64 H    0.971
                            22 C    0.105
    26   6 C    3.990 --    25 C    1.461    21 C    1.369    65 H    0.968
                            23 C    0.105
    27   8 O    2.444 --    17 C    1.132    20 C    1.102
    28   8 O    2.030 --    16 C    1.699    15 N    0.202
    29   6 C    3.957 --    33 N    0.982    15 N    0.980    66 H    0.924
                            30 C    0.917
    30   6 C    3.919 --    32 O    1.788    31 O    1.149    29 C    0.917
    31   8 O    2.216 --    30 C    1.149    67 H    0.858    32 O    0.182
    32   8 O    2.070 --    30 C    1.788    31 O    0.182
    33   7 N    3.430 --    34 C    1.154    29 C    0.982     7 C    0.978
                            46 O    0.177
    34   6 C    3.954 --    46 O    1.684    33 N    1.154    35 C    1.024
    35   6 C    3.896 --    36 C    1.486    45 O    1.117    34 C    1.024
                            38 C    0.118
    36   6 C    3.985 --    35 C    1.486    37 C    1.357    68 H    0.969
    37   6 C    3.982 --    38 C    1.472    36 C    1.357    69 H    0.973
    38   6 C    3.911 --    37 C    1.472    45 O    1.136    39 C    1.087
                            35 C    0.118
    39   6 C    3.988 --    44 C    1.369    40 C    1.369    38 C    1.087
    40   6 C    3.986 --    41 C    1.461    39 C    1.369    70 H    0.968
                            43 C    0.105
    41   6 C    3.992 --    40 C    1.461    42 C    1.428    71 H    0.971
                            44 C    0.105
    42   6 C    3.977 --    43 C    1.431    41 C    1.428    72 H    0.971
    43   6 C    3.992 --    44 C    1.459    42 C    1.431    73 H    0.970
                            40 C    0.105
    44   6 C    3.989 --    43 C    1.459    39 C    1.369    74 H    0.967
                            41 C    0.105
    45   8 O    2.465 --    38 C    1.136    35 C    1.117
    46   8 O    2.034 --    34 C    1.684    33 N    0.177
    47   1 H    0.999 --     1 C    0.968
    48   1 H    0.998 --     2 C    0.971
    49   1 H    0.998 --     3 C    0.971
    50   1 H    0.998 --     4 C    0.970
    51   1 H    0.998 --     5 C    0.965
    52   1 H    0.996 --     7 C    0.947
    53   1 H    0.996 --     8 C    0.954
    54   1 H    0.999 --    10 C    0.969
    55   1 H    0.998 --    11 C    0.970
    56   1 H    0.998 --    12 C    0.971
    57   1 H    0.998 --    13 C    0.971
    58   1 H    0.999 --    14 C    0.968
    59   1 H    0.998 --    18 C    0.975
    60   1 H    0.997 --    19 C    0.973
    61   1 H    0.998 --    22 C    0.968
    62   1 H    0.998 --    23 C    0.971
    63   1 H    0.998 --    24 C    0.971
    64   1 H    0.998 --    25 C    0.971
    65   1 H    0.999 --    26 C    0.968
    66   1 H    0.985 --    29 C    0.924
    67   1 H    0.883 --    31 O    0.858
    68   1 H    0.998 --    36 C    0.969
    69   1 H    0.998 --    37 C    0.973
    70   1 H    0.999 --    40 C    0.968
    71   1 H    0.998 --    41 C    0.971
    72   1 H    0.998 --    42 C    0.971
    73   1 H    0.998 --    43 C    0.970
    74   1 H    0.997 --    44 C    0.967
 ---------------------------------------------------------------------------

molecular dipole:
                 x           y           z       tot (Debye)
 q only:       -0.067      -2.905       1.722
   full:        0.069      -3.241       1.637       9.231

           -------------------------------------------------
          | TOTAL ENERGY             -125.923743824436 Eh   |
          | GRADIENT NORM               0.000368509514 Eh/Î± |
          | HOMO-LUMO GAP               2.786058368779 eV   |
           -------------------------------------------------

 * finished run on 2022/03/17 at 02:13:55.331
