   * xtb version 6.3.3 (4ae9cef) compiled by 'conda@95abc7406d43' on 2020-10-14
          program call               : xtb acid_23.xyz --opt --chrg 0 --uhf 0 --gfn 2
          number of atoms            :                    72
          number of electrons        :                   234
          charge                     :                     0
          spin                       :                   0.0

   ID    Z sym.   atoms
    1    6 C      1, 3-16, 18, 20-24, 28, 29, 31, 32, 36-40, 44, 45
    2    8 O      2, 17, 26, 27, 30, 33, 34, 42, 43, 46
    3    7 N      19, 25, 35, 41
    4    1 H      47-72

          :  Hamiltonian                  GFN2-xTB          :
 * total energy  :  -133.9735967 Eh     change       -0.1510102E-08 Eh
 * total energy  :  -133.9918442 Eh     change       -0.1824746E-01 Eh
 * total energy  :  -133.9964629 Eh     change       -0.4618687E-02 Eh
 * total energy  :  -133.9977231 Eh     change       -0.1260229E-02 Eh
 * total energy  :  -133.9984447 Eh     change       -0.7215807E-03 Eh
 * total energy  :  -133.9988151 Eh     change       -0.3704137E-03 Eh
 * total energy  :  -133.9992266 Eh     change       -0.4115249E-03 Eh
 * total energy  :  -133.9995295 Eh     change       -0.3028297E-03 Eh
 * total energy  :  -133.9997751 Eh     change       -0.2456446E-03 Eh
 * total energy  :  -134.0000493 Eh     change       -0.2742166E-03 Eh
 * total energy  :  -134.0068863 Eh     change       -0.3563796E-04 Eh
 * total energy  :  -134.0069118 Eh     change       -0.2542569E-04 Eh
 * total energy  :  -134.0069368 Eh     change       -0.2503937E-04 Eh
 * total energy  :  -134.0069614 Eh     change       -0.2461432E-04 Eh
 * total energy  :  -134.0069870 Eh     change       -0.2562212E-04 Eh
 * total energy  :  -134.0069993 Eh     change       -0.1222217E-04 Eh
 * total energy  :  -134.0070162 Eh     change       -0.1689319E-04 Eh
 * total energy  :  -134.0070218 Eh     change       -0.5608452E-05 Eh
 * total energy  :  -134.0070267 Eh     change       -0.4931971E-05 Eh
   *** GEOMETRY OPTIMIZATION CONVERGED AFTER 94 ITERATIONS ***

 final structure:
================
72
 xtb: 6.3.3 (4ae9cef)
C         2.16279847894250   -1.83460963496675    0.12543690209047
O         1.65099971075438   -2.42859309611712   -0.98699894790429
C         2.19421292607046   -3.66157545081658   -1.41117777422642
C         3.25852739281628   -2.31041076918694    0.83603343927488
C         3.71065565149176   -1.63468349505098    1.95647085753110
C         3.07574808258877   -0.48571535460340    2.38959744189386
C         1.98598952627306   -0.00538236476310    1.68557635229147
C         1.53224986597323   -0.65569386607273    0.55021787658100
C         0.35050092038533   -0.12787497849777   -0.21511548676803
C        -0.97285039542101   -0.29005590860507    0.55653459430293
C        -1.66784045956703   -1.55990087533663    0.14870674273395
C        -2.54646656690103   -1.60682053514047   -0.91740312545213
C        -3.14458900632692   -2.79839149916157   -1.29053197569137
C        -2.84846246800578   -3.95418390826252   -0.59461745423351
C        -1.95560382007397   -3.93027407448307    0.46380674525209
C        -1.35327775801684   -2.73719183115673    0.84215567709129
O        -0.44297452234845   -2.61177796639197    1.84846823108156
C        -0.12190085856119   -3.74648998775704    2.61568117683852
N        -1.71754198055386    0.91691180777444    0.21670425687117
C        -2.93858203532919    1.11122350961506    0.81144600753675
C        -3.59142759261483    2.42663106847584    0.52339084999482
C        -3.78917793456231    2.86624205988802   -0.78325512026390
C        -4.44423705466911    4.05828707206595   -1.02060242320083
C        -4.89718188691751    4.80864855172040    0.05792486542888
N        -5.57377357110093    6.05978720173235   -0.19007813074238
O        -5.69147444150821    6.41419087413799   -1.34365815866324
O        -5.98128247526993    6.67859607573987    0.76791214104703
C        -4.72179357505706    4.37202633040273    1.36551685863261
C        -4.07693792014283    3.17273411204333    1.59336414123736
O        -3.48611697860414    0.24816834093369    1.45575953345393
C        -0.80670562345301    1.98469015118794   -0.09704568044952
C        -0.59947446681847    2.92953507349260    1.13628803032049
O         0.18514898369838    3.95860470800941    0.92032126173847
O        -1.15283951723845    2.71048768281480    2.17504455755331
N         0.42614758334063    1.30719773569138   -0.46644490610754
C         1.45035162107950    1.95171781241147   -1.04353054818800
C         2.61007232093971    1.08554484618025   -1.41190204263554
C         2.52730765449553    0.16988618755653   -2.45530751344534
C         3.57429041393246   -0.69943892664339   -2.68671572478033
C         4.69904691779689   -0.63409133962657   -1.87448600714358
N         5.73370668948226   -1.62684586275110   -2.02266000263216
O         5.43414942451082   -2.65012599798707   -2.60389168962246
O         6.81570940788643   -1.39734023589161   -1.53381215250497
C         4.83029569742932    0.33993105149385   -0.89266002202298
C         3.78079027482816    1.20629887281689   -0.66755689271034
O         1.44937351628862    3.16907637863833   -1.20891364598467
H         2.13450695645136   -4.41523971079667   -0.62152512978595
H         1.57665954191203   -3.97452681264333   -2.25114509271198
H         3.23136712627618   -3.55874535400179   -1.74342810313262
H         3.76729806116339   -3.20784721535640    0.52211667571305
H         4.56450429427921   -2.01845833090538    2.49372026801844
H         3.42220863657630    0.03148252922184    3.27016611100438
H         1.48139954836187    0.88997344632122    2.01949154894062
H         0.27396482093078   -0.66244092729802   -1.16870958860473
H        -0.78695656810633   -0.32193459131964    1.63788521335082
H        -2.77603983015414   -0.69735970838279   -1.45215931833142
H        -3.83785177895043   -2.82087601099617   -2.11685522567862
H        -3.31165597853733   -4.88890898684732   -0.87284761502192
H        -1.73884454789493   -4.84711747247669    0.98854344115519
H        -1.00158569344178   -4.14913101767315    3.12653581632326
H         0.60074239401917   -3.40276802231276    3.35423560495895
H         0.33549583173742   -4.53019299657156    2.00276240909084
H        -3.45320281341116    2.26415234406623   -1.61469295511829
H        -4.61466797538097    4.41977346008683   -2.02333646313867
H        -5.09589695253439    4.97473774863531    2.17873007241924
H        -3.92714190758573    2.80539798684123    2.59562517712196
H        -1.15955868985721    2.60565315634906   -0.93636556368601
H         0.64762449481345    3.91928645464287    0.03285624027731
H         1.64420608853447    0.12576347924931   -3.07333250972056
H         3.52507389894029   -1.43904391345752   -3.47105646791243
H         5.73454969847898    0.38324440363436   -0.30577720790777
H         3.84824119141926    1.95618051640141    0.10456954696360

          :  Hamiltonian                  GFN2-xTB          :
         :: total energy            -134.007026698268 Eh    ::
         :: gradient norm              0.000506400665 Eh/a0 ::
         :: HOMO-LUMO gap              1.351341623254 eV    ::
         :: SCC energy              -135.716136302277 Eh    ::
         :: -> dispersion             -0.108457613210 Eh    ::
         :: repulsion energy           1.705184987406 Eh    ::

    * Orbital Energies and Occupations

         #    Occupation            Energy/Eh            Energy/eV
      -------------------------------------------------------------
         1        2.0000           -0.7941860             -21.6109
       ...           ...                  ...                  ...
       105        2.0000           -0.4515352             -12.2869
       106        2.0000           -0.4506447             -12.2627
       107        2.0000           -0.4484770             -12.2037
       108        2.0000           -0.4470380             -12.1645
       109        2.0000           -0.4415808             -12.0160
       110        2.0000           -0.4409860             -11.9998
       111        2.0000           -0.4341165             -11.8129
       112        2.0000           -0.4333492             -11.7920
       113        2.0000           -0.4220183             -11.4837
       114        2.0000           -0.4170017             -11.3472
       115        2.0000           -0.4105306             -11.1711
       116        2.0000           -0.4094420             -11.1415
       117        2.0000           -0.3933536             -10.7037 (HOMO)
       118                         -0.3436927              -9.3524 (LUMO)
       119                         -0.3260067              -8.8711
       120                         -0.2846545              -7.7458
       121                         -0.2798679              -7.6156
       122                         -0.2671524              -7.2696
       123                         -0.2654430              -7.2231
       124                         -0.2608165              -7.0972
       125                         -0.2592968              -7.0558
       126                         -0.2517393              -6.8502
       127                         -0.2451841              -6.6718
       128                         -0.2399631              -6.5297
       ...                                ...                  ...
       210                          0.6526452              17.7594
      -------------------------------------------------------------
                  HL-Gap            0.0496609 Eh            1.3513 eV

     #   Z          covCN         q      C6AA      Î±(0)
     1   6 C        2.866     0.139    24.964     8.190
     2   8 O        1.705    -0.280    18.648     5.830
     3   6 C        3.642     0.031    20.395     6.493
     4   6 C        2.917    -0.068    29.695     8.936
     5   6 C        2.921    -0.031    28.780     8.797
     6   6 C        2.917    -0.040    28.994     8.830
     7   6 C        2.923    -0.034    28.844     8.807
     8   6 C        2.973    -0.024    28.607     8.773
     9   6 C        3.822     0.036    19.955     6.357
    10   6 C        3.837     0.051    19.694     6.313
    11   6 C        2.975    -0.009    28.240     8.717
    12   6 C        2.923    -0.029    28.725     8.789
    13   6 C        2.918    -0.039    28.966     8.826
    14   6 C        2.921    -0.030    28.744     8.792
    15   6 C        2.918    -0.063    29.579     8.918
    16   6 C        2.869     0.144    24.868     8.174
    17   8 O        1.705    -0.275    18.561     5.817
    18   6 C        3.643     0.038    20.266     6.471
    19   7 N        2.760    -0.123    23.674     7.226
    20   6 C        2.768     0.281    22.239     7.723
    21   6 C        2.975    -0.003    28.086     8.693
    22   6 C        2.922    -0.030    28.738     8.791
    23   6 C        2.918    -0.022    28.553     8.762
    24   6 C        2.917     0.005    27.900     8.662
    25   7 N        2.759     0.547    13.512     5.460
    26   8 O        0.930    -0.385    21.343     6.196
    27   8 O        0.930    -0.379    21.227     6.179
    28   6 C        2.918    -0.017    28.428     8.743
    29   6 C        2.925    -0.010    28.263     8.718
    30   8 O        0.859    -0.390    21.485     6.215
    31   6 C        3.761     0.075    19.378     6.275
    32   6 C        2.683     0.348    21.089     7.515
    33   8 O        1.654    -0.365    20.186     6.065
    34   8 O        0.856    -0.366    21.009     6.145
    35   7 N        2.763    -0.100    23.198     7.153
    36   6 C        2.765     0.269    22.464     7.762
    37   6 C        2.980     0.005    27.900     8.664
    38   6 C        2.922    -0.018    28.450     8.747
    39   6 C        2.919    -0.015    28.379     8.736
    40   6 C        2.919     0.007    27.872     8.658
    41   7 N        2.760     0.548    13.506     5.458
    42   8 O        0.930    -0.391    21.463     6.213
    43   8 O        0.929    -0.372    21.092     6.159
    44   6 C        2.918    -0.018    28.465     8.749
    45   6 C        2.926    -0.016    28.411     8.741
    46   8 O        0.859    -0.450    22.710     6.389
    47   1 H        0.924     0.046     2.373     2.409
    48   1 H        0.925     0.067     2.118     2.276
    49   1 H        0.924     0.059     2.213     2.327
    50   1 H        0.926     0.047     2.353     2.399
    51   1 H        0.926     0.049     2.334     2.389
    52   1 H        0.926     0.049     2.333     2.388
    53   1 H        0.926     0.042     2.425     2.435
    54   1 H        0.924     0.071     2.078     2.254
    55   1 H        0.924     0.079     1.994     2.208
    56   1 H        0.926     0.036     2.509     2.477
    57   1 H        0.926     0.042     2.425     2.435
    58   1 H        0.926     0.043     2.413     2.429
    59   1 H        0.926     0.042     2.416     2.430
    60   1 H        0.924     0.049     2.327     2.386
    61   1 H        0.925     0.063     2.163     2.300
    62   1 H        0.924     0.038     2.477     2.461
    63   1 H        0.926     0.048     2.341     2.392
    64   1 H        0.926     0.084     1.940     2.178
    65   1 H        0.926     0.090     1.880     2.144
    66   1 H        0.926     0.084     1.935     2.175
    67   1 H        0.923     0.065     2.138     2.286
    68   1 H        0.799     0.369     0.547     1.163
    69   1 H        0.926     0.061     2.182     2.310
    70   1 H        0.926     0.087     1.909     2.161
    71   1 H        0.926     0.089     1.893     2.152
    72   1 H        0.926     0.068     2.103     2.268

Wiberg/Mayer (AO) data.
largest (>0.10) Wiberg bond orders for each atom

     #   Z sym  total        # sym  WBO       # sym  WBO       # sym  WBO
 ---------------------------------------------------------------------------
     1   6 C    3.936 --     4 C    1.377     8 C    1.322     2 O    1.067
     2   8 O    2.231 --     1 C    1.067     3 C    0.973
     3   6 C    3.935 --    48 H    0.979    47 H    0.977     2 O    0.973
                            49 H    0.972
     4   6 C    3.987 --     5 C    1.438     1 C    1.377    50 H    0.965
                             7 C    0.102
     5   6 C    3.990 --     6 C    1.439     4 C    1.438    51 H    0.970
                             8 C    0.105
     6   6 C    3.991 --     5 C    1.439     7 C    1.430    52 H    0.970
     7   6 C    3.990 --     8 C    1.432     6 C    1.430    53 H    0.967
                             4 C    0.102
     8   6 C    3.981 --     7 C    1.432     1 C    1.322     9 C    0.992
                             5 C    0.105
     9   6 C    3.956 --     8 C    0.992    10 C    0.952    35 N    0.950
                            54 H    0.948
    10   6 C    3.960 --    11 C    0.993    19 N    0.958     9 C    0.952
                            55 H    0.946
    11   6 C    3.982 --    12 C    1.440    16 C    1.322    10 C    0.993
                            14 C    0.106
    12   6 C    3.990 --    11 C    1.440    13 C    1.423    56 H    0.968
                            15 C    0.102
    13   6 C    3.991 --    14 C    1.445    12 C    1.423    57 H    0.971
    14   6 C    3.990 --    13 C    1.445    15 C    1.434    58 H    0.971
                            11 C    0.106
    15   6 C    3.987 --    14 C    1.434    16 C    1.382    59 H    0.965
                            12 C    0.102
    16   6 C    3.934 --    15 C    1.382    11 C    1.322    17 O    1.061
    17   8 O    2.232 --    16 C    1.061    18 C    0.982
    18   6 C    3.943 --    17 O    0.982    61 H    0.979    62 H    0.976
                            60 H    0.976
    19   7 N    3.417 --    20 C    1.166    31 C    1.001    10 C    0.958
                            30 O    0.180
    20   6 C    3.948 --    30 O    1.724    19 N    1.166    21 C    0.967
    21   6 C    3.986 --    29 C    1.396    22 C    1.393    20 C    0.967
    22   6 C    3.991 --    23 C    1.459    21 C    1.393    63 H    0.967
                            28 C    0.103
    23   6 C    3.986 --    22 C    1.459    24 C    1.380    64 H    0.959
                            29 C    0.106
    24   6 C    3.964 --    28 C    1.382    23 C    1.380    25 N    0.961
    25   7 N    3.912 --    27 O    1.457    26 O    1.451    24 C    0.961
    26   8 O    1.934 --    25 N    1.451    27 O    0.364
    27   8 O    1.940 --    25 N    1.457    26 O    0.364
    28   6 C    3.984 --    29 C    1.454    24 C    1.382    65 H    0.959
                            22 C    0.103
    29   6 C    3.985 --    28 C    1.454    21 C    1.396    66 H    0.963
                            23 C    0.106
    30   8 O    2.049 --    20 C    1.724    19 N    0.180
    31   6 C    3.960 --    19 N    1.001    35 N    0.968    67 H    0.938
                            32 C    0.881
    32   6 C    3.931 --    34 O    1.776    33 O    1.214    31 C    0.881
    33   8 O    2.244 --    32 C    1.214    68 H    0.760    34 O    0.184
    34   8 O    2.089 --    32 C    1.776    33 O    0.184
    35   7 N    3.517 --    36 C    1.288    31 C    0.968     9 C    0.950
                            46 O    0.194
    36   6 C    3.949 --    46 O    1.593    35 N    1.288    37 C    0.966
    37   6 C    3.988 --    38 C    1.399    45 C    1.393    36 C    0.966
    38   6 C    3.989 --    39 C    1.453    37 C    1.399    69 H    0.966
                            44 C    0.104
    39   6 C    3.985 --    38 C    1.453    40 C    1.383    70 H    0.959
                            45 C    0.106
    40   6 C    3.964 --    39 C    1.383    44 C    1.378    41 N    0.962
    41   7 N    3.913 --    43 O    1.464    42 O    1.442    40 C    0.962
    42   8 O    1.927 --    41 N    1.442    43 O    0.364
    43   8 O    1.948 --    41 N    1.464    42 O    0.364
    44   6 C    3.984 --    45 C    1.456    40 C    1.378    71 H    0.959
                            38 C    0.104
    45   6 C    3.988 --    44 C    1.456    37 C    1.393    72 H    0.966
                            39 C    0.106
    46   8 O    2.018 --    36 C    1.593    35 N    0.194
    47   1 H    0.998 --     3 C    0.977
    48   1 H    0.995 --     3 C    0.979
    49   1 H    0.996 --     3 C    0.972
    50   1 H    0.997 --     4 C    0.965
    51   1 H    0.997 --     5 C    0.970
    52   1 H    0.997 --     6 C    0.970
    53   1 H    0.998 --     7 C    0.967
    54   1 H    0.995 --     9 C    0.948
    55   1 H    0.993 --    10 C    0.946
    56   1 H    0.998 --    12 C    0.968
    57   1 H    0.998 --    13 C    0.971
    58   1 H    0.998 --    14 C    0.971
    59   1 H    0.998 --    15 C    0.965
    60   1 H    0.997 --    18 C    0.976
    61   1 H    0.996 --    18 C    0.979
    62   1 H    0.999 --    18 C    0.976
    63   1 H    0.997 --    22 C    0.967
    64   1 H    0.992 --    23 C    0.959
    65   1 H    0.991 --    28 C    0.959
    66   1 H    0.992 --    29 C    0.963
    67   1 H    0.995 --    31 C    0.938
    68   1 H    0.864 --    33 O    0.760
    69   1 H    0.996 --    38 C    0.966
    70   1 H    0.992 --    39 C    0.959
    71   1 H    0.992 --    44 C    0.959
    72   1 H    0.995 --    45 C    0.966
 ---------------------------------------------------------------------------

molecular dipole:
                 x           y           z       tot (Debye)
 q only:        1.278      -2.875      -0.506
   full:        1.500      -3.046      -0.781       8.856

           -------------------------------------------------
          | TOTAL ENERGY             -134.007026698268 Eh   |
          | GRADIENT NORM               0.000506400665 Eh/Î± |
          | HOMO-LUMO GAP               1.351341623254 eV   |
           -------------------------------------------------

 * finished run on 2022/03/16 at 22:45:23.427
