   * xtb version 6.3.3 (4ae9cef) compiled by 'conda@95abc7406d43' on 2020-10-14
          program call               : xtb acid_393.xyz --opt --chrg 0 --uhf 0 --gfn 2
          number of atoms            :                    78
          number of electrons        :                   262
          charge                     :                     0
          spin                       :                   0.0

   ID    Z sym.   atoms
    1    6 C      1-22, 24-27, 31-34, 36, 37, 41-48
    2    7 N      23, 40
    3    9 F      28-30, 49-51
    4    8 O      35, 38, 39, 52
    5    1 H      53-78

          :  Hamiltonian                  GFN2-xTB          :
 * total energy  :  -149.4786923 Eh     change       -0.3602850E-08 Eh
 * total energy  :  -149.4971724 Eh     change       -0.1848010E-01 Eh
 * total energy  :  -149.5025169 Eh     change       -0.5344491E-02 Eh
 * total energy  :  -149.5037574 Eh     change       -0.1240539E-02 Eh
 * total energy  :  -149.5046356 Eh     change       -0.8781692E-03 Eh
 * total energy  :  -149.5050713 Eh     change       -0.4357266E-03 Eh
 * total energy  :  -149.5053613 Eh     change       -0.2899875E-03 Eh
 * total energy  :  -149.5055882 Eh     change       -0.2268530E-03 Eh
 * total energy  :  -149.5057987 Eh     change       -0.2104887E-03 Eh
 * total energy  :  -149.5060075 Eh     change       -0.2088647E-03 Eh
 * total energy  :  -149.5088386 Eh     change       -0.9631362E-05 Eh
 * total energy  :  -149.5088459 Eh     change       -0.7342776E-05 Eh
 * total energy  :  -149.5088376 Eh     change        0.8345873E-05 Eh
 * total energy  :  -149.5088486 Eh     change       -0.1105228E-04 Eh
 * total energy  :  -149.5088559 Eh     change       -0.7242385E-05 Eh
 * total energy  :  -149.5088480 Eh     change        0.7873804E-05 Eh
 * total energy  :  -149.5088586 Eh     change       -0.1063486E-04 Eh
 * total energy  :  -149.5088657 Eh     change       -0.7086978E-05 Eh
 * total energy  :  -149.5088704 Eh     change       -0.4716020E-05 Eh
   *** GEOMETRY OPTIMIZATION CONVERGED AFTER 79 ITERATIONS ***

 final structure:
================
78
 xtb: 6.3.3 (4ae9cef)
C         1.67792203971727   -1.72730656256133   -1.45284175264556
C         2.74711149536526   -2.54647248702714   -1.23139862292548
C         3.35036425114761   -2.62030505013090    0.04107476306873
C         4.47930123825692   -3.42530972714206    0.29552423233002
C         5.03498465334235   -3.46940033962319    1.54345022137401
C         4.48570052804729   -2.71708202581380    2.59411760653344
C         3.38958076080779   -1.92997674766700    2.38103735601777
C         2.79888664054397   -1.85608914750778    1.10249240177010
C         1.68924741164443   -1.02776047059420    0.84603328113773
C         1.15424246279430   -0.93597427014867   -0.41256475340564
C         0.01403173558663    0.00561167679936   -0.69248616244002
C        -1.26472283217147   -0.33234960577759    0.12378407148359
C        -2.36420589354803   -0.84084253755206   -0.77789758021641
C        -2.20302956284616   -2.06296358006916   -1.38038998134562
C        -3.17635010963823   -2.57880629768869   -2.25664866859472
C        -3.02956500957296   -3.83417377852753   -2.88459719797793
C        -3.99407842792032   -4.30795213024613   -3.72807648441341
C        -5.14838688426980   -3.54980867521914   -3.98455532249024
C        -5.31981836896457   -2.33042956071343   -3.39206136255463
C        -4.34380362553198   -1.81322732536129   -2.51470827939269
C        -4.48723901913311   -0.56400053674939   -1.87837917133536
C        -3.52381753607175   -0.08878477878865   -1.03319633662019
N        -1.59302472589722    0.89764323821187    0.82566327009911
C        -2.19361344447902    0.84508578496241    2.04562046918837
C        -2.33905373016750    2.16713851179434    2.74192342562695
C        -1.52149404489328    2.50415510556047    3.82050164131452
C        -0.44464303071069    1.55973677512132    4.27708515008936
F        -0.90854431836033    0.60932149758446    5.10384313810164
F         0.53707368556968    2.18399063260271    4.94573613904942
F         0.15362809462135    0.91436861151527    3.25905661953016
C        -1.70773902533839    3.69977739646916    4.50111025736290
C        -2.71469907735804    4.56318370943481    4.10821510696363
C        -3.53850692285233    4.22930698862495    3.04660006313526
C        -3.35524086687669    3.03704614335315    2.36846902407070
O        -2.62048753314724   -0.18773921678993    2.50738194493331
C        -0.85624622304248    2.00005344732203    0.27036060842695
C        -1.69907727384364    2.73530110230056   -0.79538278455709
O        -1.25660798908366    2.52024038900585   -2.02978595509640
O        -2.65807478794062    3.40725269851472   -0.54018856716109
N         0.30666287020685    1.37896728876259   -0.30947254002016
C         1.41504530894177    2.11912455561198   -0.54478647465164
C         2.52871556510231    1.40694844002249   -1.25294269431343
C         2.37939194719339    1.10954670525690   -2.60237779204735
C         3.40507807538525    0.50654071175079   -3.30699302277010
C         4.59146449038477    0.18660889438749   -2.66874552741283
C         4.76326844178336    0.49966939872570   -1.33298957101967
C         3.74022321445314    1.12118224831900   -0.62872836446867
C         3.99940166524771    1.51811572337052    0.79949063343883
F         4.56868939627872    2.73281521690034    0.87959221883629
F         4.85633163080226    0.67466571511742    1.40639255931935
F         2.90855439387794    1.55328222943560    1.57127994555412
O         1.47989835971717    3.29119179426290   -0.23983849666010
H         1.22600719143904   -1.67282058547520   -2.43313834218198
H         3.15065371225224   -3.14634222893727   -2.03438879570048
H         4.89719124864914   -4.00452894375166   -0.51572225305067
H         5.90233623330888   -4.08523300836878    1.73108941378686
H         4.93990945337421   -2.76553864981693    3.57223435660802
H         2.96323390098529   -1.34327193670442    3.18065430378768
H         1.28329773722535   -0.44137492111433    1.65521777418769
H        -0.23088191769655   -0.02671496333233   -1.76409419091640
H        -1.05369190905986   -1.09782558332045    0.88087129392400
H        -1.31610693288538   -2.64894855032508   -1.18123913698490
H        -2.14010752806458   -4.41334283335944   -2.68138343243425
H        -3.87740353148136   -5.27071833295422   -4.20426216224947
H        -5.90000708240131   -3.94171796781829   -4.65391594583120
H        -6.20674631410828   -1.74452414181751   -3.58494898140591
H        -5.37944141935643    0.01622652064570   -2.06681592434736
H        -3.65670585436061    0.86523667849031   -0.54512569197425
H        -1.06241827601112    3.94840227580571    5.32940817841285
H        -2.85639235517066    5.49328008445053    4.63618936435188
H        -4.32805801081511    4.89858979115618    2.74225734646789
H        -3.99989279427279    2.77828435209644    1.54443407476890
H        -0.56470825202363    2.74027510609270    1.02739303334569
H        -1.79181676209056    3.01144882859575   -2.67545382418508
H         1.45356457138760    1.36544155197644   -3.09558709620085
H         3.27723992277371    0.28344010307780   -4.35541702018712
H         5.38922563670819   -0.29518856936838   -3.21198337454622
H         5.68898823852897    0.26634514467365   -0.83007264965378

          :  Hamiltonian                  GFN2-xTB          :
         :: total energy            -149.508870441595 Eh    ::
         :: gradient norm              0.000701471230 Eh/a0 ::
         :: HOMO-LUMO gap              3.027234595463 eV    ::
         :: SCC energy              -151.509326989836 Eh    ::
         :: -> dispersion             -0.120799340711 Eh    ::
         :: repulsion energy           1.996292659810 Eh    ::

    * Orbital Energies and Occupations

         #    Occupation            Energy/Eh            Energy/eV
      -------------------------------------------------------------
         1        2.0000           -0.8731013             -23.7583
       ...           ...                  ...                  ...
       119        2.0000           -0.4338623             -11.8060
       120        2.0000           -0.4327456             -11.7756
       121        2.0000           -0.4297321             -11.6936
       122        2.0000           -0.4260979             -11.5947
       123        2.0000           -0.4220049             -11.4833
       124        2.0000           -0.4176758             -11.3655
       125        2.0000           -0.4157169             -11.3122
       126        2.0000           -0.4141572             -11.2698
       127        2.0000           -0.4090254             -11.1301
       128        2.0000           -0.4074423             -11.0871
       129        2.0000           -0.4051957             -11.0259
       130        2.0000           -0.3891387             -10.5890
       131        2.0000           -0.3868587             -10.5270 (HOMO)
       132                         -0.2756099              -7.4997 (LUMO)
       133                         -0.2728244              -7.4239
       134                         -0.2710703              -7.3762
       135                         -0.2681336              -7.2963
       136                         -0.2655236              -7.2253
       137                         -0.2651191              -7.2143
       138                         -0.2563770              -6.9764
       139                         -0.2416235              -6.5749
       140                         -0.2380867              -6.4787
       141                         -0.2285803              -6.2200
       142                         -0.2241700              -6.1000
       ...                                ...                  ...
       234                          0.6902046              18.7814
      -------------------------------------------------------------
                  HL-Gap            0.1112488 Eh            3.0272 eV

     #   Z          covCN         q      C6AA      Î±(0)
     1   6 C        2.919    -0.042    29.041     8.837
     2   6 C        2.917    -0.038    28.939     8.821
     3   6 C        2.987     0.011    27.763     8.643
     4   6 C        2.918    -0.035    28.883     8.813
     5   6 C        2.916    -0.026    28.654     8.778
     6   6 C        2.916    -0.025    28.619     8.772
     7   6 C        2.919    -0.028    28.705     8.786
     8   6 C        2.988     0.015    27.660     8.627
     9   6 C        2.923    -0.045    29.105     8.847
    10   6 C        2.969    -0.009    28.238     8.716
    11   6 C        3.820     0.035    19.971     6.360
    12   6 C        3.832     0.039    19.894     6.346
    13   6 C        2.968     0.003    27.954     8.672
    14   6 C        2.925    -0.044    29.084     8.844
    15   6 C        2.987     0.016    27.653     8.626
    16   6 C        2.918    -0.034    28.857     8.809
    17   6 C        2.916    -0.028    28.702     8.785
    18   6 C        2.916    -0.029    28.717     8.788
    19   6 C        2.918    -0.034    28.841     8.807
    20   6 C        2.987     0.013    27.714     8.636
    21   6 C        2.918    -0.034    28.838     8.806
    22   6 C        2.918    -0.033    28.825     8.804
    23   7 N        2.763    -0.108    23.370     7.180
    24   6 C        2.762     0.276    22.332     7.739
    25   6 C        2.975    -0.010    28.267     8.721
    26   6 C        2.978    -0.024    28.588     8.770
    27   6 C        3.336     0.489    17.251     6.578
    28   9 F        0.791    -0.199    11.229     3.958
    29   9 F        0.792    -0.205    11.285     3.968
    30   9 F        0.791    -0.213    11.368     3.983
    31   6 C        2.921    -0.021    28.533     8.760
    32   6 C        2.920    -0.021    28.529     8.759
    33   6 C        2.919    -0.016    28.403     8.740
    34   6 C        2.923    -0.017    28.436     8.745
    35   8 O        0.859    -0.399    21.665     6.241
    36   6 C        3.776     0.093    19.064     6.221
    37   6 C        2.688     0.357    20.939     7.489
    38   8 O        1.659    -0.356    20.014     6.039
    39   8 O        0.856    -0.386    21.396     6.202
    40   7 N        2.766    -0.101    23.217     7.156
    41   6 C        2.765     0.275    22.342     7.741
    42   6 C        2.975    -0.002    28.068     8.690
    43   6 C        2.925    -0.023    28.571     8.766
    44   6 C        2.919    -0.019    28.490     8.753
    45   6 C        2.920    -0.022    28.548     8.762
    46   6 C        2.923    -0.020    28.510     8.756
    47   6 C        2.977    -0.019    28.476     8.753
    48   6 C        3.336     0.489    17.248     6.578
    49   9 F        0.791    -0.199    11.223     3.957
    50   9 F        0.792    -0.211    11.352     3.980
    51   9 F        0.791    -0.199    11.226     3.958
    52   8 O        0.859    -0.420    22.083     6.300
    53   1 H        0.926     0.027     2.634     2.538
    54   1 H        0.926     0.036     2.504     2.475
    55   1 H        0.926     0.033     2.547     2.496
    56   1 H        0.926     0.036     2.501     2.473
    57   1 H        0.926     0.041     2.440     2.443
    58   1 H        0.926     0.049     2.331     2.387
    59   1 H        0.926     0.060     2.201     2.320
    60   1 H        0.923     0.050     2.315     2.379
    61   1 H        0.924     0.084     1.939     2.178
    62   1 H        0.925     0.035     2.523     2.484
    63   1 H        0.926     0.035     2.523     2.484
    64   1 H        0.926     0.034     2.527     2.486
    65   1 H        0.926     0.034     2.527     2.486
    66   1 H        0.926     0.035     2.517     2.481
    67   1 H        0.926     0.039     2.463     2.454
    68   1 H        0.926     0.031     2.578     2.511
    69   1 H        0.926     0.067     2.117     2.275
    70   1 H        0.926     0.059     2.216     2.328
    71   1 H        0.926     0.061     2.183     2.310
    72   1 H        0.926     0.066     2.131     2.283
    73   1 H        0.923     0.092     1.859     2.132
    74   1 H        0.804     0.344     0.601     1.218
    75   1 H        0.926     0.053     2.283     2.363
    76   1 H        0.926     0.056     2.241     2.341
    77   1 H        0.926     0.058     2.221     2.330
    78   1 H        0.926     0.066     2.131     2.283

Wiberg/Mayer (AO) data.
largest (>0.10) Wiberg bond orders for each atom

     #   Z sym  total        # sym  WBO       # sym  WBO       # sym  WBO
 ---------------------------------------------------------------------------
     1   6 C    3.990 --     2 C    1.560    10 C    1.295    53 H    0.967
     2   6 C    3.991 --     1 C    1.560     3 C    1.278    54 H    0.968
                             9 C    0.114
     3   6 C    3.990 --     4 C    1.281     2 C    1.278     8 C    1.249
     4   6 C    3.992 --     5 C    1.557     3 C    1.281    55 H    0.968
                             7 C    0.118
     5   6 C    3.989 --     4 C    1.557     6 C    1.320    56 H    0.971
     6   6 C    3.992 --     7 C    1.559     5 C    1.320    57 H    0.970
     7   6 C    3.989 --     6 C    1.559     8 C    1.277    58 H    0.967
                             4 C    0.118
     8   6 C    3.990 --     9 C    1.286     7 C    1.277     3 C    1.249
     9   6 C    3.989 --    10 C    1.521     8 C    1.286    59 H    0.962
                             2 C    0.114
    10   6 C    3.984 --     9 C    1.521     1 C    1.295    11 C    0.991
    11   6 C    3.959 --    10 C    0.991    40 N    0.959    60 H    0.953
                            12 C    0.948
    12   6 C    3.956 --    13 C    0.987    23 N    0.964    11 C    0.948
                            61 H    0.945
    13   6 C    3.985 --    14 C    1.515    22 C    1.306    12 C    0.987
    14   6 C    3.990 --    13 C    1.515    15 C    1.290    62 H    0.966
                            21 C    0.118
    15   6 C    3.990 --    14 C    1.290    16 C    1.275    20 C    1.248
    16   6 C    3.990 --    17 C    1.561    15 C    1.275    63 H    0.968
                            19 C    0.119
    17   6 C    3.992 --    16 C    1.561    18 C    1.318    64 H    0.971
    18   6 C    3.990 --    19 C    1.560    17 C    1.318    65 H    0.971
    19   6 C    3.992 --    18 C    1.560    20 C    1.279    66 H    0.968
                            16 C    0.119
    20   6 C    3.990 --    21 C    1.283    19 C    1.279    15 C    1.248
    21   6 C    3.991 --    22 C    1.553    20 C    1.283    67 H    0.968
                            14 C    0.118
    22   6 C    3.991 --    21 C    1.553    13 C    1.306    68 H    0.966
    23   7 N    3.466 --    24 C    1.199    36 C    0.986    12 C    0.964
                            35 O    0.191
    24   6 C    3.949 --    35 O    1.712    23 N    1.199    25 C    0.953
    25   6 C    3.987 --    34 C    1.409    26 C    1.382    24 C    0.953
                            32 C    0.109
    26   6 C    3.973 --    31 C    1.416    25 C    1.382    27 C    0.951
                            33 C    0.107
    27   6 C    3.825 --    26 C    0.951    29 F    0.950    28 F    0.949
                            30 F    0.939
    28   9 F    1.080 --    27 C    0.949
    29   9 F    1.073 --    27 C    0.950
    30   9 F    1.069 --    27 C    0.939
    31   6 C    3.987 --    32 C    1.440    26 C    1.416    69 H    0.965
                            34 C    0.110
    32   6 C    3.990 --    31 C    1.440    33 C    1.439    70 H    0.969
                            25 C    0.109
    33   6 C    3.989 --    34 C    1.440    32 C    1.439    71 H    0.968
                            26 C    0.107
    34   6 C    3.988 --    33 C    1.440    25 C    1.409    72 H    0.966
                            31 C    0.110
    35   8 O    2.043 --    24 C    1.712    23 N    0.191
    36   6 C    3.968 --    40 N    0.987    23 N    0.986    73 H    0.934
                            37 C    0.909
    37   6 C    3.919 --    39 O    1.780    38 O    1.161    36 C    0.909
    38   8 O    2.226 --    37 C    1.161    74 H    0.855    39 O    0.183
    39   8 O    2.063 --    37 C    1.780    38 O    0.183
    40   7 N    3.480 --    41 C    1.222    36 C    0.987    11 C    0.959
                            52 O    0.195
    41   6 C    3.951 --    52 O    1.687    40 N    1.222    42 C    0.956
    42   6 C    3.986 --    43 C    1.402    47 C    1.388    41 C    0.956
                            45 C    0.109
    43   6 C    3.989 --    44 C    1.445    42 C    1.402    75 H    0.967
                            46 C    0.110
    44   6 C    3.990 --    43 C    1.445    45 C    1.435    76 H    0.968
                            47 C    0.106
    45   6 C    3.990 --    46 C    1.442    44 C    1.435    77 H    0.969
                            42 C    0.109
    46   6 C    3.987 --    45 C    1.442    47 C    1.414    78 H    0.966
                            43 C    0.110
    47   6 C    3.976 --    46 C    1.414    42 C    1.388    48 C    0.950
                            44 C    0.106
    48   6 C    3.829 --    51 F    0.954    47 C    0.950    49 F    0.947
                            50 F    0.941
    49   9 F    1.079 --    48 C    0.947
    50   9 F    1.065 --    48 C    0.941
    51   9 F    1.084 --    48 C    0.954
    52   8 O    2.022 --    41 C    1.687    40 N    0.195
    53   1 H    0.999 --     1 C    0.967
    54   1 H    0.998 --     2 C    0.968
    55   1 H    0.998 --     4 C    0.968
    56   1 H    0.998 --     5 C    0.971
    57   1 H    0.998 --     6 C    0.970
    58   1 H    0.997 --     7 C    0.967
    59   1 H    0.996 --     9 C    0.962
    60   1 H    0.997 --    11 C    0.953
    61   1 H    0.992 --    12 C    0.945
    62   1 H    0.998 --    14 C    0.966
    63   1 H    0.998 --    16 C    0.968
    64   1 H    0.998 --    17 C    0.971
    65   1 H    0.998 --    18 C    0.971
    66   1 H    0.998 --    19 C    0.968
    67   1 H    0.998 --    21 C    0.968
    68   1 H    0.999 --    22 C    0.966
    69   1 H    0.995 --    31 C    0.965
    70   1 H    0.996 --    32 C    0.969
    71   1 H    0.995 --    33 C    0.968
    72   1 H    0.995 --    34 C    0.966
    73   1 H    0.991 --    36 C    0.934
    74   1 H    0.881 --    38 O    0.855
    75   1 H    0.997 --    43 C    0.967
    76   1 H    0.996 --    44 C    0.968
    77   1 H    0.996 --    45 C    0.969
    78   1 H    0.995 --    46 C    0.966
 ---------------------------------------------------------------------------

molecular dipole:
                 x           y           z       tot (Debye)
 q only:       -0.554      -0.734      -3.024
   full:       -0.482      -0.535      -3.175       8.274

           -------------------------------------------------
          | TOTAL ENERGY             -149.508870441595 Eh   |
          | GRADIENT NORM               0.000701471230 Eh/Î± |
          | HOMO-LUMO GAP               3.027234595463 eV   |
           -------------------------------------------------

 * finished run on 2022/03/17 at 00:39:31.052
