   * xtb version 6.3.3 (4ae9cef) compiled by 'conda@95abc7406d43' on 2020-10-14
          program call               : xtb alk_12.xyz --opt --chrg 0 --uhf 0 --gfn 2
          number of atoms            :                    22
          number of electrons        :                    52
          charge                     :                     0
          spin                       :                   0.0

   ID    Z sym.   atoms
    1    6 C      1-10
    2    1 H      11-22

          :  Hamiltonian                  GFN2-xTB          :
 * total energy  :   -27.4887859 Eh     change       -0.1914096E-09 Eh
 * total energy  :   -27.4911010 Eh     change       -0.2315151E-02 Eh
 * total energy  :   -27.4912699 Eh     change       -0.1688518E-03 Eh
 * total energy  :   -27.4913107 Eh     change       -0.4087489E-04 Eh
 * total energy  :   -27.4913380 Eh     change       -0.2724426E-04 Eh
 * total energy  :   -27.4913540 Eh     change       -0.1597298E-04 Eh
 * total energy  :   -27.4913461 Eh     change        0.7843727E-05 Eh
 * total energy  :   -27.4913596 Eh     change       -0.1353149E-04 Eh
 * total energy  :   -27.4913702 Eh     change       -0.1052136E-04 Eh
 * total energy  :   -27.4913755 Eh     change       -0.5343168E-05 Eh
 * total energy  :   -27.4913796 Eh     change       -0.4068897E-05 Eh
   *** GEOMETRY OPTIMIZATION CONVERGED AFTER 11 ITERATIONS ***

 final structure:
================
22
 xtb: 6.3.3 (4ae9cef)
C        -3.54681668852766   -0.21220949595013    1.01182464568359
C        -2.14630089981202   -0.19246416505563    0.47763184810693
C        -1.49163130664535   -1.37317522635060    0.15332615530515
C        -0.19555251737038   -1.35637469662217   -0.32958095084316
C         0.48029190342142   -0.15710192926619   -0.50504989093068
C         1.89892846472847   -0.12765216487822   -1.01038986610276
C         2.84787562670537    0.01239345231907    0.14266733400637
C         3.71199664831368    0.99920913992866    0.28371166544060
C        -0.16853416646147    1.02427311355332   -0.16988074604045
C        -1.46363540989974    1.00640899975824    0.31252072392672
H        -3.53112271216276   -0.28458811893210    2.10007302668053
H        -4.07705975182148    0.69879112787558    0.74331501881263
H        -4.09696483480208   -1.06765309953915    0.62603727335572
H        -2.00346210009281   -2.31746540159229    0.27678729557031
H         0.29295981568785   -2.28801934454768   -0.57997214987674
H         2.11571594451448   -1.05918378703630   -1.54067913165373
H         2.03520778458064    0.70636404673688   -1.70164346041216
H         2.77147910915399   -0.76289239946707    0.89419818454311
H         4.37264951677648    1.06390165654888    1.13155371199792
H         3.80115027798734    1.78430361506362   -0.44975744167481
H         0.34699928362078    1.96632238456813   -0.29228394361628
H        -1.95417598789467    1.93681329288523    0.56248569772115

          :  Hamiltonian                  GFN2-xTB          :
         :: total energy             -27.491379577606 Eh    ::
         :: gradient norm              0.000384096598 Eh/a0 ::
         :: HOMO-LUMO gap              4.507883370291 eV    ::
         :: SCC energy               -28.009658414900 Eh    ::
         :: -> dispersion             -0.017507442829 Eh    ::
         :: repulsion energy           0.518264418503 Eh    ::

    * Orbital Energies and Occupations

         #    Occupation            Energy/Eh            Energy/eV
      -------------------------------------------------------------
         1        2.0000           -0.6401488             -17.4193
       ...           ...                  ...                  ...
        14        2.0000           -0.4901079             -13.3365
        15        2.0000           -0.4807986             -13.0832
        16        2.0000           -0.4711138             -12.8197
        17        2.0000           -0.4708652             -12.8129
        18        2.0000           -0.4587663             -12.4837
        19        2.0000           -0.4534712             -12.3396
        20        2.0000           -0.4435792             -12.0704
        21        2.0000           -0.4306808             -11.7194
        22        2.0000           -0.4232662             -11.5177
        23        2.0000           -0.4132516             -11.2451
        24        2.0000           -0.3982102             -10.8359
        25        2.0000           -0.3964386             -10.7876
        26        2.0000           -0.3818152             -10.3897 (HOMO)
        27                         -0.2161536              -5.8818 (LUMO)
        28                         -0.2151250              -5.8539
        29                         -0.1956314              -5.3234
        30                         -0.0869210              -2.3652
        31                          0.1013370               2.7575
        32                          0.1102050               2.9988
        33                          0.1282249               3.4892
        34                          0.1372704               3.7353
        35                          0.1545184               4.2047
        36                          0.1634247               4.4470
        37                          0.1708582               4.6493
       ...                                ...                  ...
        52                          0.6629068              18.0386
      -------------------------------------------------------------
                  HL-Gap            0.1656617 Eh            4.5079 eV

     #   Z          covCN         q      C6AA      Î±(0)
     1   6 C        3.757    -0.108    22.615     6.780
     2   6 C        2.966     0.013    27.712     8.635
     3   6 C        2.924    -0.041    29.026     8.835
     4   6 C        2.923    -0.040    28.989     8.830
     5   6 C        2.974     0.011    27.763     8.643
     6   6 C        3.812    -0.063    21.691     6.629
     7   6 C        2.890    -0.022    28.551     8.760
     8   6 C        2.837    -0.095    30.371     9.031
     9   6 C        2.924    -0.039    28.974     8.827
    10   6 C        2.924    -0.041    29.016     8.834
    11   1 H        0.924     0.045     2.378     2.412
    12   1 H        0.925     0.041     2.435     2.440
    13   1 H        0.925     0.041     2.435     2.440
    14   1 H        0.926     0.027     2.623     2.533
    15   1 H        0.925     0.027     2.631     2.536
    16   1 H        0.924     0.043     2.406     2.426
    17   1 H        0.924     0.043     2.414     2.430
    18   1 H        0.925     0.031     2.576     2.510
    19   1 H        0.926     0.033     2.537     2.491
    20   1 H        0.926     0.035     2.513     2.479
    21   1 H        0.926     0.029     2.600     2.522
    22   1 H        0.926     0.028     2.619     2.531

Wiberg/Mayer (AO) data.
largest (>0.10) Wiberg bond orders for each atom

     #   Z sym  total        # sym  WBO       # sym  WBO       # sym  WBO
 ---------------------------------------------------------------------------
     1   6 C    3.996 --     2 C    1.025    13 H    0.982    12 H    0.982
                            11 H    0.968
     2   6 C    3.988 --     3 C    1.413    10 C    1.407     1 C    1.025
                             5 C    0.106
     3   6 C    3.991 --     4 C    1.446     2 C    1.413    14 H    0.970
                             9 C    0.109
     4   6 C    3.991 --     3 C    1.446     5 C    1.413    15 H    0.969
                            10 C    0.108
     5   6 C    3.988 --     4 C    1.413     9 C    1.407     6 C    0.995
                             2 C    0.106
     6   6 C    3.997 --     7 C    1.010     5 C    0.995    17 H    0.969
                            16 H    0.959
     7   6 C    3.990 --     8 C    1.976     6 C    1.010    18 H    0.967
     8   6 C    3.989 --     7 C    1.976    19 H    0.976    20 H    0.975
     9   6 C    3.992 --    10 C    1.453     5 C    1.407    21 H    0.970
                             3 C    0.109
    10   6 C    3.992 --     9 C    1.453     2 C    1.407    22 H    0.970
                             4 C    0.108
    11   1 H    0.997 --     1 C    0.968
    12   1 H    0.998 --     1 C    0.982
    13   1 H    0.998 --     1 C    0.982
    14   1 H    0.999 --     3 C    0.970
    15   1 H    0.999 --     4 C    0.969
    16   1 H    0.998 --     6 C    0.959
    17   1 H    0.998 --     6 C    0.969
    18   1 H    0.999 --     7 C    0.967
    19   1 H    0.998 --     8 C    0.976
    20   1 H    0.999 --     8 C    0.975
    21   1 H    0.999 --     9 C    0.970
    22   1 H    0.999 --    10 C    0.970
 ---------------------------------------------------------------------------

molecular dipole:
                 x           y           z       tot (Debye)
 q only:       -0.153      -0.042      -0.026
   full:       -0.164      -0.051       0.000       0.437

           -------------------------------------------------
          | TOTAL ENERGY              -27.491379577606 Eh   |
          | GRADIENT NORM               0.000384096598 Eh/Î± |
          | HOMO-LUMO GAP               4.507883370291 eV   |
           -------------------------------------------------

 * finished run on 2022/03/17 at 02:19:23.397
