   * xtb version 6.3.3 (4ae9cef) compiled by 'conda@95abc7406d43' on 2020-10-14
          program call               : xtb acid_277.xyz --opt --chrg 0 --uhf 0 --gfn 2
          number of atoms            :                    72
          number of electrons        :                   218
          charge                     :                     0
          spin                       :                   0.0

   ID    Z sym.   atoms
    1    6 C      1-22, 24-29, 32, 33, 37-42
    2    7 N      23, 36
    3   16 S      30, 43
    4    8 O      31, 34, 35, 44
    5    1 H      45-72

          :  Hamiltonian                  GFN2-xTB          :
 * total energy  :  -119.9921054 Eh     change       -0.3285535E-08 Eh
 * total energy  :  -120.0089062 Eh     change       -0.1680074E-01 Eh
 * total energy  :  -120.0142506 Eh     change       -0.5344381E-02 Eh
 * total energy  :  -120.0157645 Eh     change       -0.1513956E-02 Eh
 * total energy  :  -120.0167921 Eh     change       -0.1027589E-02 Eh
 * total energy  :  -120.0172866 Eh     change       -0.4944763E-03 Eh
 * total energy  :  -120.0176761 Eh     change       -0.3894807E-03 Eh
 * total energy  :  -120.0180363 Eh     change       -0.3602652E-03 Eh
 * total energy  :  -120.0183981 Eh     change       -0.3617962E-03 Eh
 * total energy  :  -120.0187589 Eh     change       -0.3608079E-03 Eh
 * total energy  :  -120.0211479 Eh     change       -0.1000628E-04 Eh
 * total energy  :  -120.0211588 Eh     change       -0.1089515E-04 Eh
 * total energy  :  -120.0211673 Eh     change       -0.8534564E-05 Eh
 * total energy  :  -120.0211766 Eh     change       -0.9266693E-05 Eh
 * total energy  :  -120.0211884 Eh     change       -0.1185091E-04 Eh
 * total energy  :  -120.0212014 Eh     change       -0.1295658E-04 Eh
 * total energy  :  -120.0212109 Eh     change       -0.9523695E-05 Eh
 * total energy  :  -120.0212161 Eh     change       -0.5164369E-05 Eh
 * total energy  :  -120.0212189 Eh     change       -0.2802779E-05 Eh
   *** GEOMETRY OPTIMIZATION CONVERGED AFTER 55 ITERATIONS ***

 final structure:
================
72
 xtb: 6.3.3 (4ae9cef)
C        -3.19830234118871   -2.66410376809284   -2.58062594649579
C        -2.44465157337283   -2.29850393226383   -3.65887015282001
C        -1.34436962648231   -1.44814722147782   -3.48216588644828
C        -1.02764316810198   -0.96415659018037   -2.24327916833111
C        -1.79635740510844   -1.30326412592984   -1.10751881814633
C        -2.89583830717523   -2.18837154006012   -1.28759216328720
C        -3.66805291045523   -2.58259582156149   -0.17608223335493
C        -3.36648110829409   -2.12786768875371    1.07480707087874
C        -2.30462225610284   -1.23449828112608    1.25491435674195
C        -1.53876220842638   -0.80427080141163    0.19873625121990
C        -0.43243617251311    0.17917737242404    0.48296777098050
C         0.98590456420108   -0.43060688709720    0.28619064147744
C         1.66981061226256   -0.66719735290032    1.61393498409706
C         2.53925529233600    0.26261178957303    2.12260197382138
C         3.15792841068620    0.08302088316838    3.36680001747381
C         2.89232217418632   -1.03062783117063    4.10829274024103
C         2.00767104708297   -2.01659526782482    3.62501218472203
C         1.38599143618822   -1.84636593734586    2.35691658648202
C         0.52268394498604   -2.86834885557081    1.90397999306188
C         0.27854259278225   -3.97900587545434    2.66317970705988
C         0.88360470608717   -4.13577893898025    3.91769354576473
C         1.73345962462498   -3.17408249500527    4.38355290138181
N         1.67368140601107    0.52810225521997   -0.56646405201764
C         2.91196848656160    0.23407891455107   -1.05870318517870
C         3.52791766988529    1.26337923951007   -1.91739938023474
C         3.08101104353708    1.83139369654236   -3.07431276011826
C         4.01029796179143    2.73029542746977   -3.63636962818038
C         5.15602590289438    2.84355028047249   -2.91023379098884
C         6.33634926975947    3.70613705330508   -3.18004960699763
S         5.11768224880753    1.81402101239944   -1.51875323953464
O         3.45349412167150   -0.81851833011195   -0.79029998268550
C         0.91084551344746    1.74214208827889   -0.70488149294792
C         1.43090264685792    2.84062270862817    0.24656875812274
O         0.56374926849416    3.12627057946076    1.21149809216372
O         2.50014270519211    3.36965460299231    0.12715717924953
N        -0.43352994011674    1.34629394902119   -0.38497626814762
C        -1.48172469687012    1.96491655843952   -0.99031196944350
C        -2.82544085627842    1.60569482336097   -0.49976046229637
C        -3.88708031423646    1.18662882760380   -1.24253416501448
C        -5.05075894261637    0.98247494485897   -0.47184245699931
C        -4.88541253430606    1.27862324097005    0.84486666834664
C        -5.88187262721722    1.19788689806223    1.94427943610400
S        -3.26522076776867    1.81234644895466    1.16354050088763
O        -1.30841182813121    2.78134176448016   -1.87533703547151
H        -4.04176056061545   -3.32937998312744   -2.69818747115684
H        -2.68331753064478   -2.66494679787361   -4.64618953299617
H        -0.74227866418678   -1.17533123020310   -4.33606824308569
H        -0.17133178822665   -0.31860666296681   -2.14472513871675
H        -4.49842613414322   -3.25501316921990   -0.33503348105256
H        -3.94683109433239   -2.43822621515453    1.93044689991376
H        -2.09132047577903   -0.86838048792913    2.24890517044286
H        -0.52477066707292    0.51436779263358    1.52656555087392
H         0.94167764019661   -1.37751351700913   -0.26303021923199
H         2.78204007352630    1.14874563121393    1.55603750301638
H         3.84411284055211    0.83534461819433    3.72594042549375
H         3.35849447476600   -1.17848954984304    5.07168976263123
H         0.04295280176732   -2.78492856059531    0.94222878902271
H        -0.38461328589244   -4.74693495693796    2.29264080167340
H         0.67948111762987   -5.02012664926681    4.50307701766456
H         2.21612569168406   -3.28416338455356    5.34425754437121
H         2.13565653971540    1.59842282558980   -3.53347217133838
H         3.82871342313062    3.27510382205330   -4.54582051265492
H         6.18503902002374    4.26867710395814   -4.09808013386051
H         6.49185526006684    4.40634678094981   -2.36016676116409
H         7.23855666303456    3.10385940254252   -3.27953657931193
H         0.95089154448822    2.16031887696476   -1.71965716237006
H         0.90142175179412    3.83434877993046    1.78469259724194
H        -3.82277129613424    1.00554467012558   -2.30020600789563
H        -5.97929364737282    0.63169187605221   -0.88546062923997
H        -6.84441475097485    0.88221368404401    1.54965784144785
H        -5.56007085232803    0.48320386361677    2.70118920400956
H        -6.00009016022329    2.16609361937125    2.42917542115191

          :  Hamiltonian                  GFN2-xTB          :
         :: total energy            -120.021218891950 Eh    ::
         :: gradient norm              0.000495422433 Eh/a0 ::
         :: HOMO-LUMO gap              2.804416751705 eV    ::
         :: SCC energy              -121.856072728374 Eh    ::
         :: -> dispersion             -0.115615683760 Eh    ::
         :: repulsion energy           1.831098367413 Eh    ::

    * Orbital Energies and Occupations

         #    Occupation            Energy/Eh            Energy/eV
      -------------------------------------------------------------
         1        2.0000           -0.7711378             -20.9837
       ...           ...                  ...                  ...
        97        2.0000           -0.4209319             -11.4541
        98        2.0000           -0.4149322             -11.2909
        99        2.0000           -0.4101409             -11.1605
       100        2.0000           -0.4064806             -11.0609
       101        2.0000           -0.4040892             -10.9958
       102        2.0000           -0.4028326             -10.9616
       103        2.0000           -0.3982614             -10.8372
       104        2.0000           -0.3971782             -10.8078
       105        2.0000           -0.3926047             -10.6833
       106        2.0000           -0.3885206             -10.5722
       107        2.0000           -0.3873594             -10.5406
       108        2.0000           -0.3800279             -10.3411
       109        2.0000           -0.3781038             -10.2887 (HOMO)
       110                         -0.2750434              -7.4843 (LUMO)
       111                         -0.2637266              -7.1764
       112                         -0.2634125              -7.1678
       113                         -0.2604459              -7.0871
       114                         -0.2501197              -6.8061
       115                         -0.2405001              -6.5443
       116                         -0.2318759              -6.3097
       117                         -0.2240979              -6.0980
       118                         -0.2103029              -5.7226
       119                         -0.2050753              -5.5804
       120                         -0.2037151              -5.5434
       ...                                ...                  ...
       214                          0.6970880              18.9687
      -------------------------------------------------------------
                  HL-Gap            0.1030604 Eh            2.8044 eV

     #   Z          covCN         q      C6AA      Î±(0)
     1   6 C        2.921    -0.033    28.827     8.805
     2   6 C        2.915    -0.027    28.686     8.783
     3   6 C        2.917    -0.026    28.648     8.777
     4   6 C        2.917    -0.036    28.888     8.814
     5   6 C        2.983     0.008    27.841     8.655
     6   6 C        2.988     0.014    27.683     8.631
     7   6 C        2.921    -0.035    28.865     8.810
     8   6 C        2.914    -0.030    28.737     8.791
     9   6 C        2.924    -0.033    28.829     8.805
    10   6 C        2.966    -0.007    28.189     8.709
    11   6 C        3.821     0.039    19.899     6.348
    12   6 C        3.824     0.048    19.758     6.325
    13   6 C        2.966     0.001    28.002     8.680
    14   6 C        2.921    -0.028    28.710     8.787
    15   6 C        2.914    -0.028    28.709     8.786
    16   6 C        2.920    -0.035    28.880     8.813
    17   6 C        2.988     0.016    27.642     8.624
    18   6 C        2.984     0.009    27.800     8.649
    19   6 C        2.917    -0.035    28.878     8.812
    20   6 C        2.917    -0.028    28.712     8.787
    21   6 C        2.915    -0.029    28.726     8.789
    22   6 C        2.921    -0.034    28.839     8.807
    23   7 N        2.763    -0.127    23.744     7.237
    24   6 C        2.795     0.274    22.375     7.749
    25   6 C        2.994    -0.019    28.479     8.754
    26   6 C        3.111    -0.047    29.007     8.823
    27   6 C        3.117    -0.057    29.237     8.856
    28   6 C        2.985     0.029    27.353     8.579
    29   6 C        3.777    -0.111    22.652     6.781
    30  16 S        2.368     0.019   140.285    19.935
    31   8 O        0.860    -0.421    22.098     6.303
    32   6 C        3.770     0.094    19.060     6.222
    33   6 C        2.687     0.354    20.986     7.497
    34   8 O        1.659    -0.355    20.002     6.038
    35   8 O        0.856    -0.388    21.445     6.209
    36   7 N        2.764    -0.109    23.386     7.182
    37   6 C        2.784     0.274    22.373     7.748
    38   6 C        2.993    -0.013    28.327     8.731
    39   6 C        3.112    -0.035    28.723     8.780
    40   6 C        3.117    -0.057    29.233     8.856
    41   6 C        2.984     0.030    27.318     8.574
    42   6 C        3.777    -0.110    22.630     6.778
    43  16 S        2.353    -0.031   142.337    20.080
    44   8 O        0.860    -0.433    22.361     6.340
    45   1 H        0.926     0.036     2.507     2.476
    46   1 H        0.926     0.036     2.501     2.473
    47   1 H        0.926     0.037     2.494     2.470
    48   1 H        0.926     0.033     2.543     2.494
    49   1 H        0.926     0.038     2.474     2.460
    50   1 H        0.926     0.036     2.502     2.474
    51   1 H        0.926     0.034     2.529     2.487
    52   1 H        0.923     0.053     2.281     2.362
    53   1 H        0.924     0.070     2.089     2.260
    54   1 H        0.926     0.027     2.624     2.533
    55   1 H        0.926     0.037     2.488     2.467
    56   1 H        0.926     0.037     2.488     2.467
    57   1 H        0.926     0.027     2.628     2.535
    58   1 H        0.926     0.031     2.566     2.505
    59   1 H        0.926     0.033     2.539     2.492
    60   1 H        0.926     0.035     2.512     2.479
    61   1 H        0.926     0.033     2.540     2.492
    62   1 H        0.926     0.041     2.436     2.441
    63   1 H        0.925     0.054     2.269     2.355
    64   1 H        0.925     0.061     2.192     2.315
    65   1 H        0.925     0.059     2.216     2.328
    66   1 H        0.923     0.096     1.818     2.109
    67   1 H        0.804     0.343     0.606     1.223
    68   1 H        0.926     0.046     2.373     2.409
    69   1 H        0.926     0.042     2.425     2.435
    70   1 H        0.925     0.055     2.253     2.347
    71   1 H        0.925     0.058     2.221     2.331
    72   1 H        0.925     0.061     2.189     2.314

Wiberg/Mayer (AO) data.
largest (>0.10) Wiberg bond orders for each atom

     #   Z sym  total        # sym  WBO       # sym  WBO       # sym  WBO
 ---------------------------------------------------------------------------
     1   6 C    3.991 --     2 C    1.556     6 C    1.280    45 H    0.968
                             4 C    0.118
     2   6 C    3.992 --     1 C    1.556     3 C    1.323    46 H    0.971
     3   6 C    3.991 --     4 C    1.553     2 C    1.323    47 H    0.971
     4   6 C    3.992 --     3 C    1.553     5 C    1.284    48 H    0.965
                             1 C    0.118
     5   6 C    3.989 --     4 C    1.284    10 C    1.252     6 C    1.252
     6   6 C    3.990 --     1 C    1.280     7 C    1.279     5 C    1.252
     7   6 C    3.990 --     8 C    1.551     6 C    1.279    49 H    0.968
                            10 C    0.114
     8   6 C    3.992 --     7 C    1.551     9 C    1.328    50 H    0.970
     9   6 C    3.990 --    10 C    1.516     8 C    1.328    51 H    0.967
    10   6 C    3.984 --     9 C    1.516     5 C    1.252    11 C    0.995
                             7 C    0.114
    11   6 C    3.964 --    10 C    0.995    36 N    0.962    52 H    0.953
                            12 C    0.944
    12   6 C    3.961 --    13 C    0.987    23 N    0.963    53 H    0.946
                            11 C    0.944
    13   6 C    3.984 --    14 C    1.530    18 C    1.249    12 C    0.987
                            16 C    0.114
    14   6 C    3.991 --    13 C    1.530    15 C    1.322    54 H    0.964
    15   6 C    3.992 --    16 C    1.557    14 C    1.322    55 H    0.970
    16   6 C    3.990 --    15 C    1.557    17 C    1.277    56 H    0.968
                            13 C    0.114
    17   6 C    3.990 --    22 C    1.281    16 C    1.277    18 C    1.254
    18   6 C    3.989 --    19 C    1.285    17 C    1.254    13 C    1.249
    19   6 C    3.992 --    20 C    1.553    18 C    1.285    57 H    0.962
                            22 C    0.118
    20   6 C    3.992 --    19 C    1.553    21 C    1.324    58 H    0.971
    21   6 C    3.992 --    22 C    1.556    20 C    1.324    59 H    0.971
    22   6 C    3.991 --    21 C    1.556    17 C    1.281    60 H    0.968
                            19 C    0.118
    23   7 N    3.452 --    24 C    1.181    32 C    0.982    12 C    0.963
                            31 O    0.184
    24   6 C    3.948 --    31 O    1.683    23 N    1.181    25 C    1.001
    25   6 C    3.947 --    26 C    1.567    30 S    1.153    24 C    1.001
                            28 C    0.106
    26   6 C    3.986 --    25 C    1.567    27 C    1.282    61 H    0.962
    27   6 C    3.984 --    28 C    1.584    26 C    1.282    62 H    0.964
    28   6 C    3.953 --    27 C    1.584    30 S    1.179    29 C    1.039
                            25 C    0.106
    29   6 C    3.994 --    28 C    1.039    63 H    0.980    65 H    0.970
                            64 H    0.968
    30  16 S    2.625 --    28 C    1.179    25 C    1.153
    31   8 O    2.020 --    24 C    1.683    23 N    0.184
    32   6 C    3.966 --    36 N    0.992    23 N    0.982    66 H    0.927
                            33 C    0.908
    33   6 C    3.917 --    35 O    1.776    34 O    1.161    32 C    0.908
    34   8 O    2.228 --    33 C    1.161    67 H    0.856    35 O    0.184
    35   8 O    2.061 --    33 C    1.776    34 O    0.184
    36   7 N    3.470 --    37 C    1.203    32 C    0.992    11 C    0.962
                            44 O    0.187
    37   6 C    3.950 --    44 O    1.664    36 N    1.203    38 C    0.998
    38   6 C    3.945 --    39 C    1.582    43 S    1.136    37 C    0.998
                            41 C    0.109
    39   6 C    3.986 --    38 C    1.582    40 C    1.275    68 H    0.964
    40   6 C    3.985 --    41 C    1.596    39 C    1.275    69 H    0.963
    41   6 C    3.951 --    40 C    1.596    43 S    1.160    42 C    1.040
                            38 C    0.109
    42   6 C    3.993 --    41 C    1.040    70 H    0.979    72 H    0.969
                            71 H    0.968
    43  16 S    2.595 --    41 C    1.160    38 C    1.136
    44   8 O    2.010 --    37 C    1.664    36 N    0.187
    45   1 H    0.998 --     1 C    0.968
    46   1 H    0.998 --     2 C    0.971
    47   1 H    0.998 --     3 C    0.971
    48   1 H    0.998 --     4 C    0.965
    49   1 H    0.997 --     7 C    0.968
    50   1 H    0.998 --     8 C    0.970
    51   1 H    0.998 --     9 C    0.967
    52   1 H    0.997 --    11 C    0.953
    53   1 H    0.994 --    12 C    0.946
    54   1 H    0.999 --    14 C    0.964
    55   1 H    0.998 --    15 C    0.970
    56   1 H    0.998 --    16 C    0.968
    57   1 H    0.999 --    19 C    0.962
    58   1 H    0.999 --    20 C    0.971
    59   1 H    0.998 --    21 C    0.971
    60   1 H    0.998 --    22 C    0.968
    61   1 H    0.999 --    26 C    0.962
    62   1 H    0.998 --    27 C    0.964
    63   1 H    0.997 --    29 C    0.980
    64   1 H    0.996 --    29 C    0.968
    65   1 H    0.996 --    29 C    0.970
    66   1 H    0.990 --    32 C    0.927
    67   1 H    0.882 --    34 O    0.856
    68   1 H    0.998 --    39 C    0.964
    69   1 H    0.998 --    40 C    0.963
    70   1 H    0.997 --    42 C    0.979
    71   1 H    0.996 --    42 C    0.968
    72   1 H    0.996 --    42 C    0.969
 ---------------------------------------------------------------------------

molecular dipole:
                 x           y           z       tot (Debye)
 q only:       -1.454      -0.310       1.385
   full:       -1.849      -0.168       1.025       5.389

           -------------------------------------------------
          | TOTAL ENERGY             -120.021218891950 Eh   |
          | GRADIENT NORM               0.000495422433 Eh/Î± |
          | HOMO-LUMO GAP               2.804416751705 eV   |
           -------------------------------------------------

 * finished run on 2022/03/16 at 23:16:45.818
