   * xtb version 6.3.3 (4ae9cef) compiled by 'conda@95abc7406d43' on 2020-10-14
          program call               : xtb acid_204.xyz --opt --chrg 0 --uhf 0 --gfn 2
          number of atoms            :                    66
          number of electrons        :                   230
          charge                     :                     0
          spin                       :                   0.0

   ID    Z sym.   atoms
    1    6 C      1, 2, 6-15, 19-22, 24-26, 28-30, 32, 33, 37-39, 41-43
    2    9 F      3-5, 16-18
    3    7 N      23, 36
    4    8 O      27, 31, 34, 35, 40, 44
    5    1 H      45-66

          :  Hamiltonian                  GFN2-xTB          :
 * total energy  :  -134.1495514 Eh     change       -0.1916391E-08 Eh
 * total energy  :  -134.1656247 Eh     change       -0.1607335E-01 Eh
 * total energy  :  -134.1704067 Eh     change       -0.4781937E-02 Eh
 * total energy  :  -134.1715840 Eh     change       -0.1177376E-02 Eh
 * total energy  :  -134.1723402 Eh     change       -0.7561814E-03 Eh
 * total energy  :  -134.1727863 Eh     change       -0.4460907E-03 Eh
 * total energy  :  -134.1732172 Eh     change       -0.4309274E-03 Eh
 * total energy  :  -134.1736862 Eh     change       -0.4689711E-03 Eh
 * total energy  :  -134.1742321 Eh     change       -0.5458484E-03 Eh
 * total energy  :  -134.1746383 Eh     change       -0.4062651E-03 Eh
 * total energy  :  -134.1845097 Eh     change       -0.8581550E-05 Eh
 * total energy  :  -134.1845182 Eh     change       -0.8408448E-05 Eh
 * total energy  :  -134.1845274 Eh     change       -0.9211593E-05 Eh
 * total energy  :  -134.1845354 Eh     change       -0.7986268E-05 Eh
 * total energy  :  -134.1845417 Eh     change       -0.6312608E-05 Eh
 * total energy  :  -134.1845481 Eh     change       -0.6448842E-05 Eh
 * total energy  :  -134.1845550 Eh     change       -0.6866366E-05 Eh
 * total energy  :  -134.1845612 Eh     change       -0.6220138E-05 Eh
 * total energy  :  -134.1845657 Eh     change       -0.4448738E-05 Eh
   *** GEOMETRY OPTIMIZATION CONVERGED AFTER 137 ITERATIONS ***

 final structure:
================
66
 xtb: 6.3.3 (4ae9cef)
C        -2.23032934253121   -2.36319968952910    2.23999248306674
C        -1.11383226628725   -2.97172983731104    3.04067052488224
F        -0.41182291036586   -2.08231804902093    3.76684604767071
F        -1.53452577366946   -3.89801326638358    3.91096293405803
F        -0.20130084034399   -3.59731597328156    2.26045895994743
C        -3.52648898780590   -2.81062747926302    2.46527441547005
C        -4.57903118543421   -2.29339085332052    1.73584306279302
C        -4.33872157881882   -1.32919791883483    0.77303842118639
C        -3.05084383265082   -0.88654509207861    0.54663226200169
C        -1.97837267813165   -1.38771795762989    1.27557511415124
C        -0.59857036325300   -0.86895039496147    0.97628466433758
C        -0.07280221175881   -1.29870169057309   -0.40786896041056
C         0.69327168153803   -2.59557251654441   -0.39928874786438
C         0.18707724292660   -3.78131874975530   -0.93567592524770
C        -1.18573160046515   -3.85195384149748   -1.54447247798262
F        -2.16013816599970   -3.57287049714719   -0.64554427441743
F        -1.38750667739746   -3.00146140115263   -2.56486487474948
F        -1.48499732238457   -5.06696840518772   -2.02332249069352
C         0.94187427286210   -4.94762724537405   -0.89734077529334
C         2.20106031242089   -4.94868477047466   -0.32978828011208
C         2.70898442697098   -3.78023870696049    0.20817183303333
C         1.95934762992380   -2.62095946855324    0.17293155850177
N         0.77324893757526   -0.16637451460971   -0.79615997636458
C         1.39730026983675   -0.22599719262601   -2.01247575899857
C         2.08531160432074    0.96139658127619   -2.54071867854375
C         2.47729041183754    1.00200641303100   -3.85653674288836
O         3.08898183623591    2.14993862950870   -4.14218029984643
C         3.12146162372786    2.88566470230042   -3.00761082387047
C         3.76686103217070    4.22331322684231   -3.04061014547411
C         2.51697637424573    2.20790398998280   -1.99236805277992
O         1.37446942446128   -1.26398763035250   -2.64825020445378
C         0.50687778724246    0.98853606711701    0.01676594634269
C         1.63629545101865    1.36722545456759    1.00031164603356
O         2.19481137012113    0.31057842712113    1.57360969197844
O         1.91019515010102    2.50196083100411    1.28319689750253
N        -0.61044758207396    0.58542941286295    0.84666606400282
C        -1.20433659017413    1.37172901578857    1.80456523458857
C        -1.12529226065390    2.82309317600500    1.56631830667004
C        -0.89433266217739    3.77090355111412    2.52326972366848
O        -0.92144552672607    4.99663408202481    1.99246297263476
C        -1.19867486192592    4.86856575847421    0.67718876627915
C        -1.30349004744756    6.09772843336493   -0.15092936195685
C        -1.33136480785216    3.55156986438141    0.35715372066009
O        -1.78754550077622    0.88593695317597    2.74973940943254
H        -3.70692770565959   -3.56501495239898    3.21498702651672
H        -5.58221218397765   -2.64470745673762    1.91944141372398
H        -5.15514701576931   -0.92207247560155    0.19640383051853
H        -2.86791911711266   -0.13012648711085   -0.20178254061930
H         0.12189701472679   -1.16456930087846    1.74680954049676
H        -0.90853362085520   -1.35281234016878   -1.11413315666919
H         0.53958470091591   -5.85636052748530   -1.31696702837274
H         2.77932728979070   -5.85910360596215   -0.30943558941750
H         3.69111854660984   -3.77061759031563    0.65599249403980
H         2.36086044908120   -1.71100912164608    0.58789070403270
H         2.35345498651802    0.27717254880185   -4.63574237495404
H         3.28957942852179    4.85777524416170   -3.78591383933970
H         3.68430672914684    4.69115867729156   -2.06460873754305
H         4.81925932194074    4.13017161587559   -3.30517778406411
H         2.42940621066305    2.56965714850701   -0.99165960935381
H         0.26909367469045    1.87615539539297   -0.58188751892154
H         2.83012969441553    0.57443646337777    2.26078373558730
H        -0.68092657970709    3.67684541654727    3.56869528819676
H        -0.36999577003321    6.65728780893091   -0.11453283171168
H        -1.52081707090555    5.83083811785221   -1.18041611299380
H        -2.09564887074443    6.74265829793616    0.22667913920972
H        -1.58964137470105    3.15384769610765   -0.60334985730005

          :  Hamiltonian                  GFN2-xTB          :
         :: total energy            -134.184565651661 Eh    ::
         :: gradient norm              0.000329878677 Eh/a0 ::
         :: HOMO-LUMO gap              3.320201506111 eV    ::
         :: SCC energy              -135.683830767522 Eh    ::
         :: -> dispersion             -0.092568640348 Eh    ::
         :: repulsion energy           1.496138962704 Eh    ::

    * Orbital Energies and Occupations

         #    Occupation            Energy/Eh            Energy/eV
      -------------------------------------------------------------
         1        2.0000           -0.8739986             -23.7827
       ...           ...                  ...                  ...
       103        2.0000           -0.4452822             -12.1167
       104        2.0000           -0.4409220             -11.9981
       105        2.0000           -0.4395920             -11.9619
       106        2.0000           -0.4332666             -11.7898
       107        2.0000           -0.4314245             -11.7397
       108        2.0000           -0.4295719             -11.6892
       109        2.0000           -0.4267420             -11.6122
       110        2.0000           -0.4210008             -11.4560
       111        2.0000           -0.4095595             -11.1447
       112        2.0000           -0.4065178             -11.0619
       113        2.0000           -0.4016687             -10.9300
       114        2.0000           -0.4009590             -10.9107
       115        2.0000           -0.3996168             -10.8741 (HOMO)
       116                         -0.2776016              -7.5539 (LUMO)
       117                         -0.2602370              -7.0814
       118                         -0.2579492              -7.0192
       119                         -0.2550478              -6.9402
       120                         -0.2527583              -6.8779
       121                         -0.2491072              -6.7786
       122                         -0.2437901              -6.6339
       123                         -0.2163413              -5.8869
       124                         -0.2154014              -5.8614
       125                         -0.1590056              -4.3268
       126                         -0.1404209              -3.8210
       ...                                ...                  ...
       198                          0.6813453              18.5403
      -------------------------------------------------------------
                  HL-Gap            0.1220152 Eh            3.3202 eV

     #   Z          covCN         q      C6AA      Î±(0)
     1   6 C        2.977    -0.024    28.588     8.770
     2   6 C        3.336     0.486    17.297     6.587
     3   9 F        0.791    -0.207    11.304     3.971
     4   9 F        0.792    -0.201    11.240     3.960
     5   9 F        0.791    -0.223    11.477     4.002
     6   6 C        2.923    -0.018    28.468     8.750
     7   6 C        2.920    -0.020    28.498     8.754
     8   6 C        2.919    -0.014    28.373     8.735
     9   6 C        2.927    -0.020    28.509     8.756
    10   6 C        2.972     0.028    27.376     8.582
    11   6 C        3.834     0.048    19.753     6.323
    12   6 C        3.835     0.048    19.752     6.323
    13   6 C        2.970     0.029    27.351     8.578
    14   6 C        2.976    -0.024    28.588     8.770
    15   6 C        3.336     0.485    17.302     6.588
    16   9 F        0.791    -0.226    11.502     4.006
    17   9 F        0.791    -0.203    11.271     3.966
    18   9 F        0.792    -0.202    11.251     3.962
    19   6 C        2.924    -0.020    28.498     8.754
    20   6 C        2.920    -0.021    28.536     8.760
    21   6 C        2.919    -0.016    28.421     8.742
    22   6 C        2.928    -0.026    28.656     8.779
    23   7 N        2.762    -0.116    23.520     7.203
    24   6 C        2.765     0.266    22.510     7.770
    25   6 C        3.057    -0.056    29.344     8.884
    26   6 C        3.075     0.084    26.052     8.368
    27   8 O        1.729    -0.169    16.847     5.542
    28   6 C        3.104     0.117    25.310     8.243
    29   6 C        3.753    -0.121    22.871     6.820
    30   6 C        3.018    -0.088    30.191     9.013
    31   8 O        0.861    -0.431    22.305     6.332
    32   6 C        3.763     0.086    19.203     6.247
    33   6 C        2.692     0.351    21.040     7.507
    34   8 O        1.659    -0.350    19.908     6.023
    35   8 O        0.856    -0.397    21.614     6.233
    36   7 N        2.776    -0.125    23.716     7.233
    37   6 C        2.757     0.272    22.403     7.751
    38   6 C        3.064    -0.052    29.230     8.866
    39   6 C        3.064     0.082    26.102     8.378
    40   8 O        1.731    -0.167    16.817     5.537
    41   6 C        3.101     0.120    25.256     8.235
    42   6 C        3.753    -0.120    22.860     6.818
    43   6 C        3.019    -0.080    29.975     8.981
    44   8 O        0.859    -0.413    21.934     6.279
    45   1 H        0.926     0.068     2.106     2.269
    46   1 H        0.926     0.059     2.216     2.328
    47   1 H        0.926     0.057     2.233     2.337
    48   1 H        0.926     0.051     2.311     2.377
    49   1 H        0.924     0.065     2.138     2.287
    50   1 H        0.924     0.066     2.133     2.284
    51   1 H        0.926     0.067     2.119     2.276
    52   1 H        0.926     0.056     2.243     2.342
    53   1 H        0.926     0.054     2.275     2.358
    54   1 H        0.926     0.063     2.160     2.298
    55   1 H        0.926     0.076     2.025     2.225
    56   1 H        0.925     0.067     2.121     2.278
    57   1 H        0.925     0.063     2.168     2.303
    58   1 H        0.925     0.068     2.112     2.273
    59   1 H        0.927     0.044     2.392     2.419
    60   1 H        0.924     0.082     1.962     2.190
    61   1 H        0.804     0.346     0.598     1.215
    62   1 H        0.926     0.066     2.130     2.282
    63   1 H        0.925     0.069     2.101     2.267
    64   1 H        0.925     0.059     2.205     2.322
    65   1 H        0.925     0.068     2.102     2.268
    66   1 H        0.926     0.037     2.493     2.469

Wiberg/Mayer (AO) data.
largest (>0.10) Wiberg bond orders for each atom

     #   Z sym  total        # sym  WBO       # sym  WBO       # sym  WBO
 ---------------------------------------------------------------------------
     1   6 C    3.969 --     6 C    1.411    10 C    1.386     2 C    0.953
                             8 C    0.104
     2   6 C    3.820 --     4 F    0.956     1 C    0.953     3 F    0.943
                             5 F    0.929
     3   9 F    1.073 --     2 C    0.943
     4   9 F    1.078 --     2 C    0.956
     5   9 F    1.056 --     2 C    0.929
     6   6 C    3.987 --     7 C    1.445     1 C    1.411    45 H    0.966
                             9 C    0.109
     7   6 C    3.989 --     6 C    1.445     8 C    1.431    46 H    0.969
                            10 C    0.108
     8   6 C    3.990 --     9 C    1.450     7 C    1.431    47 H    0.969
                             1 C    0.104
     9   6 C    3.990 --     8 C    1.450    10 C    1.407    48 H    0.966
                             6 C    0.109
    10   6 C    3.986 --     9 C    1.407     1 C    1.386    11 C    0.997
                             7 C    0.108
    11   6 C    3.967 --    10 C    0.997    36 N    0.958    12 C    0.951
                            49 H    0.950
    12   6 C    3.967 --    13 C    0.996    23 N    0.954    50 H    0.952
                            11 C    0.951
    13   6 C    3.986 --    22 C    1.409    14 C    1.383    12 C    0.996
                            20 C    0.108
    14   6 C    3.969 --    19 C    1.414    13 C    1.383    15 C    0.952
                            21 C    0.105
    15   6 C    3.820 --    18 F    0.955    14 C    0.952    17 F    0.947
                            16 F    0.927
    16   9 F    1.053 --    15 C    0.927
    17   9 F    1.078 --    15 C    0.947
    18   9 F    1.077 --    15 C    0.955
    19   6 C    3.987 --    20 C    1.443    14 C    1.414    51 H    0.966
                            22 C    0.109
    20   6 C    3.989 --    19 C    1.443    21 C    1.434    52 H    0.969
                            13 C    0.108
    21   6 C    3.990 --    22 C    1.448    20 C    1.434    53 H    0.969
                            14 C    0.105
    22   6 C    3.988 --    21 C    1.448    13 C    1.409    54 H    0.960
                            19 C    0.109
    23   7 N    3.442 --    24 C    1.178    32 C    0.997    12 C    0.954
                            31 O    0.179
    24   6 C    3.948 --    31 O    1.665    23 N    1.178    25 C    1.025
    25   6 C    3.974 --    26 C    1.530    30 C    1.240    24 C    1.025
    26   6 C    3.914 --    25 C    1.530    27 O    1.170    55 H    0.963
                            28 C    0.128
    27   8 O    2.461 --    26 C    1.170    28 C    1.106
    28   6 C    3.910 --    30 C    1.595    27 O    1.106    29 C    1.031
                            26 C    0.128
    29   6 C    3.992 --    28 C    1.031    57 H    0.983    56 H    0.969
                            58 H    0.967
    30   6 C    3.978 --    28 C    1.595    25 C    1.240    59 H    0.967
    31   8 O    2.008 --    24 C    1.665    23 N    0.179
    32   6 C    3.968 --    23 N    0.997    36 N    0.972    60 H    0.940
                            33 C    0.906
    33   6 C    3.917 --    35 O    1.763    34 O    1.165    32 C    0.906
    34   8 O    2.237 --    33 C    1.165    61 H    0.853    35 O    0.181
    35   8 O    2.050 --    33 C    1.763    34 O    0.181
    36   7 N    3.426 --    37 C    1.159    32 C    0.972    11 C    0.958
                            44 O    0.173
    37   6 C    3.945 --    44 O    1.701    36 N    1.159    38 C    1.004
    38   6 C    3.976 --    39 C    1.554    43 C    1.239    37 C    1.004
    39   6 C    3.915 --    38 C    1.554    40 O    1.157    62 H    0.965
                            41 C    0.128
    40   8 O    2.460 --    39 C    1.157    41 C    1.114
    41   6 C    3.911 --    43 C    1.589    40 O    1.114    42 C    1.030
                            39 C    0.128
    42   6 C    3.992 --    41 C    1.030    64 H    0.984    63 H    0.968
                            65 H    0.968
    43   6 C    3.976 --    41 C    1.589    38 C    1.239    66 H    0.972
    44   8 O    2.032 --    37 C    1.701    36 N    0.173
    45   1 H    0.995 --     6 C    0.966
    46   1 H    0.996 --     7 C    0.969
    47   1 H    0.996 --     8 C    0.969
    48   1 H    0.997 --     9 C    0.966
    49   1 H    0.995 --    11 C    0.950
    50   1 H    0.995 --    12 C    0.952
    51   1 H    0.995 --    19 C    0.966
    52   1 H    0.996 --    20 C    0.969
    53   1 H    0.996 --    21 C    0.969
    54   1 H    0.996 --    22 C    0.960
    55   1 H    0.994 --    26 C    0.963
    56   1 H    0.995 --    29 C    0.969
    57   1 H    0.996 --    29 C    0.983
    58   1 H    0.995 --    29 C    0.967
    59   1 H    0.998 --    30 C    0.967
    60   1 H    0.993 --    32 C    0.940
    61   1 H    0.880 --    34 O    0.853
    62   1 H    0.996 --    39 C    0.965
    63   1 H    0.995 --    42 C    0.968
    64   1 H    0.996 --    42 C    0.984
    65   1 H    0.995 --    42 C    0.968
    66   1 H    0.999 --    43 C    0.972
 ---------------------------------------------------------------------------

molecular dipole:
                 x           y           z       tot (Debye)
 q only:        0.833       1.857      -0.546
   full:        1.049       2.113      -0.457       6.108

           -------------------------------------------------
          | TOTAL ENERGY             -134.184565651661 Eh   |
          | GRADIENT NORM               0.000329878677 Eh/Î± |
          | HOMO-LUMO GAP               3.320201506111 eV   |
           -------------------------------------------------

 * finished run on 2022/03/16 at 22:29:05.337
