   * xtb version 6.3.3 (4ae9cef) compiled by 'conda@95abc7406d43' on 2020-10-14
          program call               : xtb acid_428.xyz --opt --chrg 0 --uhf 0 --gfn 2
          number of atoms            :                    92
          number of electrons        :                   270
          charge                     :                     0
          spin                       :                   0.0

   ID    Z sym.   atoms
    1    6 C      1-22, 24-36, 38, 39, 43-55
    2    7 N      23, 42
    3    8 O      37, 40, 41, 56
    4    1 H      57-92

          :  Hamiltonian                  GFN2-xTB          :
 * total energy  :  -147.5010980 Eh     change       -0.7340446E-08 Eh
 * total energy  :  -147.5200419 Eh     change       -0.1894396E-01 Eh
 * total energy  :  -147.5261212 Eh     change       -0.6079236E-02 Eh
 * total energy  :  -147.5286871 Eh     change       -0.2565975E-02 Eh
 * total energy  :  -147.5310452 Eh     change       -0.2358046E-02 Eh
 * total energy  :  -147.5327571 Eh     change       -0.1711961E-02 Eh
 * total energy  :  -147.5343625 Eh     change       -0.1605390E-02 Eh
 * total energy  :  -147.5360305 Eh     change       -0.1667979E-02 Eh
 * total energy  :  -147.5377243 Eh     change       -0.1693807E-02 Eh
 * total energy  :  -147.5392655 Eh     change       -0.1541155E-02 Eh
 * total energy  :  -147.5729722 Eh     change       -0.1956646E-04 Eh
 * total energy  :  -147.5729950 Eh     change       -0.2280159E-04 Eh
 * total energy  :  -147.5730200 Eh     change       -0.2499475E-04 Eh
 * total energy  :  -147.5730455 Eh     change       -0.2542832E-04 Eh
 * total energy  :  -147.5730695 Eh     change       -0.2400816E-04 Eh
 * total energy  :  -147.5730896 Eh     change       -0.2016034E-04 Eh
 * total energy  :  -147.5731049 Eh     change       -0.1528593E-04 Eh
 * total energy  :  -147.5731169 Eh     change       -0.1199193E-04 Eh
 * total energy  :  -147.5731215 Eh     change       -0.4554370E-05 Eh
   *** GEOMETRY OPTIMIZATION CONVERGED AFTER 152 ITERATIONS ***

 final structure:
================
92
 xtb: 6.3.3 (4ae9cef)
C         4.01522271440317   -4.65937363540281   -2.06723734378306
C         4.40812204441605   -4.05973410295902   -3.22965296657290
C         3.72383129497390   -2.92857266394461   -3.69436088940711
C         2.67209943904875   -2.41246693249242   -2.98883591330316
C         2.24814414047046   -2.99653886128182   -1.77583603756092
C         2.93404573019636   -4.15222501211869   -1.31706929793371
C         2.52130848444607   -4.77851023724500   -0.12270804599074
C         1.46691408363202   -4.28355530336417    0.58582004959720
C         0.79495695465413   -3.13323591621258    0.14855160516362
C         1.17714583893674   -2.47805632233724   -0.99249779688544
C         0.43600941620935   -1.27043109482222   -1.49581566882599
C        -0.73387467715462   -0.71223481819082   -0.64932264376266
C        -1.98206398326508   -1.55265969023337   -0.68623384502493
C        -2.48965504819223   -1.91568601281478   -1.91060926218352
C        -3.66138940678405   -2.67074122749552   -2.02775275007570
C        -4.34795899874329   -3.04084085024572   -0.90852702802749
C        -3.87503448865259   -2.68443407866509    0.36966396340682
C        -2.66352454574902   -1.94949919286972    0.49894362874380
C        -2.22384067893392   -1.64725159849555    1.80689046708259
C        -2.93938964561204   -2.02484231128968    2.90869305784088
C        -4.14649477507463   -2.72174306317383    2.77137379890208
C        -4.59826581921843   -3.04668495509102    1.52540697781319
N        -0.90480883256189    0.59800031352121   -1.28058131742337
C        -2.03393645926956    1.26903281161930   -1.60656378497053
C        -3.25294407486182    0.96047790433746   -0.80891837835651
C        -4.39372644728770    0.49508165766856   -1.45070435911549
C        -5.51657390907577    0.19043012725204   -0.70495585185147
C        -5.52487252722641    0.40071691888231    0.66092247414233
C        -4.41648560293024    0.94442319490258    1.30914687147171
C        -4.46960399298769    1.24672090085308    2.74740634884998
C        -3.33785430410984    1.15036157108913    3.55450244448153
C        -3.40645463912589    1.42422799237578    4.90760756724921
C        -4.60498715239733    1.81096354483114    5.48247437359715
C        -5.73321043507421    1.93115089466090    4.68909530917248
C        -5.66645583861130    1.65258651736861    3.33703714511022
C        -3.27182138700446    1.20041845864262    0.55741930724640
O        -2.00202764256943    2.11478272454522   -2.48663871055308
C         0.30908230845555    0.98322153367498   -2.00012382341501
C         0.01511069751550    1.13533329844934   -3.50512954970198
O        -0.71963241056790    0.12921527760897   -3.99342520067582
O         0.48486141393384    1.99621247269432   -4.19227453044159
N         1.25104508511141   -0.06617006239883   -1.69756128871983
C         2.37606801802715    0.16112046570383   -0.92926743893633
C         3.11735010934998    1.41555646938535   -1.21946756758158
C         3.81871787785498    2.00081204701780   -0.17043529155303
C         4.60031645143132    3.13181426043681   -0.37371120715161
C         5.35655094083241    3.72985536544701    0.73718882662953
C         5.44689949219662    5.11250419270928    0.87804915468724
C         6.16929559210827    5.66714017872023    1.91836249636939
C         6.81656693804891    4.85030484474150    2.83033344676944
C         6.73393743506099    3.47410716786271    2.69841520968387
C         6.00813980229088    2.91691625351378    1.66224659150972
C         4.67123352554454    3.67017960473580   -1.65787570062856
C         3.99361749327799    3.07867087943464   -2.70818024684743
C         3.22058617990923    1.95026760982164   -2.50032141049216
O         2.77733724345666   -0.64201505076503   -0.11427947457238
H         4.52972837462284   -5.53606597867607   -1.69976602852915
H         5.24011693502510   -4.45084015354932   -3.79675745559500
H         4.03471535140877   -2.46279930410149   -4.61841085531066
H         2.16648892493742   -1.53891106545943   -3.36989390048260
H         3.05393972723276   -5.65586414502994    0.21508493368796
H         1.13963337757936   -4.76497297917915    1.49559860288637
H        -0.03305339139127   -2.77661301117314    0.73815075716691
H         0.03698151726253   -1.52599719283645   -2.48657227605951
H        -0.37187476734091   -0.55138512411944    0.37135042329350
H        -2.00063318870931   -1.58856675806227   -2.81525265695820
H        -4.02014768508088   -2.94088895471586   -3.00960206913498
H        -5.26485482212775   -3.60716837782099   -0.98271427503776
H        -1.30033584147250   -1.10920741095095    1.95824271192655
H        -2.57755166612275   -1.78361804932188    3.89708296293608
H        -4.70571264329264   -2.99912454501360    3.65219926370433
H        -5.52242072193810   -3.59255674598467    1.40038915437716
H        -4.38358522967190    0.35453896059441   -2.52041044577371
H        -6.39264262625178   -0.21027099687980   -1.19274532211470
H        -6.40089391490824    0.13561598397435    1.23326808429959
H        -2.39810902023593    0.84305478252712    3.12381903975067
H        -2.51921163626899    1.33578704353256    5.51793625826360
H        -4.65815606349463    2.02369353986037    6.53983282194985
H        -6.66965394944475    2.24703243975614    5.12543840420573
H        -6.54875115863799    1.77556603054394    2.72679845989955
H        -2.39827186361133    1.62515251055749    1.02956474215976
H         0.67315356219576    1.96125658115916   -1.65821673970005
H        -0.91341136994156    0.29269475396428   -4.93080022791917
H         3.73563959525566    1.56213338368508    0.81297639489286
H         4.93040936199419    5.75495211219706    0.17961915614638
H         6.22697708332775    6.74126389822499    2.01915276453616
H         7.38408936432161    5.28462318239899    3.64011203040920
H         7.24108871657443    2.83225635474042    3.40406759029202
H         5.96159721688766    1.84342409899021    1.55245437436676
H         5.28809838356930    4.53844620527721   -1.83740642655120
H         4.07114497148299    3.49355551831440   -3.70159940341177
H         2.71783907394396    1.48469595203173   -3.33166534211282

          :  Hamiltonian                  GFN2-xTB          :
         :: total energy            -147.573121454745 Eh    ::
         :: gradient norm              0.000363419841 Eh/a0 ::
         :: HOMO-LUMO gap              2.643347536257 eV    ::
         :: SCC energy              -150.100761967895 Eh    ::
         :: -> dispersion             -0.143350512008 Eh    ::
         :: repulsion energy           2.523199496798 Eh    ::

    * Orbital Energies and Occupations

         #    Occupation            Energy/Eh            Energy/eV
      -------------------------------------------------------------
         1        2.0000           -0.7589460             -20.6520
       ...           ...                  ...                  ...
       123        2.0000           -0.4126078             -11.2276
       124        2.0000           -0.4110821             -11.1861
       125        2.0000           -0.4095260             -11.1438
       126        2.0000           -0.4079178             -11.1000
       127        2.0000           -0.4042732             -11.0008
       128        2.0000           -0.4015904             -10.9278
       129        2.0000           -0.3994594             -10.8698
       130        2.0000           -0.3971787             -10.8078
       131        2.0000           -0.3944568             -10.7337
       132        2.0000           -0.3922957             -10.6749
       133        2.0000           -0.3889315             -10.5834
       134        2.0000           -0.3877601             -10.5515
       135        2.0000           -0.3719750             -10.1220 (HOMO)
       136                         -0.2748338              -7.4786 (LUMO)
       137                         -0.2624539              -7.1417
       138                         -0.2577161              -7.0128
       139                         -0.2571991              -6.9987
       140                         -0.2508503              -6.8260
       141                         -0.2459898              -6.6937
       142                         -0.2439495              -6.6382
       143                         -0.2396150              -6.5203
       144                         -0.2274381              -6.1889
       145                         -0.2252059              -6.1282
       146                         -0.2221901              -6.0461
       ...                                ...                  ...
       260                          0.6953987              18.9228
      -------------------------------------------------------------
                  HL-Gap            0.0971412 Eh            2.6433 eV

     #   Z          covCN         q      C6AA      Î±(0)
     1   6 C        2.921    -0.033    28.827     8.805
     2   6 C        2.915    -0.030    28.741     8.791
     3   6 C        2.917    -0.030    28.739     8.791
     4   6 C        2.918    -0.035    28.866     8.810
     5   6 C        2.986     0.015    27.665     8.628
     6   6 C        2.989     0.018    27.595     8.617
     7   6 C        2.919    -0.035    28.864     8.810
     8   6 C        2.915    -0.028    28.693     8.784
     9   6 C        2.920    -0.035    28.869     8.811
    10   6 C        2.965     0.013    27.714     8.635
    11   6 C        3.862     0.047    19.748     6.320
    12   6 C        3.820     0.043    19.845     6.340
    13   6 C        2.965    -0.006    28.166     8.705
    14   6 C        2.924    -0.038    28.936     8.821
    15   6 C        2.914    -0.030    28.747     8.792
    16   6 C        2.921    -0.035    28.866     8.811
    17   6 C        2.989     0.014    27.683     8.631
    18   6 C        2.982     0.008    27.822     8.652
    19   6 C        2.918    -0.034    28.835     8.806
    20   6 C        2.917    -0.026    28.662     8.779
    21   6 C        2.915    -0.028    28.712     8.787
    22   6 C        2.922    -0.033    28.813     8.803
    23   7 N        2.769    -0.130    23.816     7.248
    24   6 C        2.772     0.274    22.363     7.745
    25   6 C        2.975    -0.012    28.298     8.726
    26   6 C        2.924    -0.023    28.574     8.766
    27   6 C        2.918    -0.028    28.691     8.784
    28   6 C        2.927    -0.032    28.809     8.802
    29   6 C        2.975     0.013    27.709     8.634
    30   6 C        2.975     0.010    27.791     8.647
    31   6 C        2.925    -0.033    28.821     8.804
    32   6 C        2.919    -0.029    28.725     8.789
    33   6 C        2.920    -0.030    28.746     8.792
    34   6 C        2.918    -0.029    28.723     8.789
    35   6 C        2.926    -0.033    28.821     8.804
    36   6 C        2.928    -0.032    28.797     8.800
    37   8 O        0.860    -0.434    22.367     6.341
    38   6 C        3.800     0.100    18.943     6.197
    39   6 C        2.687     0.367    20.783     7.461
    40   8 O        1.659    -0.372    20.313     6.084
    41   8 O        0.856    -0.384    21.372     6.198
    42   7 N        2.759    -0.141    24.046     7.283
    43   6 C        2.765     0.275    22.349     7.742
    44   6 C        2.973    -0.023    28.576     8.769
    45   6 C        2.932    -0.025    28.635     8.776
    46   6 C        2.975     0.014    27.704     8.634
    47   6 C        2.977     0.010    27.786     8.647
    48   6 C        2.925    -0.033    28.834     8.806
    49   6 C        2.919    -0.029    28.733     8.790
    50   6 C        2.920    -0.030    28.755     8.794
    51   6 C        2.919    -0.029    28.716     8.787
    52   6 C        2.925    -0.033    28.822     8.804
    53   6 C        2.925    -0.029    28.722     8.789
    54   6 C        2.918    -0.024    28.615     8.772
    55   6 C        2.920    -0.029    28.724     8.789
    56   8 O        0.858    -0.408    21.840     6.266
    57   1 H        0.926     0.034     2.536     2.490
    58   1 H        0.926     0.031     2.566     2.505
    59   1 H        0.926     0.030     2.586     2.515
    60   1 H        0.926     0.026     2.641     2.541
    61   1 H        0.926     0.035     2.513     2.479
    62   1 H        0.926     0.033     2.539     2.492
    63   1 H        0.926     0.033     2.549     2.497
    64   1 H        0.923     0.064     2.157     2.297
    65   1 H        0.924     0.050     2.324     2.384
    66   1 H        0.926     0.044     2.397     2.421
    67   1 H        0.926     0.037     2.483     2.464
    68   1 H        0.926     0.038     2.473     2.459
    69   1 H        0.926     0.030     2.590     2.517
    70   1 H        0.926     0.037     2.494     2.469
    71   1 H        0.926     0.035     2.514     2.479
    72   1 H        0.926     0.036     2.500     2.472
    73   1 H        0.926     0.042     2.423     2.434
    74   1 H        0.926     0.038     2.471     2.458
    75   1 H        0.926     0.039     2.462     2.454
    76   1 H        0.926     0.032     2.559     2.501
    77   1 H        0.926     0.032     2.563     2.504
    78   1 H        0.926     0.032     2.552     2.498
    79   1 H        0.926     0.032     2.554     2.499
    80   1 H        0.926     0.034     2.533     2.489
    81   1 H        0.926     0.035     2.510     2.478
    82   1 H        0.923     0.069     2.092     2.262
    83   1 H        0.804     0.340     0.612     1.229
    84   1 H        0.926     0.052     2.290     2.366
    85   1 H        0.926     0.032     2.552     2.498
    86   1 H        0.926     0.031     2.573     2.509
    87   1 H        0.926     0.031     2.576     2.510
    88   1 H        0.926     0.032     2.559     2.502
    89   1 H        0.926     0.037     2.482     2.464
    90   1 H        0.926     0.041     2.433     2.439
    91   1 H        0.926     0.046     2.375     2.410
    92   1 H        0.926     0.044     2.394     2.419

Wiberg/Mayer (AO) data.
largest (>0.10) Wiberg bond orders for each atom

     #   Z sym  total        # sym  WBO       # sym  WBO       # sym  WBO
 ---------------------------------------------------------------------------
     1   6 C    3.991 --     2 C    1.554     6 C    1.282    57 H    0.968
                             4 C    0.118
     2   6 C    3.992 --     1 C    1.554     3 C    1.325    58 H    0.971
     3   6 C    3.992 --     4 C    1.551     2 C    1.325    59 H    0.971
     4   6 C    3.993 --     3 C    1.551     5 C    1.289    60 H    0.965
                             1 C    0.118
     5   6 C    3.989 --     4 C    1.289     6 C    1.258    10 C    1.239
     6   6 C    3.990 --     1 C    1.282     7 C    1.272     5 C    1.258
     7   6 C    3.991 --     8 C    1.560     6 C    1.272    61 H    0.968
                            10 C    0.114
     8   6 C    3.992 --     7 C    1.560     9 C    1.319    62 H    0.971
     9   6 C    3.991 --    10 C    1.530     8 C    1.319    63 H    0.963
    10   6 C    3.983 --     9 C    1.530     5 C    1.239    11 C    0.997
                             7 C    0.114
    11   6 C    3.961 --    10 C    0.997    12 C    0.954    42 N    0.953
                            64 H    0.936
    12   6 C    3.962 --    13 C    0.997    11 C    0.954    23 N    0.948
                            65 H    0.948
    13   6 C    3.984 --    14 C    1.517    18 C    1.251    12 C    0.997
                            16 C    0.115
    14   6 C    3.990 --    13 C    1.517    15 C    1.330    66 H    0.961
    15   6 C    3.992 --    16 C    1.549    14 C    1.330    67 H    0.970
    16   6 C    3.989 --    15 C    1.549    17 C    1.280    68 H    0.968
                            13 C    0.115
    17   6 C    3.990 --    16 C    1.280    22 C    1.279    18 C    1.251
    18   6 C    3.988 --    19 C    1.283    17 C    1.251    13 C    1.251
    19   6 C    3.992 --    20 C    1.552    18 C    1.283    69 H    0.957
                            22 C    0.118
    20   6 C    3.990 --    19 C    1.552    21 C    1.322    70 H    0.970
    21   6 C    3.992 --    22 C    1.557    20 C    1.322    71 H    0.971
    22   6 C    3.991 --    21 C    1.557    17 C    1.279    72 H    0.968
                            19 C    0.118
    23   7 N    3.454 --    24 C    1.230    38 C    0.959    12 C    0.948
                            37 O    0.185
    24   6 C    3.942 --    37 O    1.650    23 N    1.230    25 C    0.972
    25   6 C    3.987 --    36 C    1.412    26 C    1.394    24 C    0.972
                            28 C    0.103
    26   6 C    3.984 --    27 C    1.439    25 C    1.394    73 H    0.969
                            29 C    0.102
    27   6 C    3.991 --    28 C    1.449    26 C    1.439    74 H    0.969
                            36 C    0.104
    28   6 C    3.991 --    27 C    1.449    29 C    1.382    75 H    0.967
                            25 C    0.103
    29   6 C    3.988 --    36 C    1.388    28 C    1.382    30 C    1.053
                            26 C    0.102
    30   6 C    3.988 --    31 C    1.386    35 C    1.385    29 C    1.053
                            33 C    0.105
    31   6 C    3.992 --    32 C    1.453    30 C    1.386    76 H    0.965
                            34 C    0.108
    32   6 C    3.992 --    31 C    1.453    33 C    1.434    77 H    0.971
                            35 C    0.108
    33   6 C    3.986 --    32 C    1.434    34 C    1.433    78 H    0.971
                            30 C    0.105
    34   6 C    3.992 --    35 C    1.454    33 C    1.433    79 H    0.971
                            31 C    0.108
    35   6 C    3.991 --    34 C    1.454    30 C    1.385    80 H    0.967
                            32 C    0.108
    36   6 C    3.990 --    25 C    1.412    29 C    1.388    81 H    0.966
                            27 C    0.104
    37   8 O    2.033 --    24 C    1.650    23 N    0.185
    38   6 C    3.966 --    42 N    0.988    23 N    0.959    82 H    0.949
                            39 C    0.916
    39   6 C    3.922 --    41 O    1.778    40 O    1.130    38 C    0.916
    40   8 O    2.199 --    39 C    1.130    83 H    0.858    41 O    0.170
    41   8 O    2.062 --    39 C    1.778    40 O    0.170
    42   7 N    3.400 --    43 C    1.147    38 C    0.988    11 C    0.953
                            56 O    0.165
    43   6 C    3.939 --    56 O    1.710    42 N    1.147    44 C    0.996
    44   6 C    3.985 --    45 C    1.398    55 C    1.385    43 C    0.996
    45   6 C    3.988 --    46 C    1.400    44 C    1.398    84 H    0.965
                            54 C    0.104
    46   6 C    3.988 --    45 C    1.400    53 C    1.381    47 C    1.046
                            55 C    0.101
    47   6 C    3.989 --    48 C    1.391    52 C    1.388    46 C    1.046
                            50 C    0.106
    48   6 C    3.992 --    49 C    1.451    47 C    1.391    85 H    0.969
                            51 C    0.108
    49   6 C    3.992 --    48 C    1.451    50 C    1.435    86 H    0.971
                            52 C    0.109
    50   6 C    3.988 --    49 C    1.435    51 C    1.434    87 H    0.972
                            47 C    0.106
    51   6 C    3.992 --    52 C    1.452    50 C    1.434    88 H    0.971
                            48 C    0.108
    52   6 C    3.991 --    51 C    1.452    47 C    1.388    89 H    0.968
                            49 C    0.109
    53   6 C    3.990 --    54 C    1.448    46 C    1.381    90 H    0.968
    54   6 C    3.991 --    53 C    1.448    55 C    1.441    91 H    0.969
                            45 C    0.104
    55   6 C    3.985 --    54 C    1.441    44 C    1.385    92 H    0.966
                            46 C    0.101
    56   8 O    2.041 --    43 C    1.710    42 N    0.165
    57   1 H    0.998 --     1 C    0.968
    58   1 H    0.998 --     2 C    0.971
    59   1 H    0.999 --     3 C    0.971
    60   1 H    0.999 --     4 C    0.965
    61   1 H    0.998 --     7 C    0.968
    62   1 H    0.998 --     8 C    0.971
    63   1 H    0.998 --     9 C    0.963
    64   1 H    0.995 --    11 C    0.936
    65   1 H    0.997 --    12 C    0.948
    66   1 H    0.998 --    14 C    0.961
    67   1 H    0.998 --    15 C    0.970
    68   1 H    0.997 --    16 C    0.968
    69   1 H    0.999 --    19 C    0.957
    70   1 H    0.998 --    20 C    0.970
    71   1 H    0.998 --    21 C    0.971
    72   1 H    0.998 --    22 C    0.968
    73   1 H    0.998 --    26 C    0.969
    74   1 H    0.997 --    27 C    0.969
    75   1 H    0.998 --    28 C    0.967
    76   1 H    0.999 --    31 C    0.965
    77   1 H    0.999 --    32 C    0.971
    78   1 H    0.998 --    33 C    0.971
    79   1 H    0.998 --    34 C    0.971
    80   1 H    0.999 --    35 C    0.967
    81   1 H    0.999 --    36 C    0.966
    82   1 H    0.994 --    38 C    0.949
    83   1 H    0.884 --    40 O    0.858
    84   1 H    0.997 --    45 C    0.965
    85   1 H    0.999 --    48 C    0.969
    86   1 H    0.999 --    49 C    0.971
    87   1 H    0.999 --    50 C    0.972
    88   1 H    0.998 --    51 C    0.971
    89   1 H    0.999 --    52 C    0.968
    90   1 H    0.998 --    53 C    0.968
    91   1 H    0.997 --    54 C    0.969
    92   1 H    0.998 --    55 C    0.966
 ---------------------------------------------------------------------------

molecular dipole:
                 x           y           z       tot (Debye)
 q only:       -0.821      -1.208       0.759
   full:       -1.013      -1.041       0.653       4.048

           -------------------------------------------------
          | TOTAL ENERGY             -147.573121454745 Eh   |
          | GRADIENT NORM               0.000363419841 Eh/Î± |
          | HOMO-LUMO GAP               2.643347536257 eV   |
           -------------------------------------------------

 * finished run on 2022/03/17 at 01:05:59.911
