   * xtb version 6.3.3 (4ae9cef) compiled by 'conda@95abc7406d43' on 2020-10-14
          program call               : xtb acid_296.xyz --opt --chrg 0 --uhf 0 --gfn 2
          number of atoms            :                    90
          number of electrons        :                   250
          charge                     :                     0
          spin                       :                   0.0

   ID    Z sym.   atoms
    1    6 C      1-22, 24-33, 35, 36, 40-49
    2    7 N      23, 39
    3    8 O      34, 37, 38, 50
    4    1 H      51-90

          :  Hamiltonian                  GFN2-xTB          :
 * total energy  :  -136.7784476 Eh     change       -0.3311101E-08 Eh
 * total energy  :  -136.7978566 Eh     change       -0.1940896E-01 Eh
 * total energy  :  -136.8038313 Eh     change       -0.5974711E-02 Eh
 * total energy  :  -136.8057466 Eh     change       -0.1915331E-02 Eh
 * total energy  :  -136.8070245 Eh     change       -0.1277893E-02 Eh
 * total energy  :  -136.8076669 Eh     change       -0.6423487E-03 Eh
 * total energy  :  -136.8081615 Eh     change       -0.4946733E-03 Eh
 * total energy  :  -136.8086012 Eh     change       -0.4396816E-03 Eh
 * total energy  :  -136.8089980 Eh     change       -0.3968186E-03 Eh
 * total energy  :  -136.8093011 Eh     change       -0.3030821E-03 Eh
 * total energy  :  -136.8182909 Eh     change       -0.6769012E-05 Eh
 * total energy  :  -136.8182982 Eh     change       -0.7326396E-05 Eh
 * total energy  :  -136.8183074 Eh     change       -0.9188908E-05 Eh
 * total energy  :  -136.8183194 Eh     change       -0.1202586E-04 Eh
 * total energy  :  -136.8183316 Eh     change       -0.1218728E-04 Eh
 * total energy  :  -136.8183416 Eh     change       -0.9960495E-05 Eh
 * total energy  :  -136.8183499 Eh     change       -0.8324878E-05 Eh
 * total energy  :  -136.8183566 Eh     change       -0.6662796E-05 Eh
 * total energy  :  -136.8183615 Eh     change       -0.4918483E-05 Eh
   *** GEOMETRY OPTIMIZATION CONVERGED AFTER 210 ITERATIONS ***

 final structure:
================
90
 xtb: 6.3.3 (4ae9cef)
C        -1.91471930623210    2.58701527172693    0.63012759852728
C        -2.24711892025216    3.35812456097470    1.70635298013054
C        -1.78257174848522    3.03421336990323    2.99779897802818
C        -2.12262099551132    3.79469772263588    4.13560689995005
C        -1.65622820004220    3.44548453088917    5.37210532514119
C        -0.82797675853295    2.32203828710620    5.52861767358634
C        -0.47941428599143    1.56466070035112    4.44589817818964
C        -0.94667846877328    1.89841080591855    3.15740341856971
C        -0.61775342928660    1.12366011526575    2.02854201244814
C        -1.10242520838062    1.44881923238572    0.78817803057975
C        -0.77361425770515    0.59749892546646   -0.41262579101724
C         0.71771213845507    0.67781579510281   -0.78824377291023
C         0.97309945826654    0.84299357593654   -2.26660313269873
C         1.93584907342414    1.71688385849253   -2.69867992032022
C         2.22070044944450    1.87045159454879   -4.07009372472899
C         3.20958768877138    2.76419482097127   -4.53176260679585
C         3.46137056842419    2.89430073406154   -5.86855409315491
C         2.73607582673982    2.13935360897472   -6.80436499963622
C         1.77343878587019    1.26284547220970   -6.38822158885033
C         1.49181673180552    1.10329589347310   -5.01581577898994
C         0.51349015323685    0.20260659066366   -4.54562225774701
C         0.26338238069199    0.07209164986990   -3.20956690757034
N         1.27075794483455   -0.58761165000006   -0.31559928038349
C         2.58349581468419   -0.67899040325770    0.02257113330359
C         3.03785830097375   -2.04884626932130    0.40369578992228
C         3.48257758311419   -2.33437048172798    1.69564791607874
C         3.49248927660985   -1.26296939553706    2.75814744496886
C         4.91685156387830   -0.71521348667641    2.88637472245918
C         2.96392540781368   -1.75709496436678    4.10408864051435
C         3.94526865334664   -3.61948784700328    1.95477345606850
C         3.97298205121338   -4.58665659846421    0.96654831167880
C         3.54610312106896   -4.28622109416177   -0.31591009882707
C         3.08010559903993   -3.01612841654481   -0.59478942978701
O         3.32086940057598    0.28397928365762   -0.04141943598620
C         0.25082812989264   -1.59474129245339   -0.21417251655058
C         0.35000787035004   -2.47004207681668    1.05167672811507
O         0.48988522713239   -3.75235863898764    0.75193424335287
O         0.35733823400398   -2.02456133809579    2.16703161501299
N        -0.97759848011986   -0.82059075479571   -0.15723924235427
C        -2.08002959476037   -1.39624180411804    0.37695039615994
C        -3.27109410561678   -0.50612231281073    0.49957754284902
C        -3.60866991987865   -0.07026229651580    1.77540385914329
C        -4.67181734694371    0.79243421344437    1.95635205946721
C        -5.41103546498120    1.20251181902819    0.85993292383792
C        -5.10236169502459    0.73120647834966   -0.40268757158918
C        -4.03011613818480   -0.12927163544822   -0.60767308667469
C        -3.74910813859351   -0.71629261145068   -1.97122396564578
C        -4.78237305841676   -1.81048128399676   -2.25804662774375
C        -3.74968554833741    0.33313758835328   -3.08397390610621
O        -2.05379269369395   -2.56202942888864    0.73171999737162
H        -2.28457147297657    2.83642496135629   -0.35426628527179
H        -2.87932662748315    4.22560700103039    1.58248326959284
H        -2.75957541428419    4.65914198685442    4.01086100792378
H        -1.92226582526872    4.03128421939543    6.23999354154947
H        -0.47197319056598    2.06178293720334    6.51472011415933
H         0.15156898999975    0.69445422724965    4.55479539680990
H        -0.00273597013479    0.24651081731810    2.16823400286808
H        -1.39468365544464    0.91457837877805   -1.25825261315769
H         1.22347319453787    1.48488294800389   -0.24701291638704
H         2.50179621155749    2.29227265261627   -1.98112179924307
H         3.76458283050674    3.34053579011286   -3.80592169368505
H         4.22011556470818    3.57974309615714   -6.21663091258847
H         2.94772014121103    2.25712245305138   -7.85709950515495
H         1.21449157084864    0.67809300817618   -7.10518770752052
H        -0.03594598523555   -0.38900156714205   -5.26433361318181
H        -0.48656967751805   -0.62775298669801   -2.87111778228885
H         2.84471140972080   -0.44507484052655    2.42791776813220
H         4.95734434277645    0.04777704010002    3.66080957834284
H         5.61205311599286   -1.51230102760949    3.14361193049581
H         5.22626506106683   -0.27076859943818    1.94321804086308
H         2.92086235570080   -0.92580605988037    4.80488341956800
H         1.96107560426764   -2.15968762274852    3.98444740791090
H         3.60697018247680   -2.52270816913428    4.53116207178283
H         4.29703359078160   -3.86997868713838    2.94385416108559
H         4.33941204852493   -5.57692729789730    1.19520503053793
H         3.57915242771314   -5.03452367188721   -1.09316961345358
H         2.75837600820110   -2.76099700482411   -1.59485851420392
H         0.23956154247441   -2.27538743063757   -1.08405781043436
H         0.48096419227515   -4.29407811779828    1.55666580547386
H        -3.02075071810562   -0.40239280917261    2.61767055948792
H        -4.91921562316202    1.14357675577151    2.94646768443514
H        -6.24192991293403    1.88019635991011    0.99042130697901
H        -5.70965449004247    1.03580822462915   -1.24150162499976
H        -2.76414965149403   -1.19392974082134   -1.94590975702807
H        -5.78683999299339   -1.39364872769282   -2.26759256918903
H        -4.73494442209506   -2.57895702030732   -1.48984367130136
H        -4.58739038931090   -2.27130615456090   -3.22395648158276
H        -3.40178952567148   -0.11262062902721   -4.01330200067775
H        -3.09280174853239    1.16592109325232   -2.83914437518577
H        -4.74948076198444    0.72399679560041   -3.25330899087788

          :  Hamiltonian                  GFN2-xTB          :
         :: total energy            -136.818361489037 Eh    ::
         :: gradient norm              0.000848231056 Eh/a0 ::
         :: HOMO-LUMO gap              3.098431851646 eV    ::
         :: SCC energy              -139.044554353524 Eh    ::
         :: -> dispersion             -0.132304677519 Eh    ::
         :: repulsion energy           2.221346618999 Eh    ::

    * Orbital Energies and Occupations

         #    Occupation            Energy/Eh            Energy/eV
      -------------------------------------------------------------
         1        2.0000           -0.7532038             -20.4957
       ...           ...                  ...                  ...
       113        2.0000           -0.4155784             -11.3085
       114        2.0000           -0.4130628             -11.2400
       115        2.0000           -0.4077311             -11.0949
       116        2.0000           -0.4064831             -11.0610
       117        2.0000           -0.4055981             -11.0369
       118        2.0000           -0.4040772             -10.9955
       119        2.0000           -0.4005299             -10.8990
       120        2.0000           -0.3987198             -10.8497
       121        2.0000           -0.3973731             -10.8131
       122        2.0000           -0.3932357             -10.7005
       123        2.0000           -0.3898507             -10.6084
       124        2.0000           -0.3834058             -10.4330
       125        2.0000           -0.3796812             -10.3317 (HOMO)
       126                         -0.2658160              -7.2332 (LUMO)
       127                         -0.2628393              -7.1522
       128                         -0.2509430              -6.8285
       129                         -0.2396181              -6.5203
       130                         -0.2355498              -6.4096
       131                         -0.2336635              -6.3583
       132                         -0.2316493              -6.3035
       133                         -0.2291130              -6.2345
       134                         -0.2248768              -6.1192
       135                         -0.2141271              -5.8267
       136                         -0.2011231              -5.4728
       ...                                ...                  ...
       240                          0.6954509              18.9242
      -------------------------------------------------------------
                  HL-Gap            0.1138653 Eh            3.0984 eV

     #   Z          covCN         q      C6AA      Î±(0)
     1   6 C        2.919    -0.038    28.941     8.822
     2   6 C        2.917    -0.035    28.863     8.810
     3   6 C        2.987     0.012    27.728     8.638
     4   6 C        2.918    -0.035    28.864     8.810
     5   6 C        2.916    -0.029    28.722     8.788
     6   6 C        2.916    -0.029    28.720     8.788
     7   6 C        2.918    -0.033    28.810     8.802
     8   6 C        2.988     0.016    27.643     8.624
     9   6 C        2.923    -0.041    29.022     8.834
    10   6 C        2.970    -0.007    28.190     8.709
    11   6 C        3.814     0.039    19.912     6.351
    12   6 C        3.831     0.043    19.828     6.336
    13   6 C        2.968    -0.003    28.094     8.694
    14   6 C        2.924    -0.036    28.893     8.815
    15   6 C        2.987     0.016    27.649     8.625
    16   6 C        2.918    -0.033    28.810     8.802
    17   6 C        2.916    -0.028    28.710     8.786
    18   6 C        2.916    -0.029    28.715     8.787
    19   6 C        2.918    -0.035    28.863     8.810
    20   6 C        2.987     0.013    27.725     8.637
    21   6 C        2.917    -0.036    28.891     8.814
    22   6 C        2.918    -0.038    28.945     8.822
    23   7 N        2.767    -0.117    23.543     7.206
    24   6 C        2.764     0.273    22.378     7.747
    25   6 C        2.982    -0.031    28.773     8.799
    26   6 C        2.974     0.020    27.555     8.611
    27   6 C        3.855    -0.008    20.686     6.469
    28   6 C        3.758    -0.102    22.501     6.763
    29   6 C        3.754    -0.105    22.569     6.774
    30   6 C        2.925    -0.036    28.886     8.814
    31   6 C        2.919    -0.031    28.782     8.798
    32   6 C        2.919    -0.031    28.764     8.795
    33   6 C        2.924    -0.029    28.718     8.788
    34   8 O        0.859    -0.428    22.251     6.324
    35   6 C        3.760     0.102    18.949     6.206
    36   6 C        2.688     0.372    20.695     7.445
    37   8 O        1.660    -0.356    20.022     6.040
    38   8 O        0.856    -0.404    21.752     6.253
    39   7 N        2.770    -0.116    23.518     7.203
    40   6 C        2.770     0.277    22.318     7.737
    41   6 C        2.982    -0.021    28.528     8.761
    42   6 C        2.925    -0.021    28.542     8.761
    43   6 C        2.919    -0.029    28.733     8.790
    44   6 C        2.919    -0.029    28.731     8.790
    45   6 C        2.925    -0.034    28.855     8.809
    46   6 C        2.974     0.010    27.793     8.648
    47   6 C        3.854    -0.010    20.725     6.475
    48   6 C        3.758    -0.102    22.508     6.764
    49   6 C        3.754    -0.100    22.469     6.759
    50   8 O        0.860    -0.435    22.389     6.344
    51   1 H        0.926     0.025     2.662     2.551
    52   1 H        0.926     0.035     2.512     2.479
    53   1 H        0.926     0.031     2.565     2.505
    54   1 H        0.926     0.032     2.562     2.503
    55   1 H        0.926     0.033     2.542     2.493
    56   1 H        0.926     0.044     2.392     2.418
    57   1 H        0.926     0.059     2.209     2.324
    58   1 H        0.924     0.052     2.292     2.368
    59   1 H        0.924     0.074     2.048     2.238
    60   1 H        0.926     0.051     2.309     2.376
    61   1 H        0.926     0.038     2.469     2.457
    62   1 H        0.926     0.034     2.536     2.490
    63   1 H        0.926     0.032     2.551     2.498
    64   1 H        0.926     0.032     2.552     2.498
    65   1 H        0.926     0.034     2.526     2.486
    66   1 H        0.926     0.029     2.601     2.522
    67   1 H        0.924     0.036     2.498     2.472
    68   1 H        0.925     0.039     2.464     2.455
    69   1 H        0.925     0.034     2.535     2.490
    70   1 H        0.925     0.049     2.336     2.390
    71   1 H        0.925     0.036     2.503     2.474
    72   1 H        0.925     0.049     2.334     2.389
    73   1 H        0.925     0.033     2.541     2.493
    74   1 H        0.926     0.041     2.433     2.439
    75   1 H        0.926     0.035     2.522     2.484
    76   1 H        0.926     0.037     2.494     2.469
    77   1 H        0.926     0.027     2.627     2.534
    78   1 H        0.923     0.058     2.219     2.330
    79   1 H        0.804     0.346     0.598     1.215
    80   1 H        0.926     0.042     2.422     2.433
    81   1 H        0.926     0.038     2.480     2.463
    82   1 H        0.926     0.037     2.495     2.470
    83   1 H        0.926     0.040     2.445     2.445
    84   1 H        0.924     0.025     2.660     2.551
    85   1 H        0.925     0.039     2.457     2.451
    86   1 H        0.925     0.042     2.424     2.435
    87   1 H        0.925     0.040     2.445     2.445
    88   1 H        0.925     0.039     2.469     2.457
    89   1 H        0.925     0.027     2.623     2.533
    90   1 H        0.925     0.041     2.434     2.440

Wiberg/Mayer (AO) data.
largest (>0.10) Wiberg bond orders for each atom

     #   Z sym  total        # sym  WBO       # sym  WBO       # sym  WBO
 ---------------------------------------------------------------------------
     1   6 C    3.991 --     2 C    1.560    10 C    1.297    51 H    0.968
     2   6 C    3.991 --     1 C    1.560     3 C    1.278    52 H    0.968
                             9 C    0.116
     3   6 C    3.989 --     4 C    1.281     2 C    1.278     8 C    1.250
     4   6 C    3.992 --     5 C    1.557     3 C    1.281    53 H    0.968
                             7 C    0.118
     5   6 C    3.990 --     4 C    1.557     6 C    1.320    54 H    0.971
     6   6 C    3.992 --     7 C    1.559     5 C    1.320    55 H    0.971
     7   6 C    3.989 --     6 C    1.559     8 C    1.277    56 H    0.967
                             4 C    0.118
     8   6 C    3.990 --     9 C    1.284     7 C    1.277     3 C    1.250
     9   6 C    3.988 --    10 C    1.522     8 C    1.284    57 H    0.958
                             2 C    0.116
    10   6 C    3.985 --     9 C    1.522     1 C    1.297    11 C    0.986
    11   6 C    3.962 --    10 C    0.986    12 C    0.961    39 N    0.959
                            58 H    0.950
    12   6 C    3.959 --    13 C    0.985    11 C    0.961    59 H    0.954
                            23 N    0.951
    13   6 C    3.984 --    14 C    1.527    22 C    1.295    12 C    0.985
    14   6 C    3.987 --    13 C    1.527    15 C    1.282    60 H    0.964
                            21 C    0.114
    15   6 C    3.990 --    14 C    1.282    16 C    1.278    20 C    1.251
    16   6 C    3.989 --    17 C    1.558    15 C    1.278    61 H    0.968
                            19 C    0.118
    17   6 C    3.992 --    16 C    1.558    18 C    1.320    62 H    0.971
    18   6 C    3.990 --    19 C    1.557    17 C    1.320    63 H    0.971
    19   6 C    3.992 --    18 C    1.557    20 C    1.281    64 H    0.968
                            16 C    0.118
    20   6 C    3.989 --    19 C    1.281    21 C    1.276    15 C    1.251
    21   6 C    3.992 --    22 C    1.563    20 C    1.276    65 H    0.968
                            14 C    0.114
    22   6 C    3.991 --    21 C    1.563    13 C    1.295    66 H    0.966
    23   7 N    3.463 --    24 C    1.206    35 C    0.991    12 C    0.951
                            34 O    0.188
    24   6 C    3.943 --    34 O    1.682    23 N    1.206    25 C    0.964
    25   6 C    3.986 --    33 C    1.400    26 C    1.378    24 C    0.964
                            31 C    0.106
    26   6 C    3.984 --    30 C    1.409    25 C    1.378    27 C    1.000
                            32 C    0.107
    27   6 C    3.995 --    29 C    1.002    26 C    1.000    28 C    0.989
                            67 H    0.963
    28   6 C    3.995 --    27 C    0.989    69 H    0.987    70 H    0.986
                            68 H    0.984
    29   6 C    3.996 --    27 C    1.002    71 H    0.986    73 H    0.984
                            72 H    0.983
    30   6 C    3.991 --    31 C    1.449    26 C    1.409    74 H    0.965
                            33 C    0.109
    31   6 C    3.991 --    30 C    1.449    32 C    1.430    75 H    0.971
                            25 C    0.106
    32   6 C    3.991 --    33 C    1.446    31 C    1.430    76 H    0.970
                            26 C    0.107
    33   6 C    3.991 --    32 C    1.446    25 C    1.400    77 H    0.970
                            30 C    0.109
    34   8 O    2.012 --    24 C    1.682    23 N    0.188
    35   6 C    3.967 --    23 N    0.991    39 N    0.970    78 H    0.943
                            36 C    0.913
    36   6 C    3.922 --    38 O    1.745    37 O    1.161    35 C    0.913
    37   8 O    2.222 --    36 C    1.161    79 H    0.855    38 O    0.172
    38   8 O    2.047 --    36 C    1.745    37 O    0.172
    39   7 N    3.466 --    40 C    1.225    35 C    0.970    11 C    0.959
                            50 O    0.186
    40   6 C    3.939 --    50 O    1.655    39 N    1.225    41 C    0.963
    41   6 C    3.986 --    42 C    1.401    46 C    1.384    40 C    0.963
                            44 C    0.107
    42   6 C    3.990 --    43 C    1.445    41 C    1.401    80 H    0.968
                            45 C    0.110
    43   6 C    3.990 --    42 C    1.445    44 C    1.431    81 H    0.970
                            46 C    0.107
    44   6 C    3.991 --    45 C    1.449    43 C    1.431    82 H    0.971
                            41 C    0.107
    45   6 C    3.991 --    44 C    1.449    46 C    1.410    83 H    0.966
                            42 C    0.110
    46   6 C    3.985 --    45 C    1.410    41 C    1.384    47 C    0.998
                            43 C    0.107
    47   6 C    3.996 --    49 C    1.002    46 C    0.998    48 C    0.991
                            84 H    0.962
    48   6 C    3.995 --    47 C    0.991    86 H    0.987    85 H    0.986
                            87 H    0.985
    49   6 C    3.996 --    47 C    1.002    88 H    0.986    89 H    0.984
                            90 H    0.984
    50   8 O    2.035 --    40 C    1.655    39 N    0.186
    51   1 H    0.999 --     1 C    0.968
    52   1 H    0.998 --     2 C    0.968
    53   1 H    0.999 --     4 C    0.968
    54   1 H    0.999 --     5 C    0.971
    55   1 H    0.998 --     6 C    0.971
    56   1 H    0.998 --     7 C    0.967
    57   1 H    0.996 --     9 C    0.958
    58   1 H    0.996 --    11 C    0.950
    59   1 H    0.994 --    12 C    0.954
    60   1 H    0.997 --    14 C    0.964
    61   1 H    0.998 --    16 C    0.968
    62   1 H    0.998 --    17 C    0.971
    63   1 H    0.998 --    18 C    0.971
    64   1 H    0.998 --    19 C    0.968
    65   1 H    0.998 --    21 C    0.968
    66   1 H    0.999 --    22 C    0.966
    67   1 H    0.998 --    27 C    0.963
    68   1 H    0.997 --    28 C    0.984
    69   1 H    0.999 --    28 C    0.987
    70   1 H    0.998 --    28 C    0.986
    71   1 H    0.998 --    29 C    0.986
    72   1 H    0.998 --    29 C    0.983
    73   1 H    0.999 --    29 C    0.984
    74   1 H    0.998 --    30 C    0.965
    75   1 H    0.998 --    31 C    0.971
    76   1 H    0.997 --    32 C    0.970
    77   1 H    0.999 --    33 C    0.970
    78   1 H    0.996 --    35 C    0.943
    79   1 H    0.880 --    37 O    0.855
    80   1 H    0.998 --    42 C    0.968
    81   1 H    0.997 --    43 C    0.970
    82   1 H    0.998 --    44 C    0.971
    83   1 H    0.998 --    45 C    0.966
    84   1 H    0.999 --    47 C    0.962
    85   1 H    0.998 --    48 C    0.986
    86   1 H    0.998 --    48 C    0.987
    87   1 H    0.997 --    48 C    0.985
    88   1 H    0.998 --    49 C    0.986
    89   1 H    0.999 --    49 C    0.984
    90   1 H    0.998 --    49 C    0.984
 ---------------------------------------------------------------------------

molecular dipole:
                 x           y           z       tot (Debye)
 q only:       -0.715       0.542      -0.709
   full:       -0.828       0.306      -0.777       2.990

           -------------------------------------------------
          | TOTAL ENERGY             -136.818361489037 Eh   |
          | GRADIENT NORM               0.000848231056 Eh/Î± |
          | HOMO-LUMO GAP               3.098431851646 eV   |
           -------------------------------------------------

 * finished run on 2022/03/16 at 23:30:09.826
