   * xtb version 6.3.3 (4ae9cef) compiled by 'conda@95abc7406d43' on 2020-10-14
          program call               : xtb acid_320.xyz --opt --chrg 0 --uhf 0 --gfn 2
          number of atoms            :                   120
          number of electrons        :                   310
          charge                     :                     0
          spin                       :                   0.0

   ID    Z sym.   atoms
    1    6 C      1-22, 24-38, 40, 41, 45-59
    2    7 N      23, 44
    3    8 O      39, 42, 43, 60
    4    1 H      61-120

          :  Hamiltonian                  GFN2-xTB          :
 * total energy  :  -168.4391454 Eh     change       -0.1002454E-07 Eh
 * total energy  :  -168.4591262 Eh     change       -0.1998080E-01 Eh
 * total energy  :  -168.4659413 Eh     change       -0.6815094E-02 Eh
 * total energy  :  -168.4680291 Eh     change       -0.2087753E-02 Eh
 * total energy  :  -168.4691033 Eh     change       -0.1074251E-02 Eh
 * total energy  :  -168.4695559 Eh     change       -0.4525076E-03 Eh
 * total energy  :  -168.4699443 Eh     change       -0.3884509E-03 Eh
 * total energy  :  -168.4703964 Eh     change       -0.4521435E-03 Eh
 * total energy  :  -168.4708512 Eh     change       -0.4547184E-03 Eh
 * total energy  :  -168.4712649 Eh     change       -0.4136977E-03 Eh
 * total energy  :  -168.4771066 Eh     change       -0.2585341E-04 Eh
 * total energy  :  -168.4771305 Eh     change       -0.2385354E-04 Eh
 * total energy  :  -168.4771496 Eh     change       -0.1910809E-04 Eh
 * total energy  :  -168.4771647 Eh     change       -0.1514165E-04 Eh
 * total energy  :  -168.4771779 Eh     change       -0.1313969E-04 Eh
 * total energy  :  -168.4771915 Eh     change       -0.1359790E-04 Eh
 * total energy  :  -168.4772070 Eh     change       -0.1555763E-04 Eh
 * total energy  :  -168.4772252 Eh     change       -0.1815603E-04 Eh
 * total energy  :  -168.4772298 Eh     change       -0.4639793E-05 Eh
   *** GEOMETRY OPTIMIZATION CONVERGED AFTER 68 ITERATIONS ***

 final structure:
================
120
 xtb: 6.3.3 (4ae9cef)
C        -1.58078834141212    4.96583184634944    1.00541622914329
C        -1.52290560262258    5.43224293078906    2.28736782027154
C        -1.05401306302274    4.61340984454444    3.33574190703291
C        -0.97962907909845    5.05901392825235    4.67142502091687
C        -0.51779512413981    4.23355620141171    5.65840538994305
C        -0.11353094319307    2.92331989605759    5.35716367344951
C        -0.17758026507936    2.46134468667627    4.07298010239511
C        -0.64284999902991    3.29036941496140    3.03185434500210
C        -0.70959182868467    2.84187381434634    1.69913028933579
C        -1.17213748523607    3.65479393360836    0.69796436030428
C        -1.20637837796840    3.18016359981474   -0.73537778928818
C         0.20349917864045    3.25561264266029   -1.35051529535612
C         0.28284320724703    3.50150452428555   -2.83773102457495
C         1.50229996556162    3.85855587682742   -3.35840747581320
C         1.67871603445954    4.06706742479734   -4.73897079716464
C         2.92320431770325    4.44422785819637   -5.28736787277793
C         3.05808617413944    4.64920480834333   -6.63128193113174
C         1.95768909222913    4.48554296092048   -7.48902459389645
C         0.74033261455020    4.11767539462580   -6.98912897409566
C         0.56717706601875    3.89962329045234   -5.60612256674973
C        -0.67210628026147    3.52401724192932   -5.04957531737355
C        -0.81413646715151    3.32896533656932   -3.70347751085666
N         0.74285368284492    1.93126137224793   -1.03687313416519
C         1.86921697497251    1.81823836377208   -0.26795574974588
C         2.18825333176868    0.47501184701878    0.28355069109139
C         2.06680332209535   -0.69498937393631   -0.45286241410766
C         2.35599356134175   -1.92541280106978    0.12381990411673
C         2.14478459250497   -3.18877368604939   -0.69802072653812
C         2.37386416336010   -4.46853153804178    0.11112606344506
C         3.12489892871286   -3.17914101134657   -1.87907795191803
C         0.70058068870635   -3.21370558668799   -1.22306947761740
C         2.82858328135489   -1.94595068232363    1.43112826983542
C         3.01509043699832   -0.78358770102429    2.17287336640053
C         3.61314080982506   -0.79188614694866    3.57169582093642
C         3.86306725636902   -2.20601547838703    4.10344977560001
C         4.95650309651814   -0.05016902108237    3.51669570386069
C         2.67076899957368   -0.07630738372043    4.54844086355420
C         2.67117450314022    0.42645127066970    1.58582732114290
O         2.56550534015765    2.78956085973854   -0.04668989818324
C        -0.33859749682222    0.99953200907375   -1.18411502520140
C        -0.47560362805758    0.53294520890038   -2.65033348789272
O         0.71065545438148    0.36130255281202   -3.23249635727965
O        -1.51756291204455    0.31899034098602   -3.19962162556420
N        -1.51043861355302    1.75609234642145   -0.80218268054663
C        -2.73367425624113    1.25821492310246   -0.47512896951059
C        -2.75909406280141   -0.22550335099873   -0.28215696966242
C        -2.27419241797244   -0.72424372495920    0.91675127261362
C        -2.29593037721591   -2.09001230728058    1.17704131270224
C        -1.80197330853136   -2.59978906408119    2.52303700133143
C        -0.39949207666476   -2.04704807994760    2.81040056761630
C        -2.77822272100550   -2.11229222145993    3.60325708252826
C        -1.72848081683260   -4.12831067767196    2.58657318076756
C        -2.81046402193271   -2.92553655271517    0.19624652633485
C        -3.31772818216786   -2.44539645067906   -1.00941709748053
C        -3.88495962644510   -3.43302382796265   -2.01793445017281
C        -4.39926856463229   -2.74344806010504   -3.28380461457157
C        -2.78589574885303   -4.42365028409840   -2.42697350332293
C        -5.05517423275905   -4.18933400913937   -1.37332758045354
C        -3.29504921386662   -1.07709078052659   -1.23581211376807
O        -3.68831636732415    1.98215798714335   -0.29416522884998
H        -1.94554130001763    5.59881190940389    0.20968476934610
H        -1.84049855179220    6.43911203888722    2.51740018056249
H        -1.29434048447802    6.06725757931875    4.90024048133678
H        -0.46149300331731    4.58250083171606    6.67917184874881
H         0.24756298417445    2.28355437608302    6.14930161712589
H         0.12888215737380    1.45268166305998    3.83414892977595
H        -0.38419291448403    1.83269766974236    1.48682015828776
H        -1.94641275219008    3.75887542175490   -1.29354303666589
H         0.82618737442756    3.99084757860444   -0.82979884309357
H         2.34861728443906    3.98156397394604   -2.69775011252646
H         3.76460393896797    4.56951557788303   -4.62135902493576
H         4.01204523553174    4.94069786237604   -7.04576481026654
H         2.08350516433821    4.65486519497739   -8.54844643871673
H        -0.10964865409619    3.99200908793652   -7.64482874193943
H        -1.51908411167211    3.39130351290843   -5.70730437802532
H        -1.77665674534786    3.03560422274355   -3.31366343598782
H         1.78396095415537   -0.63312009741769   -1.49011498877307
H         2.17029279117428   -5.33413867775384   -0.51596438154198
H         3.40388151807269   -4.54072350466680    0.45191394831890
H         1.70897248001484   -4.51261630923210    0.97103189082573
H         2.98238960390238   -4.06627055048120   -2.49256547841559
H         4.15054659235036   -3.17056049890729   -1.51642536077778
H         2.97876588760310   -2.30204959839919   -2.50384725252099
H         0.50470957270452   -2.38831527147900   -1.90243124828025
H        -0.01112096252099   -3.14712087391957   -0.40226664504596
H         0.51733031130705   -4.14149921749973   -1.76059659465675
H         3.07126747430569   -2.89205490102841    1.87953724661002
H         2.93794935097295   -2.77632120486475    4.15068501697903
H         4.27224761463867   -2.14550918718153    5.10981051361008
H         4.58164198392144   -2.73883747623234    3.48507315351832
H         5.63260557258337   -0.54582012294569    2.82300062338314
H         4.82368649242304    0.97609707110828    3.18607155750031
H         5.41920217482016   -0.03775632710721    4.50123461483626
H         3.08620432329858   -0.10583611193775    5.55358234103150
H         1.70021135219090   -0.56773473732548    4.56449256163154
H         2.53010173132078    0.96528265117879    4.27497294137957
H         2.78054909666968    1.36048494406861    2.11490266684118
H        -0.20705171567034    0.10223836224448   -0.56232843830465
H         0.60571336046970    0.11025329697292   -4.16515306590212
H        -1.90489984875884   -0.02829688556429    1.65528944264202
H        -0.40498436198459   -0.96399484118619    2.89403183357216
H         0.29289720606326   -2.32038262642132    2.01710338970583
H        -0.02616066045008   -2.45348138576556    3.74851173345721
H        -2.46165082659757   -2.46252592974071    4.58369787037739
H        -2.82654416142006   -1.02664861579093    3.62429864200075
H        -3.77835489062848   -2.49203527610328    3.40581789052413
H        -1.32368067734980   -4.43244961435014    3.54988860795153
H        -1.07820282175552   -4.52184828773513    1.80775632711477
H        -2.71496780886855   -4.57435315550541    2.48689035723652
H        -2.83457048563840   -3.98755956893720    0.37284602996818
H        -3.60383914638768   -2.19076494682618   -3.77773229102928
H        -5.21349002107207   -2.06160003768661   -3.05174565452070
H        -4.77465401168421   -3.49249156555249   -3.97852717343648
H        -1.95286594410075   -3.88964522076853   -2.87890198899562
H        -2.41182578823981   -4.98050049944726   -1.57220436687247
H        -3.17520794628351   -5.13536635156861   -3.15199241091049
H        -5.50222825631802   -4.87176095064244   -2.09314275236432
H        -4.73022483686630   -4.76864465326823   -0.51334578164094
H        -5.81758395198505   -3.48723323999013   -1.04310739023219
H        -3.67658151489361   -0.64690924188529   -2.14472775593619

          :  Hamiltonian                  GFN2-xTB          :
         :: total energy            -168.477229809009 Eh    ::
         :: gradient norm              0.000217662593 Eh/a0 ::
         :: HOMO-LUMO gap              2.966634652068 eV    ::
         :: SCC energy              -171.181646235459 Eh    ::
         :: -> dispersion             -0.167850171555 Eh    ::
         :: repulsion energy           2.694813836587 Eh    ::

    * Orbital Energies and Occupations

         #    Occupation            Energy/Eh            Energy/eV
      -------------------------------------------------------------
         1        2.0000           -0.7740269             -21.0623
       ...           ...                  ...                  ...
       143        2.0000           -0.4093826             -11.1399
       144        2.0000           -0.4084458             -11.1144
       145        2.0000           -0.4064414             -11.0598
       146        2.0000           -0.4037431             -10.9864
       147        2.0000           -0.3981495             -10.8342
       148        2.0000           -0.3964578             -10.7882
       149        2.0000           -0.3953550             -10.7582
       150        2.0000           -0.3947183             -10.7408
       151        2.0000           -0.3909966             -10.6396
       152        2.0000           -0.3896045             -10.6017
       153        2.0000           -0.3821235             -10.3981
       154        2.0000           -0.3812314             -10.3738
       155        2.0000           -0.3774769             -10.2717 (HOMO)
       156                         -0.2684551              -7.3050 (LUMO)
       157                         -0.2596057              -7.0642
       158                         -0.2588147              -7.0427
       159                         -0.2519044              -6.8547
       160                         -0.2348644              -6.3910
       161                         -0.2286991              -6.2232
       162                         -0.2278783              -6.2009
       163                         -0.2244515              -6.1076
       164                         -0.2187739              -5.9531
       165                         -0.2031691              -5.5285
       166                         -0.1936898              -5.2706
       ...                                ...                  ...
       300                          0.6982691              19.0009
      -------------------------------------------------------------
                  HL-Gap            0.1090218 Eh            2.9666 eV

     #   Z          covCN         q      C6AA      Î±(0)
     1   6 C        2.920    -0.033    28.813     8.802
     2   6 C        2.917    -0.032    28.795     8.800
     3   6 C        2.987     0.014    27.689     8.632
     4   6 C        2.918    -0.033    28.824     8.804
     5   6 C        2.916    -0.030    28.743     8.791
     6   6 C        2.916    -0.030    28.741     8.791
     7   6 C        2.919    -0.035    28.860     8.810
     8   6 C        2.988     0.015    27.675     8.629
     9   6 C        2.924    -0.035    28.865     8.811
    10   6 C        2.971     0.006    27.892     8.663
    11   6 C        3.829     0.042    19.850     6.339
    12   6 C        3.856     0.035    19.942     6.351
    13   6 C        2.968    -0.003    28.102     8.695
    14   6 C        2.926    -0.040    28.990     8.830
    15   6 C        2.986     0.014    27.699     8.633
    16   6 C        2.918    -0.034    28.849     8.808
    17   6 C        2.916    -0.029    28.732     8.790
    18   6 C        2.916    -0.030    28.738     8.791
    19   6 C        2.918    -0.036    28.886     8.813
    20   6 C        2.987     0.011    27.773     8.645
    21   6 C        2.917    -0.037    28.913     8.818
    22   6 C        2.917    -0.040    28.987     8.829
    23   7 N        2.769    -0.117    23.538     7.206
    24   6 C        2.764     0.271    22.417     7.754
    25   6 C        2.970    -0.024    28.597     8.772
    26   6 C        2.928    -0.049    29.215     8.864
    27   6 C        2.972     0.007    27.863     8.658
    28   6 C        3.903     0.025    20.096     6.372
    29   6 C        3.761    -0.107    22.594     6.776
    30   6 C        3.762    -0.106    22.577     6.773
    31   6 C        3.761    -0.101    22.483     6.759
    32   6 C        2.930    -0.047    29.170     8.857
    33   6 C        2.971     0.011    27.766     8.643
    34   6 C        3.903     0.026    20.083     6.370
    35   6 C        3.761    -0.108    22.606     6.778
    36   6 C        3.763    -0.107    22.591     6.775
    37   6 C        3.761    -0.106    22.572     6.773
    38   6 C        2.934    -0.030    28.750     8.794
    39   8 O        0.860    -0.429    22.271     6.327
    40   6 C        3.779     0.093    19.066     6.221
    41   6 C        2.688     0.352    21.023     7.504
    42   8 O        1.659    -0.364    20.161     6.061
    43   8 O        0.856    -0.383    21.337     6.193
    44   7 N        2.770    -0.123    23.679     7.227
    45   6 C        2.762     0.277    22.323     7.737
    46   6 C        2.975    -0.024    28.590     8.771
    47   6 C        2.933    -0.043    29.070     8.842
    48   6 C        2.971     0.005    27.912     8.666
    49   6 C        3.903     0.026    20.087     6.371
    50   6 C        3.761    -0.098    22.417     6.749
    51   6 C        3.762    -0.105    22.542     6.768
    52   6 C        3.761    -0.105    22.549     6.769
    53   6 C        2.933    -0.048    29.182     8.859
    54   6 C        2.973     0.010    27.801     8.649
    55   6 C        3.903     0.026    20.083     6.370
    56   6 C        3.761    -0.111    22.663     6.786
    57   6 C        3.762    -0.106    22.562     6.771
    58   6 C        3.762    -0.106    22.564     6.771
    59   6 C        2.926    -0.038    28.943     8.823
    60   8 O        0.859    -0.420    22.082     6.300
    61   1 H        0.926     0.035     2.511     2.478
    62   1 H        0.926     0.038     2.476     2.461
    63   1 H        0.926     0.033     2.543     2.494
    64   1 H        0.926     0.031     2.573     2.508
    65   1 H        0.926     0.031     2.569     2.507
    66   1 H        0.926     0.029     2.598     2.520
    67   1 H        0.925     0.020     2.727     2.583
    68   1 H        0.924     0.068     2.108     2.270
    69   1 H        0.924     0.082     1.960     2.189
    70   1 H        0.926     0.050     2.325     2.385
    71   1 H        0.926     0.037     2.485     2.465
    72   1 H        0.926     0.032     2.551     2.498
    73   1 H        0.926     0.032     2.561     2.503
    74   1 H        0.926     0.033     2.546     2.495
    75   1 H        0.926     0.038     2.475     2.460
    76   1 H        0.926     0.042     2.425     2.435
    77   1 H        0.926     0.038     2.473     2.459
    78   1 H        0.925     0.038     2.482     2.464
    79   1 H        0.925     0.037     2.483     2.464
    80   1 H        0.925     0.037     2.495     2.470
    81   1 H        0.925     0.039     2.465     2.455
    82   1 H        0.925     0.036     2.497     2.471
    83   1 H        0.925     0.036     2.496     2.471
    84   1 H        0.925     0.025     2.663     2.552
    85   1 H        0.925     0.034     2.531     2.488
    86   1 H        0.925     0.040     2.451     2.448
    87   1 H        0.926     0.051     2.308     2.376
    88   1 H        0.925     0.036     2.506     2.476
    89   1 H        0.925     0.038     2.478     2.462
    90   1 H        0.925     0.036     2.507     2.476
    91   1 H        0.925     0.034     2.528     2.486
    92   1 H        0.925     0.043     2.413     2.429
    93   1 H        0.925     0.039     2.462     2.454
    94   1 H        0.925     0.038     2.482     2.464
    95   1 H        0.925     0.034     2.535     2.490
    96   1 H        0.925     0.041     2.436     2.441
    97   1 H        0.926     0.050     2.321     2.383
    98   1 H        0.923     0.075     2.031     2.228
    99   1 H        0.804     0.341     0.610     1.227
   100   1 H        0.926     0.026     2.644     2.543
   101   1 H        0.925     0.029     2.596     2.519
   102   1 H        0.925     0.031     2.569     2.507
   103   1 H        0.925     0.033     2.548     2.496
   104   1 H        0.925     0.037     2.484     2.465
   105   1 H        0.925     0.039     2.465     2.455
   106   1 H        0.925     0.036     2.505     2.475
   107   1 H        0.925     0.036     2.509     2.477
   108   1 H        0.925     0.033     2.546     2.495
   109   1 H        0.925     0.037     2.496     2.471
   110   1 H        0.926     0.040     2.447     2.446
   111   1 H        0.925     0.042     2.425     2.435
   112   1 H        0.925     0.040     2.445     2.445
   113   1 H        0.925     0.036     2.508     2.477
   114   1 H        0.925     0.033     2.546     2.495
   115   1 H        0.925     0.035     2.513     2.479
   116   1 H        0.925     0.037     2.483     2.464
   117   1 H        0.925     0.038     2.481     2.463
   118   1 H        0.925     0.035     2.515     2.480
   119   1 H        0.925     0.037     2.495     2.470
   120   1 H        0.926     0.059     2.216     2.328

Wiberg/Mayer (AO) data.
largest (>0.10) Wiberg bond orders for each atom

     #   Z sym  total        # sym  WBO       # sym  WBO       # sym  WBO
 ---------------------------------------------------------------------------
     1   6 C    3.991 --     2 C    1.563    10 C    1.295    61 H    0.968
     2   6 C    3.991 --     1 C    1.563     3 C    1.277    62 H    0.968
                             9 C    0.115
     3   6 C    3.990 --     4 C    1.282     2 C    1.277     8 C    1.250
     4   6 C    3.992 --     5 C    1.556     3 C    1.282    63 H    0.968
                             7 C    0.118
     5   6 C    3.990 --     4 C    1.556     6 C    1.321    64 H    0.971
     6   6 C    3.992 --     7 C    1.557     5 C    1.321    65 H    0.971
     7   6 C    3.990 --     6 C    1.557     8 C    1.279    66 H    0.965
                             4 C    0.118
     8   6 C    3.991 --     9 C    1.283     7 C    1.279     3 C    1.250
     9   6 C    3.991 --    10 C    1.525     8 C    1.283    67 H    0.963
                             2 C    0.115
    10   6 C    3.986 --     9 C    1.525     1 C    1.295    11 C    0.986
    11   6 C    3.964 --    10 C    0.986    12 C    0.960    44 N    0.959
                            68 H    0.951
    12   6 C    3.957 --    13 C    0.986    11 C    0.960    23 N    0.950
                            69 H    0.948
    13   6 C    3.984 --    14 C    1.517    22 C    1.302    12 C    0.986
    14   6 C    3.989 --    13 C    1.517    15 C    1.290    70 H    0.965
                            21 C    0.117
    15   6 C    3.990 --    14 C    1.290    16 C    1.274    20 C    1.248
    16   6 C    3.990 --    17 C    1.562    15 C    1.274    71 H    0.968
                            19 C    0.119
    17   6 C    3.992 --    16 C    1.562    18 C    1.317    72 H    0.971
    18   6 C    3.990 --    19 C    1.560    17 C    1.317    73 H    0.971
    19   6 C    3.992 --    18 C    1.560    20 C    1.278    74 H    0.968
                            16 C    0.119
    20   6 C    3.990 --    21 C    1.283    19 C    1.278    15 C    1.248
    21   6 C    3.991 --    22 C    1.553    20 C    1.283    75 H    0.968
                            14 C    0.117
    22   6 C    3.991 --    21 C    1.553    13 C    1.302    76 H    0.964
    23   7 N    3.449 --    24 C    1.181    40 C    1.000    12 C    0.950
                            39 O    0.180
    24   6 C    3.940 --    39 O    1.683    23 N    1.181    25 C    0.990
    25   6 C    3.985 --    26 C    1.395    38 C    1.394    24 C    0.990
    26   6 C    3.989 --    27 C    1.412    25 C    1.395    77 H    0.957
                            33 C    0.104
    27   6 C    3.986 --    32 C    1.414    26 C    1.412    28 C    0.983
                            38 C    0.105
    28   6 C    3.990 --    29 C    1.000    31 C    0.988    30 C    0.986
                            27 C    0.983
    29   6 C    3.996 --    28 C    1.000    80 H    0.984    78 H    0.984
                            79 H    0.984
    30   6 C    3.995 --    82 H    0.986    28 C    0.986    81 H    0.984
                            83 H    0.984
    31   6 C    3.996 --    28 C    0.988    86 H    0.984    84 H    0.983
                            85 H    0.983
    32   6 C    3.989 --    27 C    1.414    33 C    1.408    87 H    0.958
    33   6 C    3.985 --    38 C    1.417    32 C    1.408    34 C    0.983
                            26 C    0.104
    34   6 C    3.991 --    35 C    1.000    37 C    0.989    36 C    0.985
                            33 C    0.983
    35   6 C    3.996 --    34 C    1.000    88 H    0.985    89 H    0.984
                            90 H    0.984
    36   6 C    3.995 --    91 H    0.987    34 C    0.985    93 H    0.984
                            92 H    0.984
    37   6 C    3.995 --    34 C    0.989    95 H    0.985    94 H    0.984
                            96 H    0.981
    38   6 C    3.988 --    33 C    1.417    25 C    1.394    97 H    0.962
                            27 C    0.105
    39   8 O    2.012 --    24 C    1.683    23 N    0.180
    40   6 C    3.976 --    23 N    1.000    44 N    0.981    98 H    0.921
                            41 C    0.913
    41   6 C    3.917 --    43 O    1.784    42 O    1.146    40 C    0.913
    42   8 O    2.216 --    41 C    1.146    99 H    0.857    43 O    0.179
    43   8 O    2.066 --    41 C    1.784    42 O    0.179
    44   7 N    3.450 --    45 C    1.197    40 C    0.981    11 C    0.959
                            60 O    0.187
    45   6 C    3.941 --    60 O    1.703    44 N    1.197    46 C    0.956
    46   6 C    3.986 --    47 C    1.413    59 C    1.403    45 C    0.956
                            53 C    0.105
    47   6 C    3.989 --    46 C    1.413    48 C    1.400   100 H    0.962
                            54 C    0.108
    48   6 C    3.985 --    53 C    1.427    47 C    1.400    49 C    0.982
                            59 C    0.105
    49   6 C    3.990 --    52 C    0.999    50 C    0.990    51 C    0.985
                            48 C    0.982
    50   6 C    3.996 --    49 C    0.990   103 H    0.984   102 H    0.981
                           101 H    0.981
    51   6 C    3.995 --   106 H    0.986    49 C    0.985   105 H    0.984
                           104 H    0.984
    52   6 C    3.996 --    49 C    0.999   108 H    0.985   107 H    0.984
                           109 H    0.984
    53   6 C    3.990 --    48 C    1.427    54 C    1.404   110 H    0.958
                            46 C    0.105
    54   6 C    3.986 --    59 C    1.421    53 C    1.404    55 C    0.983
                            47 C    0.108
    55   6 C    3.990 --    56 C    1.000    57 C    0.987    58 C    0.987
                            54 C    0.983
    56   6 C    3.996 --    55 C    1.000   113 H    0.985   112 H    0.984
                           111 H    0.984
    57   6 C    3.996 --    55 C    0.987   114 H    0.986   116 H    0.985
                           115 H    0.983
    58   6 C    3.996 --    55 C    0.987   119 H    0.987   117 H    0.984
                           118 H    0.983
    59   6 C    3.987 --    54 C    1.421    46 C    1.403   120 H    0.962
                            48 C    0.105
    60   8 O    2.020 --    45 C    1.703    44 N    0.187
    61   1 H    0.998 --     1 C    0.968
    62   1 H    0.998 --     2 C    0.968
    63   1 H    0.998 --     4 C    0.968
    64   1 H    0.999 --     5 C    0.971
    65   1 H    0.999 --     6 C    0.971
    66   1 H    0.999 --     7 C    0.965
    67   1 H    0.999 --     9 C    0.963
    68   1 H    0.994 --    11 C    0.951
    69   1 H    0.992 --    12 C    0.948
    70   1 H    0.997 --    14 C    0.965
    71   1 H    0.998 --    16 C    0.968
    72   1 H    0.998 --    17 C    0.971
    73   1 H    0.999 --    18 C    0.971
    74   1 H    0.998 --    19 C    0.968
    75   1 H    0.998 --    21 C    0.968
    76   1 H    0.998 --    22 C    0.964
    77   1 H    0.998 --    26 C    0.957
    78   1 H    0.998 --    29 C    0.984
    79   1 H    0.999 --    29 C    0.984
    80   1 H    0.999 --    29 C    0.984
    81   1 H    0.998 --    30 C    0.984
    82   1 H    0.999 --    30 C    0.986
    83   1 H    0.999 --    30 C    0.984
    84   1 H    0.999 --    31 C    0.983
    85   1 H    0.999 --    31 C    0.983
    86   1 H    0.998 --    31 C    0.984
    87   1 H    0.997 --    32 C    0.958
    88   1 H    0.999 --    35 C    0.985
    89   1 H    0.998 --    35 C    0.984
    90   1 H    0.999 --    35 C    0.984
    91   1 H    0.999 --    36 C    0.987
    92   1 H    0.998 --    36 C    0.984
    93   1 H    0.997 --    36 C    0.984
    94   1 H    0.998 --    37 C    0.984
    95   1 H    0.999 --    37 C    0.985
    96   1 H    0.998 --    37 C    0.981
    97   1 H    0.997 --    38 C    0.962
    98   1 H    0.994 --    40 C    0.921
    99   1 H    0.883 --    42 O    0.857
   100   1 H    0.999 --    47 C    0.962
   101   1 H    0.999 --    50 C    0.981
   102   1 H    0.999 --    50 C    0.981
   103   1 H    0.998 --    50 C    0.984
   104   1 H    0.998 --    51 C    0.984
   105   1 H    0.998 --    51 C    0.984
   106   1 H    0.999 --    51 C    0.986
   107   1 H    0.998 --    52 C    0.984
   108   1 H    0.999 --    52 C    0.985
   109   1 H    0.999 --    52 C    0.984
   110   1 H    0.998 --    53 C    0.958
   111   1 H    0.998 --    56 C    0.984
   112   1 H    0.998 --    56 C    0.984
   113   1 H    0.998 --    56 C    0.985
   114   1 H    0.999 --    57 C    0.986
   115   1 H    0.999 --    57 C    0.983
   116   1 H    0.998 --    57 C    0.985
   117   1 H    0.998 --    58 C    0.984
   118   1 H    0.999 --    58 C    0.983
   119   1 H    0.999 --    58 C    0.987
   120   1 H    0.996 --    59 C    0.962
 ---------------------------------------------------------------------------

molecular dipole:
                 x           y           z       tot (Debye)
 q only:        1.150      -1.578      -0.216
   full:        1.221      -1.827      -0.369       5.664

           -------------------------------------------------
          | TOTAL ENERGY             -168.477229809009 Eh   |
          | GRADIENT NORM               0.000217662593 Eh/Î± |
          | HOMO-LUMO GAP               2.966634652068 eV   |
           -------------------------------------------------

 * finished run on 2022/03/16 at 23:48:57.489
