   * xtb version 6.3.3 (4ae9cef) compiled by 'conda@95abc7406d43' on 2020-10-14
          program call               : xtb acid_93.xyz --opt --chrg 0 --uhf 0 --gfn 2
          number of atoms            :                    78
          number of electrons        :                   214
          charge                     :                     0
          spin                       :                   0.0

   ID    Z sym.   atoms
    1    8 O      1, 15, 16, 28
    2    6 C      2-11, 13, 14, 18-27, 29-42
    3    7 N      12, 17
    4    1 H      43-78

          :  Hamiltonian                  GFN2-xTB          :
 * total energy  :  -117.5879389 Eh     change       -0.1784059E-08 Eh
 * total energy  :  -117.6016764 Eh     change       -0.1373748E-01 Eh
 * total energy  :  -117.6058068 Eh     change       -0.4130368E-02 Eh
 * total energy  :  -117.6072078 Eh     change       -0.1401031E-02 Eh
 * total energy  :  -117.6081589 Eh     change       -0.9511211E-03 Eh
 * total energy  :  -117.6087410 Eh     change       -0.5820974E-03 Eh
 * total energy  :  -117.6091799 Eh     change       -0.4389221E-03 Eh
 * total energy  :  -117.6095429 Eh     change       -0.3630209E-03 Eh
 * total energy  :  -117.6098310 Eh     change       -0.2880695E-03 Eh
 * total energy  :  -117.6100604 Eh     change       -0.2293587E-03 Eh
 * total energy  :  -117.6212885 Eh     change       -0.2068112E-04 Eh
 * total energy  :  -117.6213062 Eh     change       -0.1770335E-04 Eh
 * total energy  :  -117.6213155 Eh     change       -0.9340780E-05 Eh
 * total energy  :  -117.6213207 Eh     change       -0.5196254E-05 Eh
 * total energy  :  -117.6213257 Eh     change       -0.5006665E-05 Eh
 * total energy  :  -117.6213317 Eh     change       -0.6033991E-05 Eh
 * total energy  :  -117.6213394 Eh     change       -0.7640957E-05 Eh
 * total energy  :  -117.6213459 Eh     change       -0.6499343E-05 Eh
 * total energy  :  -117.6213507 Eh     change       -0.4848445E-05 Eh
   *** GEOMETRY OPTIMIZATION CONVERGED AFTER 86 ITERATIONS ***

 final structure:
================
78
 xtb: 6.3.3 (4ae9cef)
O         3.03269326737644   -1.39172064892602   -2.58472951307856
C         2.76585863785336   -0.50331237749837   -1.80554494290791
C         3.76492876721946    0.47107026319296   -1.26885992158278
C         4.62595646428119    0.05967982084462   -0.25910129439472
C         5.53765891824424    0.94812465587695    0.27824323216769
C         5.62027999172751    2.25570770879006   -0.18698722017182
C         6.58906491836743    3.23956883271126    0.42064436026064
C         6.21891813315436    3.51331395591109    1.88086893140450
C         8.03083231688265    2.74109177709518    0.30698545607203
C         4.77780625899542    2.64474859152621   -1.22050776736703
C         3.85657034521726    1.76581233874957   -1.75919637488614
N         1.51171560805207   -0.32214757890439   -1.31195989666133
C         1.09243466701854    0.75420611627653   -0.45415935026782
C         1.84947472329417    0.76293859231457    0.88994185860419
O         2.44851477816731    1.91850653472818    1.11605513405797
O         1.86192216663715   -0.17004267857706    1.64643199208567
N        -0.30719457582501    0.48312739417625   -0.20522979445284
C        -1.03021591713744    1.35041147566531    0.55143943315098
C        -2.43501683645478    0.93599536888039    0.83318787265244
C        -2.70979243492506   -0.13123089719820    1.67699804839168
C        -4.02016283889301   -0.49636834555144    1.92369872397044
C        -5.07858698860949    0.18757574181413    1.33961450423515
C        -6.50200833547182   -0.23798485609385    1.59940745001711
C        -7.20708504517407   -0.60344097910399    0.29161355911158
C        -7.26786037491655    0.85961238413340    2.34153550948882
C        -4.79169055668756    1.27651156785705    0.52491260488457
C        -3.48680256477794    1.65569002870582    0.28147330158943
O        -0.54718896126471    2.39776232921862    0.93542506717227
C        -0.70650375552569   -0.83480061027718   -0.66595117415931
C        -2.03695950482498   -0.83905895559694   -1.36980475720209
C        -2.35073836843929    0.15203190065616   -2.29117515029012
C        -3.56923355119768    0.13744177561896   -2.94377315560652
C        -4.47844692960366   -0.87682568653465   -2.69500056353143
C        -4.15997311792901   -1.88018582031172   -1.79686983083612
C        -2.94539116239363   -1.86083507629751   -1.13538759343214
C         0.43524440105262   -1.25385549238574   -1.61858006051703
C         0.83909824460727   -2.68809881532122   -1.39576709551886
C         0.51652843538507   -3.66126417982968   -2.32906384257845
C         0.86457911565582   -4.98184136676620   -2.10638986341889
C         1.53859045631342   -5.33699741275868   -0.95102317683876
C         1.85776389293626   -4.36831014504038   -0.01425586416160
C         1.50491791131416   -3.04898512753033   -0.23058107757048
H         4.56797765397394   -0.95489826791776    0.10707572798340
H         6.18962324039962    0.61424128189911    1.07171900356811
H         6.50987971300908    4.18190025051027   -0.13225754360444
H         5.20247283842999    3.89577627000803    1.94649049172947
H         6.28716382402469    2.60398633117970    2.47309347847177
H         6.89420684931799    4.25125166114306    2.30782395193092
H         8.17622128163189    1.83268717592599    0.88572159049807
H         8.71921890146885    3.49690289421459    0.67878662477530
H         8.27667443205440    2.52941908814075   -0.73117367829546
H         4.83787566701897    3.65235865537160   -1.60599284539350
H         3.21125060266239    2.08391515763521   -2.56534360080600
H         1.21654663604776    1.74774023958579   -0.91268486704106
H         2.87389669193499    1.93349498733773    1.98915383711812
H        -1.89984258976021   -0.66832202320134    2.14907648496684
H        -4.22334793328003   -1.33065818078152    2.58025844592886
H        -6.48071737006785   -1.12935152210660    2.23620874102148
H        -7.29658751832475    0.26515511493433   -0.35558626139482
H        -8.20570581398405   -0.98254706061254    0.49717160818455
H        -6.64485466520571   -1.36803645300048   -0.23914626802353
H        -8.27378532888865    0.52124675419861    2.57979048536093
H        -7.34238701116292    1.75678196989476    1.73239191364014
H        -6.75938671671227    1.11632818834056    3.26814813461719
H        -5.59434344625419    1.84008988752016    0.07409600055129
H        -3.27420320232462    2.50645987396597   -0.34840216511761
H        -0.73564952277256   -1.53325090546561    0.18130947153380
H        -1.64220317733934    0.94467073707886   -2.48419286946750
H        -3.80986360597676    0.91810253821897   -3.64993717536103
H        -5.43095437811290   -0.88666655918302   -3.20329947934273
H        -4.85791163761758   -2.68281558455177   -1.60983363861618
H        -2.69951689217301   -2.64214916801694   -0.43135077838687
H         0.13081666410023   -1.11852652572961   -2.66580006461604
H        -0.00268004046989   -3.38256005192928   -3.23454858467223
H         0.61444378447378   -5.73369517552101   -2.84025792657847
H         1.81753685037447   -6.36660826645103   -0.78152132584299
H         2.38411094504528   -4.64095173609691    0.88872369319919
H         1.75352467476483   -2.29509268068417    0.50309162969377

          :  Hamiltonian                  GFN2-xTB          :
         :: total energy            -117.621350720665 Eh    ::
         :: gradient norm              0.000520887063 Eh/a0 ::
         :: HOMO-LUMO gap              3.493622876608 eV    ::
         :: SCC energy              -119.468672429690 Eh    ::
         :: -> dispersion             -0.107373133888 Eh    ::
         :: repulsion energy           1.844676659357 Eh    ::

    * Orbital Energies and Occupations

         #    Occupation            Energy/Eh            Energy/eV
      -------------------------------------------------------------
         1        2.0000           -0.7622341             -20.7414
       ...           ...                  ...                  ...
        95        2.0000           -0.4209040             -11.4534
        96        2.0000           -0.4204221             -11.4403
        97        2.0000           -0.4183838             -11.3848
        98        2.0000           -0.4110283             -11.1846
        99        2.0000           -0.4099955             -11.1565
       100        2.0000           -0.4077023             -11.0941
       101        2.0000           -0.4057260             -11.0404
       102        2.0000           -0.4023565             -10.9487
       103        2.0000           -0.4017212             -10.9314
       104        2.0000           -0.3988452             -10.8531
       105        2.0000           -0.3945584             -10.7365
       106        2.0000           -0.3909331             -10.6378
       107        2.0000           -0.3870048             -10.5309 (HOMO)
       108                         -0.2586166              -7.0373 (LUMO)
       109                         -0.2448899              -6.6638
       110                         -0.2396093              -6.5201
       111                         -0.2354736              -6.4076
       112                         -0.2323477              -6.3225
       113                         -0.2285264              -6.2185
       114                         -0.2282724              -6.2116
       115                         -0.2237264              -6.0879
       116                         -0.2206586              -6.0044
       117                         -0.2102897              -5.7223
       118                         -0.2061991              -5.6110
       ...                                ...                  ...
       204                          0.6686391              18.1946
      -------------------------------------------------------------
                  HL-Gap            0.1283883 Eh            3.4936 eV

     #   Z          covCN         q      C6AA      Î±(0)
     1   8 O        0.859    -0.417    22.013     6.290
     2   6 C        2.763     0.272    22.400     7.751
     3   6 C        2.979    -0.025    28.615     8.775
     4   6 C        2.922    -0.027    28.682     8.783
     5   6 C        2.925    -0.034    28.846     8.808
     6   6 C        2.973     0.014    27.696     8.632
     7   6 C        3.855    -0.015    20.804     6.487
     8   6 C        3.756    -0.105    22.553     6.771
     9   6 C        3.755    -0.104    22.542     6.770
    10   6 C        2.926    -0.034    28.844     8.808
    11   6 C        2.920    -0.028    28.698     8.785
    12   7 N        2.764    -0.117    23.546     7.207
    13   6 C        3.758     0.097    19.031     6.219
    14   6 C        2.689     0.360    20.888     7.480
    15   8 O        1.660    -0.347    19.855     6.015
    16   8 O        0.856    -0.396    21.607     6.232
    17   7 N        2.766    -0.114    23.475     7.196
    18   6 C        2.766     0.270    22.435     7.757
    19   6 C        2.977    -0.017    28.428     8.746
    20   6 C        2.921    -0.029    28.737     8.791
    21   6 C        2.926    -0.037    28.916     8.818
    22   6 C        2.973     0.014    27.694     8.632
    23   6 C        3.855    -0.015    20.797     6.486
    24   6 C        3.756    -0.104    22.539     6.769
    25   6 C        3.756    -0.104    22.535     6.768
    26   6 C        2.925    -0.032    28.801     8.801
    27   6 C        2.923    -0.024    28.606     8.771
    28   8 O        0.859    -0.435    22.396     6.345
    29   6 C        3.817     0.039    19.904     6.349
    30   6 C        2.974     0.001    27.996     8.679
    31   6 C        2.924    -0.032    28.802     8.801
    32   6 C        2.920    -0.027    28.677     8.782
    33   6 C        2.921    -0.029    28.719     8.788
    34   6 C        2.920    -0.026    28.648     8.777
    35   6 C        2.924    -0.034    28.839     8.807
    36   6 C        3.823     0.049    19.734     6.322
    37   6 C        2.975     0.011    27.757     8.642
    38   6 C        2.923    -0.029    28.720     8.788
    39   6 C        2.920    -0.026    28.651     8.778
    40   6 C        2.920    -0.029    28.718     8.788
    41   6 C        2.920    -0.026    28.655     8.778
    42   6 C        2.923    -0.033    28.822     8.804
    43   1 H        0.926     0.040     2.452     2.449
    44   1 H        0.926     0.040     2.453     2.449
    45   1 H        0.924     0.035     2.514     2.480
    46   1 H        0.925     0.034     2.535     2.490
    47   1 H        0.925     0.037     2.494     2.470
    48   1 H        0.925     0.041     2.440     2.443
    49   1 H        0.925     0.039     2.457     2.451
    50   1 H        0.925     0.038     2.469     2.457
    51   1 H        0.925     0.036     2.500     2.472
    52   1 H        0.926     0.038     2.470     2.458
    53   1 H        0.926     0.033     2.551     2.497
    54   1 H        0.923     0.074     2.046     2.237
    55   1 H        0.804     0.345     0.600     1.216
    56   1 H        0.926     0.034     2.526     2.485
    57   1 H        0.926     0.036     2.501     2.473
    58   1 H        0.924     0.034     2.535     2.490
    59   1 H        0.925     0.038     2.474     2.459
    60   1 H        0.925     0.039     2.457     2.451
    61   1 H        0.925     0.034     2.533     2.489
    62   1 H        0.925     0.039     2.459     2.452
    63   1 H        0.925     0.040     2.455     2.450
    64   1 H        0.925     0.036     2.504     2.475
    65   1 H        0.926     0.040     2.448     2.447
    66   1 H        0.926     0.040     2.451     2.448
    67   1 H        0.923     0.054     2.270     2.356
    68   1 H        0.926     0.036     2.508     2.477
    69   1 H        0.926     0.040     2.449     2.447
    70   1 H        0.926     0.039     2.457     2.451
    71   1 H        0.926     0.037     2.485     2.465
    72   1 H        0.926     0.034     2.529     2.487
    73   1 H        0.923     0.053     2.287     2.365
    74   1 H        0.926     0.032     2.557     2.500
    75   1 H        0.926     0.036     2.504     2.474
    76   1 H        0.926     0.035     2.520     2.482
    77   1 H        0.926     0.036     2.498     2.471
    78   1 H        0.926     0.049     2.336     2.390

Wiberg/Mayer (AO) data.
largest (>0.10) Wiberg bond orders for each atom

     #   Z sym  total        # sym  WBO       # sym  WBO       # sym  WBO
 ---------------------------------------------------------------------------
     1   8 O    2.027 --     2 C    1.701    12 N    0.192
     2   6 C    3.944 --     1 O    1.701    12 N    1.202     3 C    0.957
     3   6 C    3.986 --    11 C    1.407     4 C    1.398     2 C    0.957
                             6 C    0.107
     4   6 C    3.990 --     5 C    1.451     3 C    1.398    43 H    0.970
                            10 C    0.108
     5   6 C    3.991 --     4 C    1.451     6 C    1.408    44 H    0.965
                            11 C    0.110
     6   6 C    3.987 --    10 C    1.412     5 C    1.408     7 C    0.999
                             3 C    0.107
     7   6 C    3.995 --     6 C    0.999     9 C    0.998     8 C    0.996
                            45 H    0.968
     8   6 C    3.996 --     7 C    0.996    46 H    0.987    47 H    0.986
                            48 H    0.985
     9   6 C    3.996 --     7 C    0.998    51 H    0.987    50 H    0.986
                            49 H    0.985
    10   6 C    3.991 --    11 C    1.445     6 C    1.412    52 H    0.967
                             4 C    0.108
    11   6 C    3.991 --    10 C    1.445     3 C    1.407    53 H    0.969
                             5 C    0.110
    12   7 N    3.460 --     2 C    1.202    13 C    0.988    36 C    0.956
                             1 O    0.192
    13   6 C    3.967 --    12 N    0.988    17 N    0.977    54 H    0.944
                            14 C    0.907
    14   6 C    3.918 --    16 O    1.762    15 O    1.176    13 C    0.907
    15   8 O    2.241 --    14 C    1.176    55 H    0.853    16 O    0.184
    16   8 O    2.050 --    14 C    1.762    15 O    0.184
    17   7 N    3.463 --    18 C    1.207    13 C    0.977    29 C    0.963
                            28 O    0.189
    18   6 C    3.943 --    28 O    1.681    17 N    1.207    19 C    0.966
    19   6 C    3.987 --    20 C    1.403    27 C    1.398    18 C    0.966
                            22 C    0.107
    20   6 C    3.991 --    21 C    1.446    19 C    1.403    56 H    0.969
                            26 C    0.109
    21   6 C    3.991 --    20 C    1.446    22 C    1.412    57 H    0.967
                            27 C    0.107
    22   6 C    3.987 --    21 C    1.412    26 C    1.405    23 C    1.000
                            19 C    0.107
    23   6 C    3.996 --    22 C    1.000    24 C    0.997    25 C    0.996
                            58 H    0.968
    24   6 C    3.996 --    23 C    0.997    61 H    0.986    60 H    0.986
                            59 H    0.985
    25   6 C    3.995 --    23 C    0.996    64 H    0.987    62 H    0.985
                            63 H    0.985
    26   6 C    3.991 --    27 C    1.454    22 C    1.405    65 H    0.965
                            20 C    0.109
    27   6 C    3.990 --    26 C    1.454    19 C    1.398    66 H    0.969
                            21 C    0.107
    28   8 O    2.006 --    18 C    1.681    17 N    0.189
    29   6 C    3.965 --    30 C    0.991    17 N    0.963    36 C    0.951
                            67 H    0.951
    30   6 C    3.986 --    35 C    1.414    31 C    1.408    29 C    0.991
                            33 C    0.109
    31   6 C    3.991 --    32 C    1.449    30 C    1.408    68 H    0.969
                            34 C    0.111
    32   6 C    3.992 --    31 C    1.449    33 C    1.435    69 H    0.971
                            35 C    0.110
    33   6 C    3.990 --    34 C    1.441    32 C    1.435    70 H    0.971
                            30 C    0.109
    34   6 C    3.992 --    35 C    1.442    33 C    1.441    71 H    0.970
                            31 C    0.111
    35   6 C    3.990 --    34 C    1.442    30 C    1.414    72 H    0.968
                            32 C    0.110
    36   6 C    3.963 --    37 C    0.989    12 N    0.956    73 H    0.954
                            29 C    0.951
    37   6 C    3.985 --    38 C    1.417    42 C    1.409    36 C    0.989
                            40 C    0.109
    38   6 C    3.990 --    39 C    1.441    37 C    1.417    74 H    0.969
                            41 C    0.110
    39   6 C    3.992 --    40 C    1.442    38 C    1.441    75 H    0.971
                            42 C    0.112
    40   6 C    3.991 --    39 C    1.442    41 C    1.436    76 H    0.971
                            37 C    0.109
    41   6 C    3.992 --    42 C    1.448    40 C    1.436    77 H    0.971
                            38 C    0.110
    42   6 C    3.990 --    41 C    1.448    37 C    1.409    78 H    0.964
                            39 C    0.112
    43   1 H    0.998 --     4 C    0.970
    44   1 H    0.998 --     5 C    0.965
    45   1 H    0.998 --     7 C    0.968
    46   1 H    0.999 --     8 C    0.987
    47   1 H    0.999 --     8 C    0.986
    48   1 H    0.997 --     8 C    0.985
    49   1 H    0.998 --     9 C    0.985
    50   1 H    0.998 --     9 C    0.986
    51   1 H    0.999 --     9 C    0.987
    52   1 H    0.998 --    10 C    0.967
    53   1 H    0.999 --    11 C    0.969
    54   1 H    0.994 --    13 C    0.944
    55   1 H    0.880 --    15 O    0.853
    56   1 H    0.998 --    20 C    0.969
    57   1 H    0.998 --    21 C    0.967
    58   1 H    0.999 --    23 C    0.968
    59   1 H    0.999 --    24 C    0.985
    60   1 H    0.998 --    24 C    0.986
    61   1 H    0.999 --    24 C    0.986
    62   1 H    0.998 --    25 C    0.985
    63   1 H    0.998 --    25 C    0.985
    64   1 H    0.999 --    25 C    0.987
    65   1 H    0.998 --    26 C    0.965
    66   1 H    0.998 --    27 C    0.969
    67   1 H    0.997 --    29 C    0.951
    68   1 H    0.999 --    31 C    0.969
    69   1 H    0.998 --    32 C    0.971
    70   1 H    0.998 --    33 C    0.971
    71   1 H    0.998 --    34 C    0.970
    72   1 H    0.999 --    35 C    0.968
    73   1 H    0.997 --    36 C    0.954
    74   1 H    0.999 --    38 C    0.969
    75   1 H    0.998 --    39 C    0.971
    76   1 H    0.998 --    40 C    0.971
    77   1 H    0.998 --    41 C    0.971
    78   1 H    0.998 --    42 C    0.964
 ---------------------------------------------------------------------------

molecular dipole:
                 x           y           z       tot (Debye)
 q only:       -1.146      -0.012       0.210
   full:       -1.079       0.162       0.344       2.907

           -------------------------------------------------
          | TOTAL ENERGY             -117.621350720665 Eh   |
          | GRADIENT NORM               0.000520887063 Eh/Î± |
          | HOMO-LUMO GAP               3.493622876608 eV   |
           -------------------------------------------------

 * finished run on 2022/03/17 at 02:15:25.809
