   * xtb version 6.3.3 (4ae9cef) compiled by 'conda@95abc7406d43' on 2020-10-14
          program call               : xtb acid_483.xyz --opt --chrg 0 --uhf 0 --gfn 2
          number of atoms            :                    64
          number of electrons        :                   210
          charge                     :                     0
          spin                       :                   0.0

   ID    Z sym.   atoms
    1    6 C      1-14, 16-18, 22-25, 27, 28, 32-38
    2    7 N      15, 19, 31, 39
    3    8 O      20, 21, 26, 29, 30, 40-42
    4    1 H      43-64

          :  Hamiltonian                  GFN2-xTB          :
 * total energy  :  -119.4862216 Eh     change       -0.2911037E-08 Eh
 * total energy  :  -119.5074447 Eh     change       -0.2122318E-01 Eh
 * total energy  :  -119.5142873 Eh     change       -0.6842605E-02 Eh
 * total energy  :  -119.5173165 Eh     change       -0.3029152E-02 Eh
 * total energy  :  -119.5194280 Eh     change       -0.2111509E-02 Eh
 * total energy  :  -119.5208092 Eh     change       -0.1381176E-02 Eh
 * total energy  :  -119.5223537 Eh     change       -0.1544516E-02 Eh
 * total energy  :  -119.5234232 Eh     change       -0.1069535E-02 Eh
 * total energy  :  -119.5247972 Eh     change       -0.1374009E-02 Eh
 * total energy  :  -119.5262705 Eh     change       -0.1473268E-02 Eh
 * total energy  :  -119.5382469 Eh     change        0.1292440E-04 Eh
 * total energy  :  -119.5382661 Eh     change       -0.1918314E-04 Eh
 * total energy  :  -119.5382727 Eh     change       -0.6671847E-05 Eh
 * total energy  :  -119.5382790 Eh     change       -0.6231900E-05 Eh
 * total energy  :  -119.5382824 Eh     change       -0.3449123E-05 Eh
 * total energy  :  -119.5382894 Eh     change       -0.7001967E-05 Eh
 * total energy  :  -119.5382952 Eh     change       -0.5782598E-05 Eh
 * total energy  :  -119.5383027 Eh     change       -0.7449303E-05 Eh
 * total energy  :  -119.5383064 Eh     change       -0.3787993E-05 Eh
   *** GEOMETRY OPTIMIZATION CONVERGED AFTER 50 ITERATIONS ***

 final structure:
================
64
 xtb: 6.3.3 (4ae9cef)
C         2.45291940761142   -2.32599785903648   -0.55017349415848
C         2.98845937235356   -3.50234918249948   -0.05459482634959
C         2.35015919895769   -4.17676767884918    0.97237280391733
C         1.16774107075003   -3.67875720687002    1.49400989860829
C         0.63209448690187   -2.50303784461216    0.99999080188130
C         1.27577992457835   -1.81384001671527   -0.02174618246527
C         0.71562028155224   -0.50658505328266   -0.52556962913809
C        -0.72630484580572   -0.63877440269572   -1.06819847063208
C        -0.81619161478668   -0.21725284096865   -2.51532586121262
C        -0.61611096954157   -1.17941801522323   -3.49790895223795
C        -0.65194274229908   -0.83093463045185   -4.83540063581856
C        -0.89291479559842    0.48241972467494   -5.20276264283672
C        -1.09230745154201    1.44244015836737   -4.22650470826009
C        -1.04710640357986    1.09847619992935   -2.88622120982962
N        -1.53482382076223    0.15076956654242   -0.15009793439238
C        -2.88526171253893    0.08513245520591   -0.19703189196288
C        -3.60599556309230    0.69943136991986    0.97434426309337
C        -4.23496069462459    1.94052382608595    0.91212450549347
N        -4.03983022162116    2.77924024526964   -0.23403461589427
O        -3.06812946261538    2.55081460724996   -0.93009025659988
O        -4.82695315662235    3.67518054453849   -0.42963772222786
C        -5.00918639864482    2.41516989837097    1.96310068135211
C        -5.15415690149368    1.64527263553878    3.10017814524088
C        -4.53333246849586    0.40794304303966    3.17819430059073
C        -3.77435078749469   -0.06585864971197    2.12071469491575
O        -3.48585118650665   -0.52567239682733   -1.05310992360300
C        -0.75735148514186    0.84579182859309    0.84139419980351
C        -0.92915086861746    2.38151497408776    0.77981943934379
O        -0.20349374942611    2.92708663840425   -0.18224404579354
O        -1.66160609117578    2.98745086348407    1.51013725195163
N         0.59932302814774    0.47137752065266    0.54089102771004
C         1.59659957601841    1.03738042101071    1.24976457766794
C         2.98100538687935    0.56916746558621    0.89903823801080
C         3.65274764897323    1.15955256963276   -0.16296301006822
C         4.96028363727867    0.80299602048690   -0.44994043245677
C         5.62052236751155   -0.13851261984708    0.32653706908456
C         4.97116395704892   -0.72621741507767    1.39406183849097
C         3.65686124160795   -0.37168220413002    1.67386835320292
N         2.98135534837179   -1.01781513221258    2.76763867049779
O         3.64149325053780   -1.71191736029103    3.50829151180663
O         1.78383842701863   -0.84748665552880    2.86761962290177
O         1.40071329427535    1.92377237549181    2.05478779152123
H         2.95523335302594   -1.79683960322081   -1.34794699617396
H         3.90830638924622   -3.88800038594632   -0.46790775581937
H         2.77350551521887   -5.08785621305625    1.36650687075950
H         0.66800047597788   -4.20022671085471    2.29559982683764
H        -0.28006153813495   -2.10872797919688    1.42046015754915
H         1.37102892205759   -0.11003256532257   -1.31207040486144
H        -1.06590766215812   -1.68124754776053   -1.00085057933290
H        -0.43683927175950   -2.20626646423273   -3.21129942316981
H        -0.50046721014424   -1.58699698720033   -5.59169307945306
H        -0.93117120763395    0.75363703937235   -6.24748770285509
H        -1.28939261351241    2.46633871723514   -4.50652275099379
H        -1.21973809083845    1.84984803753195   -2.13495005359490
H        -5.46980984112169    3.38688025826345    1.87275904389021
H        -5.74469247119498    2.00919067559670    3.92618767477911
H        -4.64193176824208   -0.19471044741230    4.06699007794013
H        -3.31315694548124   -1.04059283778767    2.17958007616551
H        -1.02932038348904    0.54838523978395    1.87001510084429
H        -0.34412539129329    3.88769996565937   -0.21251013905963
H         3.14571856565930    1.90438100878417   -0.75772475298490
H         5.46859568963250    1.26603397023701   -1.28199952690246
H         6.63968646184954   -0.41011075840791    0.10034165996183
H         5.45517250799295   -1.46081619940387    2.01920043532212

          :  Hamiltonian                  GFN2-xTB          :
         :: total energy            -119.538306443778 Eh    ::
         :: gradient norm              0.000535484834 Eh/a0 ::
         :: HOMO-LUMO gap              1.759638814048 eV    ::
         :: SCC energy              -121.157848163871 Eh    ::
         :: -> dispersion             -0.098890798286 Eh    ::
         :: repulsion energy           1.616322376474 Eh    ::

    * Orbital Energies and Occupations

         #    Occupation            Energy/Eh            Energy/eV
      -------------------------------------------------------------
         1        2.0000           -0.7843441             -21.3431
       ...           ...                  ...                  ...
        93        2.0000           -0.4432832             -12.0623
        94        2.0000           -0.4417403             -12.0204
        95        2.0000           -0.4412776             -12.0078
        96        2.0000           -0.4358042             -11.8588
        97        2.0000           -0.4260380             -11.5931
        98        2.0000           -0.4251496             -11.5689
        99        2.0000           -0.4231424             -11.5143
       100        2.0000           -0.4184519             -11.3867
       101        2.0000           -0.4155331             -11.3072
       102        2.0000           -0.4106060             -11.1732
       103        2.0000           -0.4064340             -11.0596
       104        2.0000           -0.4042982             -11.0015
       105        2.0000           -0.3985989             -10.8464 (HOMO)
       106                         -0.3339334              -9.0868 (LUMO)
       107                         -0.3235032              -8.8030
       108                         -0.2754718              -7.4960
       109                         -0.2627709              -7.1504
       110                         -0.2564755              -6.9791
       111                         -0.2537935              -6.9061
       112                         -0.2486143              -6.7651
       113                         -0.2440860              -6.6419
       114                         -0.2436372              -6.6297
       115                         -0.2303564              -6.2683
       116                         -0.2271038              -6.1798
       ...                                ...                  ...
       190                          0.6644447              18.0805
      -------------------------------------------------------------
                  HL-Gap            0.0646655 Eh            1.7596 eV

     #   Z          covCN         q      C6AA      Î±(0)
     1   6 C        2.923    -0.041    29.009     8.833
     2   6 C        2.919    -0.030    28.760     8.794
     3   6 C        2.920    -0.027    28.677     8.782
     4   6 C        2.919    -0.023    28.580     8.767
     5   6 C        2.923    -0.024    28.603     8.771
     6   6 C        2.973    -0.005    28.151     8.703
     7   6 C        3.813     0.035    19.974     6.361
     8   6 C        3.822     0.045    19.807     6.333
     9   6 C        2.973     0.008    27.842     8.655
    10   6 C        2.925    -0.035    28.874     8.812
    11   6 C        2.920    -0.028    28.695     8.784
    12   6 C        2.920    -0.029    28.729     8.790
    13   6 C        2.921    -0.025    28.628     8.774
    14   6 C        2.922    -0.031    28.774     8.797
    15   7 N        2.762    -0.099    23.179     7.151
    16   6 C        2.763     0.281    22.246     7.724
    17   6 C        2.972    -0.001    28.037     8.685
    18   6 C        2.920     0.017    27.634     8.620
    19   7 N        2.761     0.554    13.436     5.444
    20   8 O        0.931    -0.406    21.757     6.256
    21   8 O        0.930    -0.368    21.024     6.149
    22   6 C        2.920    -0.012    28.316     8.726
    23   6 C        2.920    -0.018    28.455     8.748
    24   6 C        2.919    -0.012    28.323     8.727
    25   6 C        2.926    -0.020    28.512     8.757
    26   8 O        0.859    -0.408    21.842     6.266
    27   6 C        3.760     0.095    19.057     6.223
    28   6 C        2.687     0.372    20.699     7.446
    29   8 O        1.659    -0.344    19.787     6.005
    30   8 O        0.856    -0.396    21.610     6.233
    31   7 N        2.768    -0.092    23.038     7.129
    32   6 C        2.769     0.284    22.197     7.716
    33   6 C        2.973     0.004    27.927     8.668
    34   6 C        2.924    -0.022    28.544     8.761
    35   6 C        2.919    -0.015    28.385     8.737
    36   6 C        2.920    -0.021    28.532     8.759
    37   6 C        2.919    -0.019    28.481     8.752
    38   6 C        2.919     0.007    27.853     8.654
    39   7 N        2.760     0.547    13.515     5.460
    40   8 O        0.930    -0.376    21.172     6.171
    41   8 O        0.930    -0.383    21.319     6.192
    42   8 O        0.859    -0.419    22.062     6.298
    43   1 H        0.926     0.026     2.651     2.546
    44   1 H        0.926     0.038     2.474     2.460
    45   1 H        0.926     0.045     2.388     2.416
    46   1 H        0.926     0.048     2.344     2.394
    47   1 H        0.926     0.043     2.404     2.425
    48   1 H        0.924     0.052     2.301     2.372
    49   1 H        0.923     0.066     2.132     2.284
    50   1 H        0.926     0.028     2.611     2.527
    51   1 H        0.926     0.035     2.513     2.479
    52   1 H        0.926     0.036     2.507     2.476
    53   1 H        0.926     0.041     2.441     2.443
    54   1 H        0.926     0.062     2.172     2.304
    55   1 H        0.926     0.086     1.913     2.163
    56   1 H        0.926     0.064     2.157     2.297
    57   1 H        0.926     0.063     2.165     2.301
    58   1 H        0.926     0.054     2.267     2.355
    59   1 H        0.922     0.073     2.051     2.240
    60   1 H        0.804     0.349     0.592     1.208
    61   1 H        0.926     0.062     2.180     2.309
    62   1 H        0.926     0.063     2.168     2.303
    63   1 H        0.926     0.063     2.166     2.301
    64   1 H        0.926     0.086     1.917     2.165

Wiberg/Mayer (AO) data.
largest (>0.10) Wiberg bond orders for each atom

     #   Z sym  total        # sym  WBO       # sym  WBO       # sym  WBO
 ---------------------------------------------------------------------------
     1   6 C    3.990 --     2 C    1.441     6 C    1.416    43 H    0.968
                             4 C    0.110
     2   6 C    3.992 --     1 C    1.441     3 C    1.440    44 H    0.971
                             5 C    0.111
     3   6 C    3.990 --     2 C    1.440     4 C    1.437    45 H    0.970
                             6 C    0.109
     4   6 C    3.991 --     5 C    1.445     3 C    1.437    46 H    0.970
                             1 C    0.110
     5   6 C    3.991 --     4 C    1.445     6 C    1.407    47 H    0.967
                             2 C    0.111
     6   6 C    3.985 --     1 C    1.416     5 C    1.407     7 C    0.986
                             3 C    0.109
     7   6 C    3.964 --     6 C    0.986    31 N    0.960    48 H    0.955
                             8 C    0.955
     8   6 C    3.959 --     9 C    0.985    15 N    0.958     7 C    0.955
                            49 H    0.951
     9   6 C    3.984 --    14 C    1.420    10 C    1.407     8 C    0.985
                            12 C    0.109
    10   6 C    3.990 --    11 C    1.449     9 C    1.407    50 H    0.969
                            13 C    0.112
    11   6 C    3.992 --    10 C    1.449    12 C    1.434    51 H    0.971
                            14 C    0.111
    12   6 C    3.991 --    13 C    1.444    11 C    1.434    52 H    0.971
                             9 C    0.109
    13   6 C    3.992 --    12 C    1.444    14 C    1.438    53 H    0.971
                            10 C    0.112
    14   6 C    3.988 --    13 C    1.438     9 C    1.420    54 H    0.961
                            11 C    0.111
    15   7 N    3.477 --    16 C    1.219    27 C    0.986     8 C    0.958
                            26 O    0.193
    16   6 C    3.953 --    26 O    1.693    15 N    1.219    17 C    0.945
    17   6 C    3.985 --    25 C    1.416    18 C    1.355    16 C    0.945
                            23 C    0.105
    18   6 C    3.962 --    22 C    1.378    17 C    1.355    19 N    0.971
    19   7 N    3.915 --    21 O    1.467    20 O    1.427    18 C    0.971
    20   8 O    1.928 --    19 N    1.427    21 O    0.353
    21   8 O    1.948 --    19 N    1.467    20 O    0.353
    22   6 C    3.983 --    23 C    1.453    18 C    1.378    55 H    0.959
                            25 C    0.105
    23   6 C    3.990 --    22 C    1.453    24 C    1.428    56 H    0.968
                            17 C    0.105
    24   6 C    3.988 --    25 C    1.435    23 C    1.428    57 H    0.968
    25   6 C    3.990 --    24 C    1.435    17 C    1.416    58 H    0.968
                            22 C    0.105
    26   8 O    2.036 --    16 C    1.693    15 N    0.193
    27   6 C    3.965 --    15 N    0.986    31 N    0.984    59 H    0.939
                            28 C    0.905
    28   6 C    3.922 --    30 O    1.769    29 O    1.173    27 C    0.905
    29   8 O    2.240 --    28 C    1.173    60 H    0.852    30 O    0.182
    30   8 O    2.052 --    28 C    1.769    29 O    0.182
    31   7 N    3.486 --    32 C    1.230    27 C    0.984     7 C    0.960
                            42 O    0.192
    32   6 C    3.953 --    42 O    1.673    31 N    1.230    33 C    0.946
    33   6 C    3.986 --    34 C    1.414    38 C    1.357    32 C    0.946
                            36 C    0.104
    34   6 C    3.989 --    35 C    1.438    33 C    1.414    61 H    0.967
                            37 C    0.106
    35   6 C    3.988 --    34 C    1.438    36 C    1.425    62 H    0.968
    36   6 C    3.989 --    37 C    1.456    35 C    1.425    63 H    0.968
                            33 C    0.104
    37   6 C    3.984 --    36 C    1.456    38 C    1.379    64 H    0.959
                            34 C    0.106
    38   6 C    3.962 --    37 C    1.379    33 C    1.357    39 N    0.967
    39   7 N    3.912 --    40 O    1.454    41 O    1.443    38 C    0.967
    40   8 O    1.940 --    39 N    1.454    41 O    0.357
    41   8 O    1.955 --    39 N    1.443    40 O    0.357
    42   8 O    2.032 --    32 C    1.673    31 N    0.192
    43   1 H    0.999 --     1 C    0.968
    44   1 H    0.998 --     2 C    0.971
    45   1 H    0.997 --     3 C    0.970
    46   1 H    0.997 --     4 C    0.970
    47   1 H    0.998 --     5 C    0.967
    48   1 H    0.997 --     7 C    0.955
    49   1 H    0.995 --     8 C    0.951
    50   1 H    0.999 --    10 C    0.969
    51   1 H    0.998 --    11 C    0.971
    52   1 H    0.998 --    12 C    0.971
    53   1 H    0.998 --    13 C    0.971
    54   1 H    0.996 --    14 C    0.961
    55   1 H    0.992 --    22 C    0.959
    56   1 H    0.995 --    23 C    0.968
    57   1 H    0.996 --    24 C    0.968
    58   1 H    0.996 --    25 C    0.968
    59   1 H    0.994 --    27 C    0.939
    60   1 H    0.878 --    29 O    0.852
    61   1 H    0.996 --    34 C    0.967
    62   1 H    0.995 --    35 C    0.968
    63   1 H    0.995 --    36 C    0.968
    64   1 H    0.992 --    37 C    0.959
 ---------------------------------------------------------------------------

molecular dipole:
                 x           y           z       tot (Debye)
 q only:        1.965      -1.052      -0.766
   full:        2.102      -0.962      -0.654       6.106

           -------------------------------------------------
          | TOTAL ENERGY             -119.538306443778 Eh   |
          | GRADIENT NORM               0.000535484834 Eh/Î± |
          | HOMO-LUMO GAP               1.759638814048 eV   |
           -------------------------------------------------

 * finished run on 2022/03/17 at 01:44:31.605
