   * xtb version 6.3.3 (4ae9cef) compiled by 'conda@95abc7406d43' on 2020-10-14
          program call               : xtb acid_249.xyz --opt --chrg 0 --uhf 0 --gfn 2
          number of atoms            :                    72
          number of electrons        :                   214
          charge                     :                     0
          spin                       :                   0.0

   ID    Z sym.   atoms
    1    6 C      1-22, 24-30, 32, 33, 37-43
    2    7 N      23, 36
    3    8 O      31, 34, 35, 44
    4    1 H      45-72

          :  Hamiltonian                  GFN2-xTB          :
 * total energy  :  -117.7675232 Eh     change       -0.3425171E-08 Eh
 * total energy  :  -117.7847971 Eh     change       -0.1727395E-01 Eh
 * total energy  :  -117.7901400 Eh     change       -0.5342888E-02 Eh
 * total energy  :  -117.7918485 Eh     change       -0.1708464E-02 Eh
 * total energy  :  -117.7931088 Eh     change       -0.1260358E-02 Eh
 * total energy  :  -117.7937203 Eh     change       -0.6115013E-03 Eh
 * total energy  :  -117.7941449 Eh     change       -0.4246291E-03 Eh
 * total energy  :  -117.7944581 Eh     change       -0.3131049E-03 Eh
 * total energy  :  -117.7946672 Eh     change       -0.2091939E-03 Eh
 * total energy  :  -117.7948218 Eh     change       -0.1545840E-03 Eh
 * total energy  :  -117.7959484 Eh     change        0.8443007E-05 Eh
 * total energy  :  -117.7959325 Eh     change        0.1589443E-04 Eh
 * total energy  :  -117.7959174 Eh     change        0.1509060E-04 Eh
 * total energy  :  -117.7958984 Eh     change        0.1899836E-04 Eh
 * total energy  :  -117.7958752 Eh     change        0.2322336E-04 Eh
 * total energy  :  -117.7958474 Eh     change        0.2780782E-04 Eh
 * total energy  :  -117.7959434 Eh     change       -0.9607637E-04 Eh
 * total energy  :  -117.7959689 Eh     change       -0.2541484E-04 Eh
 * total energy  :  -117.7959716 Eh     change       -0.2789330E-05 Eh
   *** GEOMETRY OPTIMIZATION CONVERGED AFTER 43 ITERATIONS ***

 final structure:
================
72
 xtb: 6.3.3 (4ae9cef)
C        -3.42513332239566   -3.33364214024017   -1.04464276142673
C        -3.63571555801553   -2.65983434120607   -2.21361650682127
C        -2.99072060681175   -1.43529096811919   -2.43654960807435
C        -2.15245009450223   -0.91081840778801   -1.49274613830170
C        -1.91064193523983   -1.57571615475663   -0.27215761002373
C        -2.56588448535521   -2.81867180095415   -0.05121633394527
C        -2.34730803945421   -3.52019171271764    1.15105350086768
C        -1.51083991709172   -3.01539110835346    2.10330327448445
C        -0.86989602732921   -1.78981160955181    1.89270255039510
C        -1.05605670973675   -1.06531642785740    0.74083713437408
C        -0.26125835595329    0.20565442181750    0.59848974944218
C         0.92553285660802    0.07106406285660   -0.38316370260145
C         2.10561643822923   -0.54086475956539    0.32467203386741
C         2.92282293278663    0.26344390313906    1.07889954570592
C         4.00355361674906   -0.26017786107018    1.79707918087785
C         4.24651502895207   -1.60311868258524    1.77952051844106
C         3.41279981580078   -2.47210934624264    1.04707493915890
C         2.32093319659276   -1.94481756192019    0.30207489314160
C         1.50331207246237   -2.85699395543214   -0.40155492351074
C         1.74605120379469   -4.20154619230353   -0.36658179667345
C         2.82506921059663   -4.71522488548140    0.36603264807166
C         3.64122052731300   -3.86446908939543    1.05402163119938
N         1.14331664686666    1.45391277777277   -0.79269442781473
C         2.22625364723341    1.79294041913143   -1.56069823665543
C         2.32493783379454    3.24193782871993   -1.90334981987684
C         2.24519563146993    4.22393235049507   -0.92170712686199
C         2.38576229544543    5.55704366000325   -1.26266932976793
C         2.60237735219825    5.91809267598642   -2.58224223594893
C         2.70240399855624    4.94174723826546   -3.55936929219303
C         2.57615679527835    3.60682367539974   -3.22035375833096
O         3.06601747255272    0.98182218699329   -1.88251719531613
C        -0.12173531594561    2.14119663940492   -0.80214074824931
C        -0.79548147471043    2.18080250454068   -2.19175542592735
O         0.02865158426653    1.79086941467544   -3.16625230196991
O        -1.92386612244473    2.53075668173938   -2.38357738796970
N        -0.95452119930165    1.40094524646695    0.12895348286045
C        -1.89885731790250    2.06602131774950    0.86325817990322
C        -2.63516853157946    1.17047275990032    1.80793166617415
C        -2.26695567866862    1.09365773130037    3.14373657040784
C        -2.94038971153035    0.23626016999758    3.99626097268261
C        -3.98462219187920   -0.53764648750912    3.52045609993784
C        -4.36960354112415   -0.44160168969998    2.19391314728639
C        -3.69908193702907    0.41172298710620    1.33701218055842
O        -2.11488113875801    3.24734652904055    0.72049895559350
H        -3.91701612338710   -4.27765250586709   -0.85844970626796
H        -4.29693611852075   -3.06000829346376   -2.96772932618287
H        -3.16546800768380   -0.90154687237468   -3.35896272345352
H        -1.68106454550742    0.03870133115149   -1.67604423758212
H        -2.85146982552152   -4.46379032004295    1.30040229494210
H        -1.33533223753146   -3.55071490549695    3.02376825459498
H        -0.21036098879907   -1.41109505483977    2.66014001353478
H         0.16293299268390    0.43144110303755    1.58989646890771
H         0.64662269988297   -0.52485985507503   -1.25932407882252
H         2.74212311808148    1.32797417689124    1.11223457748227
H         4.63590613141736    0.40765130096617    2.36296861635852
H         5.07580395340886   -2.02181581548762    2.33114338629709
H         0.66289055671850   -2.50194703490013   -0.97620526071510
H         1.10224456932636   -4.87783677909850   -0.90959368623450
H         3.00417412391708   -5.78018503882751    0.37850484140127
H         4.47874021814836   -4.24427968993497    1.62174738796757
H         2.09695190740706    3.94554483451867    0.11214187916061
H         2.32638497868743    6.31586929084655   -0.49675300570910
H         2.70320069910756    6.96021338431147   -2.84631298294967
H         2.88606145688490    5.22134739578962   -4.58617793017576
H         2.66586170209859    2.83301894499008   -3.96737843486371
H        -0.05382814342057    3.19094382733023   -0.47364667989615
H        -0.40740436534409    1.85381459791635   -4.03192083611525
H        -1.45493804142001    1.70300688991800    3.51361557140525
H        -2.64857129475765    0.17268981590924    5.03411561607965
H        -4.50441870498026   -1.21038287464585    4.18626258611325
H        -5.19183593526721   -1.03524274210804    1.82340571847082
H        -3.99468772042627    0.49392888883603    0.30192648907405

          :  Hamiltonian                  GFN2-xTB          :
         :: total energy            -117.795971650135 Eh    ::
         :: gradient norm              0.000306814378 Eh/a0 ::
         :: HOMO-LUMO gap              2.828419034183 eV    ::
         :: SCC energy              -119.736654156861 Eh    ::
         :: -> dispersion             -0.112697596061 Eh    ::
         :: repulsion energy           1.936265107295 Eh    ::

    * Orbital Energies and Occupations

         #    Occupation            Energy/Eh            Energy/eV
      -------------------------------------------------------------
         1        2.0000           -0.7715864             -20.9959
       ...           ...                  ...                  ...
        95        2.0000           -0.4213775             -11.4663
        96        2.0000           -0.4169239             -11.3451
        97        2.0000           -0.4164124             -11.3312
        98        2.0000           -0.4150361             -11.2937
        99        2.0000           -0.4144531             -11.2778
       100        2.0000           -0.4102262             -11.1628
       101        2.0000           -0.4065508             -11.0628
       102        2.0000           -0.4034024             -10.9771
       103        2.0000           -0.3985007             -10.8438
       104        2.0000           -0.3956434             -10.7660
       105        2.0000           -0.3945484             -10.7362
       106        2.0000           -0.3900077             -10.6126
       107        2.0000           -0.3782210             -10.2919 (HOMO)
       108                         -0.2742785              -7.4635 (LUMO)
       109                         -0.2632839              -7.1643
       110                         -0.2589939              -7.0476
       111                         -0.2529468              -6.8830
       112                         -0.2415036              -6.5716
       113                         -0.2367028              -6.4410
       114                         -0.2340176              -6.3679
       115                         -0.2325080              -6.3269
       116                         -0.2314395              -6.2978
       117                         -0.2221049              -6.0438
       118                         -0.2036622              -5.5419
       ...                                ...                  ...
       204                          0.6922100              18.8360
      -------------------------------------------------------------
                  HL-Gap            0.1039425 Eh            2.8284 eV

     #   Z          covCN         q      C6AA      Î±(0)
     1   6 C        2.921    -0.033    28.824     8.804
     2   6 C        2.915    -0.028    28.701     8.785
     3   6 C        2.916    -0.027    28.677     8.781
     4   6 C        2.918    -0.034    28.843     8.807
     5   6 C        2.984     0.011    27.759     8.643
     6   6 C        2.989     0.015    27.671     8.629
     7   6 C        2.921    -0.035    28.867     8.811
     8   6 C        2.914    -0.029    28.720     8.788
     9   6 C        2.926    -0.034    28.855     8.809
    10   6 C        2.965    -0.006    28.171     8.706
    11   6 C        3.830     0.044    19.807     6.332
    12   6 C        3.836     0.053    19.671     6.310
    13   6 C        2.969     0.007    27.871     8.660
    14   6 C        2.923    -0.028    28.700     8.785
    15   6 C        2.914    -0.028    28.705     8.786
    16   6 C        2.921    -0.035    28.873     8.812
    17   6 C        2.989     0.017    27.633     8.623
    18   6 C        2.984     0.011    27.767     8.644
    19   6 C        2.917    -0.034    28.843     8.807
    20   6 C        2.917    -0.029    28.719     8.788
    21   6 C        2.915    -0.029    28.730     8.789
    22   6 C        2.921    -0.034    28.838     8.806
    23   7 N        2.762    -0.130    23.808     7.247
    24   6 C        2.763     0.279    22.286     7.731
    25   6 C        2.976    -0.017    28.436     8.747
    26   6 C        2.922    -0.030    28.757     8.794
    27   6 C        2.919    -0.026    28.653     8.778
    28   6 C        2.920    -0.025    28.639     8.776
    29   6 C        2.919    -0.027    28.669     8.780
    30   6 C        2.924    -0.021    28.519     8.758
    31   8 O        0.859    -0.411    21.899     6.274
    32   6 C        3.773     0.096    19.033     6.216
    33   6 C        2.687     0.350    21.057     7.510
    34   8 O        1.659    -0.369    20.254     6.075
    35   8 O        0.856    -0.375    21.185     6.171
    36   7 N        2.761    -0.132    23.858     7.254
    37   6 C        2.765     0.277    22.316     7.736
    38   6 C        2.979    -0.011    28.284     8.724
    39   6 C        2.922    -0.026    28.645     8.777
    40   6 C        2.920    -0.027    28.675     8.781
    41   6 C        2.920    -0.027    28.687     8.783
    42   6 C        2.920    -0.025    28.635     8.775
    43   6 C        2.924    -0.022    28.559     8.764
    44   8 O        0.858    -0.406    21.791     6.259
    45   1 H        0.926     0.036     2.498     2.472
    46   1 H        0.926     0.036     2.502     2.473
    47   1 H        0.926     0.035     2.511     2.478
    48   1 H        0.926     0.031     2.573     2.508
    49   1 H        0.926     0.040     2.450     2.448
    50   1 H        0.926     0.038     2.470     2.458
    51   1 H        0.926     0.029     2.605     2.524
    52   1 H        0.923     0.040     2.448     2.447
    53   1 H        0.924     0.052     2.300     2.371
    54   1 H        0.926     0.030     2.580     2.512
    55   1 H        0.926     0.037     2.495     2.470
    56   1 H        0.926     0.037     2.485     2.465
    57   1 H        0.926     0.025     2.653     2.547
    58   1 H        0.926     0.031     2.570     2.507
    59   1 H        0.926     0.034     2.536     2.491
    60   1 H        0.926     0.036     2.507     2.476
    61   1 H        0.926     0.032     2.563     2.504
    62   1 H        0.926     0.041     2.433     2.439
    63   1 H        0.926     0.040     2.451     2.448
    64   1 H        0.926     0.040     2.453     2.449
    65   1 H        0.926     0.049     2.331     2.388
    66   1 H        0.923     0.090     1.881     2.145
    67   1 H        0.804     0.342     0.607     1.223
    68   1 H        0.926     0.035     2.520     2.483
    69   1 H        0.926     0.039     2.459     2.452
    70   1 H        0.926     0.038     2.477     2.461
    71   1 H        0.926     0.038     2.474     2.460
    72   1 H        0.926     0.041     2.441     2.443

Wiberg/Mayer (AO) data.
largest (>0.10) Wiberg bond orders for each atom

     #   Z sym  total        # sym  WBO       # sym  WBO       # sym  WBO
 ---------------------------------------------------------------------------
     1   6 C    3.991 --     2 C    1.556     6 C    1.281    45 H    0.968
                             4 C    0.118
     2   6 C    3.991 --     1 C    1.556     3 C    1.323    46 H    0.971
     3   6 C    3.991 --     4 C    1.553     2 C    1.323    47 H    0.971
     4   6 C    3.992 --     3 C    1.553     5 C    1.284    48 H    0.958
                             1 C    0.118
     5   6 C    3.989 --     4 C    1.284    10 C    1.251     6 C    1.251
     6   6 C    3.990 --     1 C    1.281     7 C    1.279     5 C    1.251
     7   6 C    3.990 --     8 C    1.552     6 C    1.279    49 H    0.968
                            10 C    0.114
     8   6 C    3.991 --     7 C    1.552     9 C    1.328    50 H    0.970
     9   6 C    3.990 --    10 C    1.518     8 C    1.328    51 H    0.967
    10   6 C    3.984 --     9 C    1.518     5 C    1.251    11 C    0.995
                             7 C    0.114
    11   6 C    3.965 --    10 C    0.995    36 N    0.955    52 H    0.954
                            12 C    0.945
    12   6 C    3.965 --    13 C    0.994    23 N    0.960    53 H    0.947
                            11 C    0.945
    13   6 C    3.984 --    14 C    1.521    18 C    1.254    12 C    0.994
                            16 C    0.115
    14   6 C    3.991 --    13 C    1.521    15 C    1.329    54 H    0.967
    15   6 C    3.992 --    16 C    1.551    14 C    1.329    55 H    0.970
    16   6 C    3.990 --    15 C    1.551    17 C    1.281    56 H    0.968
                            13 C    0.115
    17   6 C    3.990 --    16 C    1.281    22 C    1.279    18 C    1.252
    18   6 C    3.989 --    19 C    1.283    13 C    1.254    17 C    1.252
    19   6 C    3.992 --    20 C    1.555    18 C    1.283    57 H    0.961
                            22 C    0.118
    20   6 C    3.992 --    19 C    1.555    21 C    1.322    58 H    0.971
    21   6 C    3.992 --    22 C    1.558    20 C    1.322    59 H    0.971
    22   6 C    3.991 --    21 C    1.558    17 C    1.279    60 H    0.968
                            19 C    0.118
    23   7 N    3.422 --    24 C    1.170    32 C    0.995    12 C    0.960
                            31 O    0.178
    24   6 C    3.943 --    31 O    1.712    23 N    1.170    25 C    0.974
    25   6 C    3.987 --    30 C    1.403    26 C    1.399    24 C    0.974
                            28 C    0.109
    26   6 C    3.992 --    27 C    1.447    25 C    1.399    61 H    0.968
                            29 C    0.110
    27   6 C    3.992 --    26 C    1.447    28 C    1.436    62 H    0.970
                            30 C    0.110
    28   6 C    3.992 --    29 C    1.439    27 C    1.436    63 H    0.971
                            25 C    0.109
    29   6 C    3.992 --    30 C    1.445    28 C    1.439    64 H    0.970
                            26 C    0.110
    30   6 C    3.990 --    29 C    1.445    25 C    1.403    65 H    0.968
                            27 C    0.110
    31   8 O    2.032 --    24 C    1.712    23 N    0.178
    32   6 C    3.968 --    23 N    0.995    36 N    0.976    66 H    0.922
                            33 C    0.913
    33   6 C    3.918 --    35 O    1.788    34 O    1.142    32 C    0.913
    34   8 O    2.212 --    33 C    1.142    67 H    0.856    35 O    0.181
    35   8 O    2.074 --    33 C    1.788    34 O    0.181
    36   7 N    3.424 --    37 C    1.179    32 C    0.976    11 C    0.955
                            44 O    0.183
    37   6 C    3.941 --    44 O    1.723    36 N    1.179    38 C    0.957
    38   6 C    3.988 --    39 C    1.411    43 C    1.402    37 C    0.957
                            41 C    0.111
    39   6 C    3.991 --    40 C    1.439    38 C    1.411    68 H    0.970
                            42 C    0.111
    40   6 C    3.991 --    41 C    1.441    39 C    1.439    69 H    0.970
                            43 C    0.112
    41   6 C    3.992 --    40 C    1.441    42 C    1.438    70 H    0.971
                            38 C    0.111
    42   6 C    3.992 --    43 C    1.444    41 C    1.438    71 H    0.970
                            39 C    0.111
    43   6 C    3.991 --    42 C    1.444    38 C    1.402    72 H    0.969
                            40 C    0.112
    44   8 O    2.040 --    37 C    1.723    36 N    0.183
    45   1 H    0.998 --     1 C    0.968
    46   1 H    0.998 --     2 C    0.971
    47   1 H    0.998 --     3 C    0.971
    48   1 H    0.999 --     4 C    0.958
    49   1 H    0.997 --     7 C    0.968
    50   1 H    0.997 --     8 C    0.970
    51   1 H    0.999 --     9 C    0.967
    52   1 H    0.998 --    11 C    0.954
    53   1 H    0.997 --    12 C    0.947
    54   1 H    0.999 --    14 C    0.967
    55   1 H    0.998 --    15 C    0.970
    56   1 H    0.998 --    16 C    0.968
    57   1 H    0.999 --    19 C    0.961
    58   1 H    0.999 --    20 C    0.971
    59   1 H    0.998 --    21 C    0.971
    60   1 H    0.998 --    22 C    0.968
    61   1 H    0.999 --    26 C    0.968
    62   1 H    0.998 --    27 C    0.970
    63   1 H    0.998 --    28 C    0.971
    64   1 H    0.998 --    29 C    0.970
    65   1 H    0.998 --    30 C    0.968
    66   1 H    0.991 --    32 C    0.922
    67   1 H    0.883 --    34 O    0.856
    68   1 H    0.999 --    39 C    0.970
    69   1 H    0.998 --    40 C    0.970
    70   1 H    0.998 --    41 C    0.971
    71   1 H    0.998 --    42 C    0.970
    72   1 H    0.998 --    43 C    0.969
 ---------------------------------------------------------------------------

molecular dipole:
                 x           y           z       tot (Debye)
 q only:       -0.003      -1.380       0.398
   full:       -0.062      -1.230       0.261       3.199

           -------------------------------------------------
          | TOTAL ENERGY             -117.795971650135 Eh   |
          | GRADIENT NORM               0.000306814378 Eh/Î± |
          | HOMO-LUMO GAP               2.828419034183 eV   |
           -------------------------------------------------

 * finished run on 2022/03/16 at 22:57:32.872
