   * xtb version 6.3.3 (4ae9cef) compiled by 'conda@95abc7406d43' on 2020-10-14
          program call               : xtb acid_423.xyz --opt --chrg 0 --uhf 0 --gfn 2
          number of atoms            :                    80
          number of electrons        :                   234
          charge                     :                     0
          spin                       :                   0.0

   ID    Z sym.   atoms
    1    6 C      1-14, 16-28, 30, 31, 35-47
    2    7 N      15, 34
    3    8 O      29, 32, 33, 48
    4    1 H      49-80

          :  Hamiltonian                  GFN2-xTB          :
 * total energy  :  -128.3710747 Eh     change       -0.1927674E-08 Eh
 * total energy  :  -128.3848291 Eh     change       -0.1375435E-01 Eh
 * total energy  :  -128.3889740 Eh     change       -0.4144904E-02 Eh
 * total energy  :  -128.3904154 Eh     change       -0.1441388E-02 Eh
 * total energy  :  -128.3912799 Eh     change       -0.8645326E-03 Eh
 * total energy  :  -128.3918101 Eh     change       -0.5301501E-03 Eh
 * total energy  :  -128.3923020 Eh     change       -0.4919099E-03 Eh
 * total energy  :  -128.3927961 Eh     change       -0.4940803E-03 Eh
 * total energy  :  -128.3932344 Eh     change       -0.4382958E-03 Eh
 * total energy  :  -128.3935504 Eh     change       -0.3160697E-03 Eh
 * total energy  :  -128.3962648 Eh     change       -0.2439709E-04 Eh
 * total energy  :  -128.3962876 Eh     change       -0.2280821E-04 Eh
 * total energy  :  -128.3963081 Eh     change       -0.2047679E-04 Eh
 * total energy  :  -128.3963271 Eh     change       -0.1903301E-04 Eh
 * total energy  :  -128.3963464 Eh     change       -0.1927134E-04 Eh
 * total energy  :  -128.3963669 Eh     change       -0.2051332E-04 Eh
 * total energy  :  -128.3963902 Eh     change       -0.2328561E-04 Eh
 * total energy  :  -128.3964181 Eh     change       -0.2796091E-04 Eh
 * total energy  :  -128.3964230 Eh     change       -0.4873881E-05 Eh
   *** GEOMETRY OPTIMIZATION CONVERGED AFTER 68 ITERATIONS ***

 final structure:
================
80
 xtb: 6.3.3 (4ae9cef)
C        -2.89512330205077   -2.33531297852786   -0.36127745885866
C        -3.91345846703949   -2.33595712109761   -1.29801932653288
C        -3.87392181609364   -1.45832534915120   -2.36691311388957
C        -2.80871419285158   -0.58255383864928   -2.49923602033565
C        -1.79264212868390   -0.57445472933760   -1.56162527089823
C        -1.83548436626583   -1.44825010134171   -0.48081675052365
C        -0.72768102721856   -1.43645371055353    0.53978037521122
C         0.61995472841320   -1.87603937697172   -0.07504422451085
C         0.93909544416319   -3.30967629455031    0.25370841790563
C         1.36178832294585   -3.65849250704860    1.52983472137963
C         1.62823622680727   -4.97901311389959    1.84075370024333
C         1.46192952229548   -5.96422433236128    0.88223583866739
C         1.03065725027076   -5.62271097025696   -0.38784939304852
C         0.77085678353394   -4.30052885713215   -0.70178760148379
N         1.59081974710838   -0.95709207070530    0.50534999074203
C         2.90589848298834   -1.06498839326839    0.15669782755714
C         3.80885599786306   -0.04435298763803    0.76430182369505
C         3.90466119610703    0.10186392577758    2.14353354956251
C         4.77886617987185    1.03256778798366    2.67455239233157
C         5.55631802790592    1.81524328233033    1.84097029460255
C         5.49080196636378    1.66054491107586    0.45845073386753
C         6.34432601294379    2.46485228169376   -0.42923080203221
C         6.53624287715866    3.82396658351965   -0.19349754604580
C         7.34530067208788    4.57395705363633   -1.02697239107966
C         7.97987927915618    3.97678750797506   -2.10330939632808
C         7.79732909488552    2.62526506384421   -2.34469668996930
C         6.98320274667218    1.87459992407870   -1.51715267880138
C         4.61394414691697    0.71734586794437   -0.06894628165266
O         3.30366556194177   -1.95321167568901   -0.56668833298879
C         0.95742873240832    0.22691383842403    1.02585982403420
C         1.17908520586835    1.45231708670946    0.11218642384601
O         1.90000678416495    2.39038892054974    0.70886533292067
O         0.82261567171624    1.49114148892170   -1.03427189886684
N        -0.45143190659992   -0.10386515846098    1.05408087662858
C        -1.32585764602499    0.92631985458905    1.18007094196677
C        -2.75627276146290    0.54295905984048    1.31245757285016
C        -3.71079034921584    1.13376620361717    0.49830445134284
C        -5.05186422020797    0.78052455977698    0.61020928283255
C        -6.06393490761717    1.37595711029681   -0.27446497638668
C        -7.31122343261776    1.74887572261512    0.22098638310347
C        -8.26545983834257    2.29659347646072   -0.61616116646162
C        -7.99147086186650    2.47432305491247   -1.96184177378109
C        -6.75378522662602    2.10813689959157   -2.46401943134711
C        -5.79519333867737    1.56746757855282   -1.62747287155726
C        -5.42070079529660   -0.15411769533750    1.57544583345269
C        -4.47494890351014   -0.71413920758757    2.41378838415670
C        -3.14127589732843   -0.37339796679014    2.28508002678216
O        -0.91552194327786    2.07313049831074    1.23809892431111
H        -2.92646984058008   -3.02266452149875    0.47173341187734
H        -4.74002584848245   -3.02224755925567   -1.19142464712798
H        -4.67183049223424   -1.45632158768150   -3.09462651910212
H        -2.76646523529034    0.09804839332384   -3.33710303468979
H        -0.97338888801827    0.12334479167327   -1.66031620949653
H        -0.98154069357466   -2.10770057007902    1.37215806483430
H         0.60106907846071   -1.74794865889257   -1.16559472064889
H         1.49463008017598   -2.88927607767270    2.27753838617733
H         1.96749998359729   -5.24015079994506    2.83250280937811
H         1.67202408671283   -6.99539648883887    1.12461146537916
H         0.90201385761024   -6.38761690577310   -1.13917989482417
H         0.44138754988386   -4.03306798206069   -1.69493286700664
H         3.31673586905409   -0.52647303487859    2.79674495479608
H         4.85797030552607    1.14522943044637    3.74577149763403
H         6.24475502369428    2.53177396321052    2.26422453831135
H         6.03255693290038    4.29689180223931    0.63737799872326
H         7.48148696023659    5.62871185433545   -0.83665288524446
H         8.61453704035419    4.56269010681620   -2.75161402033551
H         8.29327348400558    2.15391908788679   -3.18062863809373
H         6.85601750150658    0.81747691356252   -1.69847579997868
H         4.53653280606363    0.58424337653097   -1.13797432571274
H         1.31374524042192    0.49158343741525    2.03198495759035
H         1.99624083223624    3.16672287508415    0.13412269222736
H        -3.39898008789775    1.87330574046658   -0.22338733786840
H        -7.52492170804154    1.62871649507624    1.27315335081164
H        -9.22660781472254    2.58688109065847   -0.21734909550098
H        -8.73909185670147    2.89795532906037   -2.61597670819695
H        -6.53558531305336    2.24437641275440   -3.51327986280690
H        -4.83649839003462    1.26791060489301   -2.02324643735358
H        -6.45569379397447   -0.45060365401082    1.66047814803901
H        -4.77790570522044   -1.42574613215362    3.16784070595823
H        -2.40247829829827   -0.80321783936396    2.94506549565672

          :  Hamiltonian                  GFN2-xTB          :
         :: total energy            -128.396423013960 Eh    ::
         :: gradient norm              0.000242164584 Eh/a0 ::
         :: HOMO-LUMO gap              3.499675087042 eV    ::
         :: SCC energy              -130.547315704549 Eh    ::
         :: -> dispersion             -0.116350181679 Eh    ::
         :: repulsion energy           2.148470827437 Eh    ::

    * Orbital Energies and Occupations

         #    Occupation            Energy/Eh            Energy/eV
      -------------------------------------------------------------
         1        2.0000           -0.7543389             -20.5266
       ...           ...                  ...                  ...
       105        2.0000           -0.4135811             -11.2541
       106        2.0000           -0.4126031             -11.2275
       107        2.0000           -0.4114383             -11.1958
       108        2.0000           -0.4092779             -11.1370
       109        2.0000           -0.4081755             -11.1070
       110        2.0000           -0.4075988             -11.0913
       111        2.0000           -0.4057188             -11.0402
       112        2.0000           -0.4043210             -11.0021
       113        2.0000           -0.4013231             -10.9206
       114        2.0000           -0.3945704             -10.7368
       115        2.0000           -0.3932574             -10.7011
       116        2.0000           -0.3894958             -10.5987
       117        2.0000           -0.3888406             -10.5809 (HOMO)
       118                         -0.2602299              -7.0812 (LUMO)
       119                         -0.2528027              -6.8791
       120                         -0.2488669              -6.7720
       121                         -0.2462825              -6.7017
       122                         -0.2428950              -6.6095
       123                         -0.2371867              -6.4542
       124                         -0.2323997              -6.3239
       125                         -0.2279080              -6.2017
       126                         -0.2261400              -6.1536
       127                         -0.2259306              -6.1479
       128                         -0.2236314              -6.0853
       ...                                ...                  ...
       224                          0.6882003              18.7269
      -------------------------------------------------------------
                  HL-Gap            0.1286107 Eh            3.4997 eV

     #   Z          covCN         q      C6AA      Î±(0)
     1   6 C        2.923    -0.035    28.861     8.810
     2   6 C        2.920    -0.028    28.695     8.784
     3   6 C        2.920    -0.028    28.709     8.787
     4   6 C        2.920    -0.026    28.647     8.777
     5   6 C        2.923    -0.037    28.914     8.818
     6   6 C        2.974    -0.002    28.064     8.690
     7   6 C        3.815     0.040    19.884     6.347
     8   6 C        3.828     0.050    19.725     6.319
     9   6 C        2.974     0.013    27.724     8.637
    10   6 C        2.924    -0.030    28.749     8.793
    11   6 C        2.920    -0.027    28.677     8.782
    12   6 C        2.920    -0.029    28.713     8.787
    13   6 C        2.920    -0.025    28.628     8.774
    14   6 C        2.924    -0.028    28.705     8.786
    15   7 N        2.761    -0.122    23.651     7.223
    16   6 C        2.766     0.271    22.414     7.753
    17   6 C        2.975    -0.019    28.482     8.754
    18   6 C        2.922    -0.030    28.752     8.793
    19   6 C        2.918    -0.026    28.653     8.778
    20   6 C        2.925    -0.031    28.778     8.797
    21   6 C        2.977     0.014    27.689     8.631
    22   6 C        2.978     0.010    27.794     8.648
    23   6 C        2.925    -0.035    28.860     8.810
    24   6 C        2.918    -0.030    28.737     8.791
    25   6 C        2.920    -0.030    28.750     8.793
    26   6 C        2.919    -0.028    28.706     8.786
    27   6 C        2.925    -0.032    28.808     8.802
    28   6 C        2.930    -0.026    28.664     8.780
    29   8 O        0.859    -0.416    22.000     6.289
    30   6 C        3.766     0.097    19.016     6.215
    31   6 C        2.688     0.367    20.773     7.459
    32   8 O        1.659    -0.358    20.060     6.046
    33   8 O        0.856    -0.402    21.723     6.249
    34   7 N        2.765    -0.116    23.526     7.204
    35   6 C        2.773     0.274    22.373     7.747
    36   6 C        2.976    -0.012    28.316     8.729
    37   6 C        2.928    -0.024    28.614     8.772
    38   6 C        2.977     0.015    27.678     8.630
    39   6 C        2.978     0.010    27.781     8.646
    40   6 C        2.925    -0.033    28.812     8.803
    41   6 C        2.918    -0.029    28.723     8.789
    42   6 C        2.920    -0.030    28.744     8.792
    43   6 C        2.919    -0.028    28.704     8.786
    44   6 C        2.925    -0.033    28.828     8.805
    45   6 C        2.926    -0.032    28.795     8.800
    46   6 C        2.918    -0.028    28.700     8.785
    47   6 C        2.923    -0.031    28.782     8.798
    48   8 O        0.860    -0.431    22.302     6.332
    49   1 H        0.926     0.029     2.597     2.520
    50   1 H        0.926     0.036     2.496     2.471
    51   1 H        0.926     0.038     2.478     2.461
    52   1 H        0.926     0.040     2.445     2.445
    53   1 H        0.926     0.061     2.189     2.314
    54   1 H        0.923     0.047     2.355     2.400
    55   1 H        0.923     0.060     2.200     2.320
    56   1 H        0.926     0.029     2.607     2.525
    57   1 H        0.926     0.036     2.509     2.477
    58   1 H        0.926     0.037     2.495     2.470
    59   1 H        0.926     0.038     2.469     2.457
    60   1 H        0.926     0.036     2.497     2.471
    61   1 H        0.926     0.029     2.593     2.518
    62   1 H        0.926     0.039     2.462     2.454
    63   1 H        0.926     0.040     2.448     2.447
    64   1 H        0.926     0.031     2.571     2.507
    65   1 H        0.926     0.031     2.573     2.508
    66   1 H        0.926     0.031     2.566     2.505
    67   1 H        0.926     0.033     2.544     2.494
    68   1 H        0.926     0.038     2.478     2.462
    69   1 H        0.926     0.046     2.371     2.408
    70   1 H        0.923     0.068     2.105     2.269
    71   1 H        0.804     0.345     0.601     1.218
    72   1 H        0.926     0.050     2.323     2.383
    73   1 H        0.926     0.033     2.546     2.495
    74   1 H        0.926     0.032     2.554     2.499
    75   1 H        0.926     0.032     2.552     2.498
    76   1 H        0.926     0.033     2.550     2.497
    77   1 H        0.926     0.035     2.519     2.482
    78   1 H        0.926     0.041     2.437     2.441
    79   1 H        0.926     0.039     2.463     2.454
    80   1 H        0.926     0.032     2.553     2.498

Wiberg/Mayer (AO) data.
largest (>0.10) Wiberg bond orders for each atom

     #   Z sym  total        # sym  WBO       # sym  WBO       # sym  WBO
 ---------------------------------------------------------------------------
     1   6 C    3.991 --     2 C    1.440     6 C    1.417    49 H    0.968
                             4 C    0.109
     2   6 C    3.992 --     3 C    1.441     1 C    1.440    50 H    0.971
                             5 C    0.112
     3   6 C    3.990 --     2 C    1.441     4 C    1.434    51 H    0.971
                             6 C    0.109
     4   6 C    3.992 --     5 C    1.449     3 C    1.434    52 H    0.970
                             1 C    0.109
     5   6 C    3.989 --     4 C    1.449     6 C    1.407    53 H    0.961
                             2 C    0.112
     6   6 C    3.985 --     1 C    1.417     5 C    1.407     7 C    0.991
                             3 C    0.109
     7   6 C    3.964 --     6 C    0.991    34 N    0.958    54 H    0.954
                             8 C    0.951
     8   6 C    3.963 --     9 C    0.991    15 N    0.957    55 H    0.952
                             7 C    0.951
     9   6 C    3.985 --    14 C    1.415    10 C    1.410     8 C    0.991
                            12 C    0.109
    10   6 C    3.991 --    11 C    1.448     9 C    1.410    56 H    0.969
                            13 C    0.111
    11   6 C    3.992 --    10 C    1.448    12 C    1.436    57 H    0.971
                            14 C    0.111
    12   6 C    3.991 --    13 C    1.441    11 C    1.436    58 H    0.971
                             9 C    0.109
    13   6 C    3.992 --    14 C    1.443    12 C    1.441    59 H    0.971
                            10 C    0.111
    14   6 C    3.990 --    13 C    1.443     9 C    1.415    60 H    0.969
                            11 C    0.111
    15   7 N    3.444 --    16 C    1.189    30 C    0.986     8 C    0.957
                            29 O    0.184
    16   6 C    3.944 --    29 O    1.701    15 N    1.189    17 C    0.970
    17   6 C    3.986 --    28 C    1.416    18 C    1.393    16 C    0.970
                            20 C    0.104
    18   6 C    3.986 --    19 C    1.441    17 C    1.393    61 H    0.969
                            21 C    0.104
    19   6 C    3.991 --    20 C    1.445    18 C    1.441    62 H    0.970
                            28 C    0.105
    20   6 C    3.991 --    19 C    1.445    21 C    1.389    63 H    0.968
                            17 C    0.104
    21   6 C    3.988 --    28 C    1.390    20 C    1.389    22 C    1.045
                            18 C    0.104
    22   6 C    3.989 --    23 C    1.391    27 C    1.389    21 C    1.045
                            25 C    0.106
    23   6 C    3.992 --    24 C    1.451    22 C    1.391    64 H    0.969
                            26 C    0.109
    24   6 C    3.992 --    23 C    1.451    25 C    1.435    65 H    0.971
                            27 C    0.109
    25   6 C    3.988 --    24 C    1.435    26 C    1.435    66 H    0.972
                            22 C    0.106
    26   6 C    3.992 --    27 C    1.452    25 C    1.435    67 H    0.971
                            23 C    0.109
    27   6 C    3.991 --    26 C    1.452    22 C    1.389    68 H    0.968
                            24 C    0.109
    28   6 C    3.989 --    17 C    1.416    21 C    1.390    69 H    0.967
                            19 C    0.105
    29   8 O    2.026 --    16 C    1.701    15 N    0.184
    30   6 C    3.966 --    15 N    0.986    34 N    0.978    70 H    0.945
                            31 C    0.906
    31   6 C    3.920 --    33 O    1.753    32 O    1.160    30 C    0.906
    32   8 O    2.222 --    31 C    1.160    71 H    0.855    33 O    0.175
    33   8 O    2.048 --    31 C    1.753    32 O    0.175
    34   7 N    3.456 --    35 C    1.214    30 C    0.978     7 C    0.958
                            48 O    0.182
    35   6 C    3.941 --    48 O    1.656    34 N    1.214    36 C    0.979
    36   6 C    3.987 --    37 C    1.412    47 C    1.389    35 C    0.979
                            45 C    0.103
    37   6 C    3.989 --    36 C    1.412    38 C    1.392    72 H    0.966
                            46 C    0.104
    38   6 C    3.988 --    37 C    1.392    45 C    1.386    39 C    1.046
                            47 C    0.103
    39   6 C    3.989 --    40 C    1.390    44 C    1.388    38 C    1.046
                            42 C    0.106
    40   6 C    3.991 --    41 C    1.451    39 C    1.390    73 H    0.968
                            43 C    0.108
    41   6 C    3.992 --    40 C    1.451    42 C    1.435    74 H    0.971
                            44 C    0.109
    42   6 C    3.987 --    41 C    1.435    43 C    1.434    75 H    0.971
                            39 C    0.106
    43   6 C    3.992 --    44 C    1.452    42 C    1.434    76 H    0.971
                            40 C    0.108
    44   6 C    3.991 --    43 C    1.452    39 C    1.388    77 H    0.966
                            41 C    0.109
    45   6 C    3.991 --    46 C    1.446    38 C    1.386    78 H    0.968
                            36 C    0.103
    46   6 C    3.991 --    45 C    1.446    47 C    1.442    79 H    0.969
                            37 C    0.104
    47   6 C    3.986 --    46 C    1.442    36 C    1.389    80 H    0.969
                            38 C    0.103
    48   8 O    2.035 --    35 C    1.656    34 N    0.182
    49   1 H    0.999 --     1 C    0.968
    50   1 H    0.998 --     2 C    0.971
    51   1 H    0.998 --     3 C    0.971
    52   1 H    0.998 --     4 C    0.970
    53   1 H    0.996 --     5 C    0.961
    54   1 H    0.997 --     7 C    0.954
    55   1 H    0.996 --     8 C    0.952
    56   1 H    0.999 --    10 C    0.969
    57   1 H    0.998 --    11 C    0.971
    58   1 H    0.998 --    12 C    0.971
    59   1 H    0.998 --    13 C    0.971
    60   1 H    0.999 --    14 C    0.969
    61   1 H    0.999 --    18 C    0.969
    62   1 H    0.997 --    19 C    0.970
    63   1 H    0.998 --    20 C    0.968
    64   1 H    0.999 --    23 C    0.969
    65   1 H    0.998 --    24 C    0.971
    66   1 H    0.999 --    25 C    0.972
    67   1 H    0.998 --    26 C    0.971
    68   1 H    0.999 --    27 C    0.968
    69   1 H    0.998 --    28 C    0.967
    70   1 H    0.994 --    30 C    0.945
    71   1 H    0.881 --    32 O    0.855
    72   1 H    0.998 --    37 C    0.966
    73   1 H    0.999 --    40 C    0.968
    74   1 H    0.998 --    41 C    0.971
    75   1 H    0.998 --    42 C    0.971
    76   1 H    0.998 --    43 C    0.971
    77   1 H    0.999 --    44 C    0.966
    78   1 H    0.998 --    45 C    0.968
    79   1 H    0.997 --    46 C    0.969
    80   1 H    0.998 --    47 C    0.969
 ---------------------------------------------------------------------------

molecular dipole:
                 x           y           z       tot (Debye)
 q only:       -1.043      -0.426       0.556
   full:       -1.019      -0.223       0.697       3.189

           -------------------------------------------------
          | TOTAL ENERGY             -128.396423013960 Eh   |
          | GRADIENT NORM               0.000242164584 Eh/Î± |
          | HOMO-LUMO GAP               3.499675087042 eV   |
           -------------------------------------------------

 * finished run on 2022/03/17 at 01:02:46.537
