   * xtb version 6.3.3 (4ae9cef) compiled by 'conda@95abc7406d43' on 2020-10-14
          program call               : xtb acid_148.xyz --opt --chrg 0 --uhf 0 --gfn 2
          number of atoms            :                    72
          number of electrons        :                   226
          charge                     :                     0
          spin                       :                   0.0

   ID    Z sym.   atoms
    1    6 C      1-22, 24-26, 28-31, 33, 34, 38-44
    2    7 N      23, 37
    3   17 Cl     27, 45
    4    8 O      32, 35, 36, 46
    5    1 H      47-72

          :  Hamiltonian                  GFN2-xTB          :
 * total energy  :  -125.8794408 Eh     change       -0.5994622E-08 Eh
 * total energy  :  -125.8979115 Eh     change       -0.1847077E-01 Eh
 * total energy  :  -125.9041286 Eh     change       -0.6217058E-02 Eh
 * total energy  :  -125.9060703 Eh     change       -0.1941717E-02 Eh
 * total energy  :  -125.9071714 Eh     change       -0.1101052E-02 Eh
 * total energy  :  -125.9075966 Eh     change       -0.4252408E-03 Eh
 * total energy  :  -125.9079216 Eh     change       -0.3250152E-03 Eh
 * total energy  :  -125.9082714 Eh     change       -0.3498115E-03 Eh
 * total energy  :  -125.9086566 Eh     change       -0.3851348E-03 Eh
 * total energy  :  -125.9089708 Eh     change       -0.3142540E-03 Eh
 * total energy  :  -125.9117147 Eh     change       -0.7970977E-05 Eh
 * total energy  :  -125.9117226 Eh     change       -0.7903808E-05 Eh
 * total energy  :  -125.9117293 Eh     change       -0.6758292E-05 Eh
 * total energy  :  -125.9117348 Eh     change       -0.5488745E-05 Eh
 * total energy  :  -125.9117403 Eh     change       -0.5527232E-05 Eh
 * total energy  :  -125.9117464 Eh     change       -0.6050339E-05 Eh
 * total energy  :  -125.9117533 Eh     change       -0.6864184E-05 Eh
 * total energy  :  -125.9117589 Eh     change       -0.5621691E-05 Eh
 * total energy  :  -125.9117634 Eh     change       -0.4492694E-05 Eh
   *** GEOMETRY OPTIMIZATION CONVERGED AFTER 66 ITERATIONS ***

 final structure:
================
72
 xtb: 6.3.3 (4ae9cef)
C         2.24487646090978   -4.79872243380205    0.21809285117950
C         1.58682045394980   -5.08436642967337   -0.94358869343166
C         1.00421674211560   -4.04765770701703   -1.68506813642853
C         1.08643139657009   -2.75225419931555   -1.25642423780918
C         1.74620441100894   -2.41859882402810   -0.05291144835358
C         2.33800062612196   -3.47420705571303    0.69469856993811
C         2.99674037608211   -3.18745565714384    1.90822809288868
C         3.04824037972171   -1.90947087409424    2.38354842889978
C         2.45150781148301   -0.86712617350683    1.66247480780896
C         1.83083983276603   -1.09595882324664    0.46223011215202
C         1.16441850148166    0.04243122346388   -0.27308370041804
C        -0.32255361484049    0.15646915177040    0.13157109605516
C        -1.25517801238989   -0.31599833617023   -0.95430916180765
C        -1.36159918161494    0.45005964905315   -2.08983793362265
C        -2.23727139671999    0.10443916420482   -3.12446788046462
C        -3.01413333855269   -1.01271870327119   -3.01119197118453
C        -2.91601453008619   -1.84429722446992   -1.87754776839488
C        -2.00766069151511   -1.51424628190085   -0.83387158716592
C        -1.89947240526724   -2.40563742334151    0.25596064567054
C        -2.66552353053530   -3.53496912822966    0.32385027441823
C        -3.58424155938743   -3.83910596369801   -0.69047179249186
C        -3.70073247726422   -3.01172391614839   -1.76963734469503
N        -0.50552854240859    1.57262387575430    0.40922856441254
C        -1.65199111067950    2.17699879296056    0.80617376548459
C        -2.88200456263765    1.32403009034732    0.70966795956140
C        -3.16769151600883    0.36489052897704    1.67454963869285
Cl       -2.09984670717257    0.17196445659241    3.02448502235841
C        -4.29962933093509   -0.42792896712560    1.57357278998437
C        -5.16022922828678   -0.25295595756069    0.50543532325172
C        -4.90831904195443    0.72697243398261   -0.44062958100178
C        -3.78002170349034    1.51799856693456   -0.33244339504232
O        -1.66771731101313    3.33822728028830    1.16030870383089
C         0.75186439936445    2.27039933653604    0.55914546796269
C         0.97606871206234    2.58785640596840    2.05595059767688
O         1.31361533752090    3.85615345693736    2.23372273773724
O         0.84747862537211    1.78584473729540    2.93586184879221
N         1.72494979079351    1.35451771816702    0.02655107935946
C         2.94254456864716    1.68785280516611   -0.47320572003401
C         3.34892630361861    3.11600532260173   -0.24971030066087
C         3.16547600294656    4.05237132170495   -1.25938006123690
C         3.58458593464063    5.35950684545025   -1.08803313178120
C         4.20112963765390    5.73915347521220    0.09240037345375
C         4.40237069239613    4.81598024624513    1.10295997992602
C         3.97614476309167    3.51021909436068    0.92534800414842
Cl        4.22718523066771    2.34724387503064    2.18041443804919
O         3.63540286066027    0.89363883266636   -1.06898053989365
H         2.70359098567726   -5.58675606596727    0.79854841607692
H         1.51403512885454   -6.10180901187346   -1.29879778929952
H         0.48653172204501   -4.27707100403788   -2.60496287024842
H         0.62792907173893   -1.98127260366719   -1.85491540926072
H         3.44942724885286   -4.00073029409329    2.45722019313843
H         3.54073517700525   -1.68703227363801    3.31824804522819
H         2.47930240333170    0.12911169025014    2.07350044349172
H         1.27513256529751   -0.11131330812753   -1.35334708530161
H        -0.47558646126261   -0.40416389691990    1.05833170201364
H        -0.77136670678605    1.35139872527347   -2.17917867459225
H        -2.29742449102649    0.73202715561794   -4.00099937272077
H        -3.70805710544692   -1.28310786654188   -3.79373494376964
H        -1.19239302716433   -2.21353274124649    1.04667864983391
H        -2.56217246977498   -4.20465117559353    1.16447952853517
H        -4.18631717087374   -4.73248722664437   -0.61546700680283
H        -4.39214633450907   -3.24147062709618   -2.56778229092489
H        -4.49680055832668   -1.17357792568792    2.32684537528528
H        -6.03588631952608   -0.87771826359018    0.41942132681570
H        -5.59089172224545    0.87554795133715   -1.26285499679407
H        -3.57633415015331    2.28642129549762   -1.06236016411745
H         0.73677842844721    3.23024450355849    0.02055241169312
H         1.41061511341679    4.06268980960572    3.17829661565309
H         2.69694252923796    3.74436018003560   -2.18250054194020
H         3.43458156485885    6.07968719623504   -1.87747651498829
H         4.53255226801883    6.75720660301067    0.22770597138155
H         4.88853725140283    5.09954756609772    2.02291019386698

          :  Hamiltonian                  GFN2-xTB          :
         :: total energy            -125.911763366490 Eh    ::
         :: gradient norm              0.000339556104 Eh/a0 ::
         :: HOMO-LUMO gap              2.739634501508 eV    ::
         :: SCC energy              -127.832085642891 Eh    ::
         :: -> dispersion             -0.123565341466 Eh    ::
         :: repulsion energy           1.915133593231 Eh    ::

    * Orbital Energies and Occupations

         #    Occupation            Energy/Eh            Energy/eV
      -------------------------------------------------------------
         1        2.0000           -1.0629633             -28.9247
       ...           ...                  ...                  ...
       101        2.0000           -0.4238533             -11.5336
       102        2.0000           -0.4210508             -11.4574
       103        2.0000           -0.4157918             -11.3143
       104        2.0000           -0.4139669             -11.2646
       105        2.0000           -0.4093382             -11.1387
       106        2.0000           -0.4081304             -11.1058
       107        2.0000           -0.4058436             -11.0436
       108        2.0000           -0.4035755             -10.9818
       109        2.0000           -0.4025995             -10.9553
       110        2.0000           -0.3997110             -10.8767
       111        2.0000           -0.3976336             -10.8202
       112        2.0000           -0.3888151             -10.5802
       113        2.0000           -0.3767077             -10.2507 (HOMO)
       114                         -0.2760280              -7.5111 (LUMO)
       115                         -0.2599381              -7.0733
       116                         -0.2583556              -7.0302
       117                         -0.2518761              -6.8539
       118                         -0.2498952              -6.8000
       119                         -0.2484200              -6.7599
       120                         -0.2474367              -6.7331
       121                         -0.2413665              -6.5679
       122                         -0.2275244              -6.1913
       123                         -0.2249157              -6.1203
       124                         -0.2212774              -6.0213
       ...                                ...                  ...
       220                          0.6939490              18.8833
      -------------------------------------------------------------
                  HL-Gap            0.1006797 Eh            2.7396 eV

     #   Z          covCN         q      C6AA      Î±(0)
     1   6 C        2.921    -0.034    28.840     8.807
     2   6 C        2.915    -0.030    28.742     8.791
     3   6 C        2.917    -0.029    28.722     8.788
     4   6 C        2.917    -0.035    28.870     8.811
     5   6 C        2.984     0.009    27.802     8.649
     6   6 C        2.988     0.016    27.647     8.625
     7   6 C        2.920    -0.035    28.875     8.812
     8   6 C        2.914    -0.026    28.644     8.776
     9   6 C        2.921    -0.027    28.677     8.782
    10   6 C        2.968     0.001    28.003     8.680
    11   6 C        3.823     0.050    19.724     6.320
    12   6 C        3.818     0.038    19.930     6.353
    13   6 C        2.968    -0.007    28.201     8.711
    14   6 C        2.924    -0.036    28.905     8.817
    15   6 C        2.914    -0.031    28.776     8.796
    16   6 C        2.921    -0.036    28.900     8.816
    17   6 C        2.989     0.014    27.690     8.632
    18   6 C        2.984     0.008    27.845     8.656
    19   6 C        2.917    -0.034    28.843     8.807
    20   6 C        2.917    -0.027    28.674     8.781
    21   6 C        2.915    -0.028    28.708     8.786
    22   6 C        2.921    -0.035    28.860     8.810
    23   7 N        2.766    -0.109    23.387     7.183
    24   6 C        2.766     0.279    22.277     7.730
    25   6 C        3.009    -0.019    28.475     8.753
    26   6 C        2.891     0.098    25.835     8.333
    27  17 Cl       0.963    -0.160   104.167    15.614
    28   6 C        2.953    -0.037    28.918     8.820
    29   6 C        2.922    -0.025    28.623     8.773
    30   6 C        2.918    -0.030    28.750     8.793
    31   6 C        2.925    -0.021    28.524     8.758
    32   8 O        0.859    -0.428    22.238     6.323
    33   6 C        3.759     0.097    19.032     6.220
    34   6 C        2.688     0.363    20.842     7.471
    35   8 O        1.660    -0.356    20.006     6.038
    36   8 O        0.856    -0.377    21.225     6.177
    37   7 N        2.761    -0.112    23.448     7.192
    38   6 C        2.765     0.278    22.292     7.732
    39   6 C        3.010    -0.025    28.612     8.774
    40   6 C        2.926    -0.023    28.584     8.768
    41   6 C        2.918    -0.029    28.714     8.787
    42   6 C        2.923    -0.024    28.593     8.769
    43   6 C        2.954    -0.036    28.885     8.815
    44   6 C        2.891     0.100    25.784     8.325
    45  17 Cl       0.967    -0.170   104.484    15.638
    46   8 O        0.859    -0.408    21.834     6.265
    47   1 H        0.926     0.035     2.519     2.482
    48   1 H        0.926     0.032     2.558     2.501
    49   1 H        0.926     0.029     2.599     2.521
    50   1 H        0.926     0.024     2.672     2.556
    51   1 H        0.926     0.036     2.501     2.473
    52   1 H        0.926     0.038     2.470     2.458
    53   1 H        0.926     0.046     2.375     2.410
    54   1 H        0.924     0.064     2.152     2.294
    55   1 H        0.924     0.066     2.134     2.284
    56   1 H        0.926     0.032     2.560     2.502
    57   1 H        0.926     0.038     2.471     2.458
    58   1 H        0.926     0.039     2.461     2.453
    59   1 H        0.926     0.036     2.508     2.477
    60   1 H        0.926     0.038     2.474     2.460
    61   1 H        0.926     0.037     2.486     2.466
    62   1 H        0.926     0.037     2.486     2.466
    63   1 H        0.926     0.064     2.152     2.294
    64   1 H        0.926     0.052     2.291     2.367
    65   1 H        0.926     0.051     2.310     2.377
    66   1 H        0.926     0.053     2.286     2.364
    67   1 H        0.923     0.073     2.058     2.243
    68   1 H        0.804     0.347     0.595     1.212
    69   1 H        0.926     0.049     2.327     2.385
    70   1 H        0.926     0.053     2.285     2.364
    71   1 H        0.926     0.054     2.265     2.354
    72   1 H        0.926     0.064     2.158     2.297

Wiberg/Mayer (AO) data.
largest (>0.10) Wiberg bond orders for each atom

     #   Z sym  total        # sym  WBO       # sym  WBO       # sym  WBO
 ---------------------------------------------------------------------------
     1   6 C    3.991 --     2 C    1.556     6 C    1.280    47 H    0.968
                             4 C    0.118
     2   6 C    3.992 --     1 C    1.556     3 C    1.323    48 H    0.971
     3   6 C    3.992 --     4 C    1.553     2 C    1.323    49 H    0.971
     4   6 C    3.992 --     3 C    1.553     5 C    1.284    50 H    0.962
                             1 C    0.118
     5   6 C    3.989 --     4 C    1.284     6 C    1.254    10 C    1.250
     6   6 C    3.990 --     1 C    1.280     7 C    1.277     5 C    1.254
     7   6 C    3.990 --     8 C    1.557     6 C    1.277    51 H    0.968
                            10 C    0.114
     8   6 C    3.992 --     7 C    1.557     9 C    1.322    52 H    0.970
     9   6 C    3.990 --    10 C    1.530     8 C    1.322    53 H    0.963
    10   6 C    3.983 --     9 C    1.530     5 C    1.250    11 C    0.987
                             7 C    0.114
    11   6 C    3.959 --    10 C    0.987    37 N    0.956    12 C    0.950
                            54 H    0.947
    12   6 C    3.960 --    13 C    0.991    23 N    0.957    11 C    0.950
                            55 H    0.942
    13   6 C    3.984 --    14 C    1.516    18 C    1.254    12 C    0.991
                            16 C    0.115
    14   6 C    3.990 --    13 C    1.516    15 C    1.332    56 H    0.968
    15   6 C    3.992 --    16 C    1.547    14 C    1.332    57 H    0.970
    16   6 C    3.989 --    15 C    1.547    17 C    1.282    58 H    0.968
                            13 C    0.115
    17   6 C    3.990 --    16 C    1.282    22 C    1.277    18 C    1.251
    18   6 C    3.989 --    19 C    1.282    13 C    1.254    17 C    1.251
    19   6 C    3.992 --    20 C    1.556    18 C    1.282    59 H    0.960
                            22 C    0.119
    20   6 C    3.991 --    19 C    1.556    21 C    1.321    60 H    0.971
    21   6 C    3.992 --    22 C    1.559    20 C    1.321    61 H    0.970
    22   6 C    3.991 --    21 C    1.559    17 C    1.277    62 H    0.968
                            19 C    0.119
    23   7 N    3.469 --    24 C    1.220    33 C    0.978    12 C    0.957
                            32 O    0.193
    24   6 C    3.949 --    32 O    1.685    23 N    1.220    25 C    0.955
    25   6 C    3.987 --    31 C    1.402    26 C    1.377    24 C    0.955
                            29 C    0.107
    26   6 C    3.921 --    28 C    1.401    25 C    1.377    27 Cl   0.980
    27  17 Cl   1.133 --    26 C    0.980
    28   6 C    3.987 --    29 C    1.444    26 C    1.401    63 H    0.966
                            31 C    0.109
    29   6 C    3.990 --    28 C    1.444    30 C    1.430    64 H    0.969
                            25 C    0.107
    30   6 C    3.991 --    31 C    1.445    29 C    1.430    65 H    0.969
    31   6 C    3.989 --    30 C    1.445    25 C    1.402    66 H    0.968
                            28 C    0.109
    32   8 O    2.015 --    24 C    1.685    23 N    0.193
    33   6 C    3.966 --    37 N    0.989    23 N    0.978    67 H    0.946
                            34 C    0.902
    34   6 C    3.920 --    36 O    1.785    35 O    1.166    33 C    0.902
    35   8 O    2.232 --    34 C    1.166    68 H    0.853    36 O    0.186
    36   8 O    2.070 --    34 C    1.785    35 O    0.186
    37   7 N    3.470 --    38 C    1.211    33 C    0.989    11 C    0.956
                            46 O    0.195
    38   6 C    3.950 --    46 O    1.704    37 N    1.211    39 C    0.950
    39   6 C    3.986 --    40 C    1.405    44 C    1.378    38 C    0.950
                            42 C    0.108
    40   6 C    3.989 --    41 C    1.441    39 C    1.405    69 H    0.968
                            43 C    0.109
    41   6 C    3.991 --    40 C    1.441    42 C    1.434    70 H    0.969
                            44 C    0.101
    42   6 C    3.990 --    43 C    1.442    41 C    1.434    71 H    0.969
                            39 C    0.108
    43   6 C    3.987 --    42 C    1.442    44 C    1.404    72 H    0.966
                            40 C    0.109
    44   6 C    3.919 --    43 C    1.404    39 C    1.378    45 Cl   0.974
                            41 C    0.101
    45  17 Cl   1.121 --    44 C    0.974
    46   8 O    2.035 --    38 C    1.704    37 N    0.195
    47   1 H    0.998 --     1 C    0.968
    48   1 H    0.998 --     2 C    0.971
    49   1 H    0.999 --     3 C    0.971
    50   1 H    0.999 --     4 C    0.962
    51   1 H    0.998 --     7 C    0.968
    52   1 H    0.998 --     8 C    0.970
    53   1 H    0.997 --     9 C    0.963
    54   1 H    0.995 --    11 C    0.947
    55   1 H    0.995 --    12 C    0.942
    56   1 H    0.998 --    14 C    0.968
    57   1 H    0.997 --    15 C    0.970
    58   1 H    0.997 --    16 C    0.968
    59   1 H    0.998 --    19 C    0.960
    60   1 H    0.998 --    20 C    0.971
    61   1 H    0.998 --    21 C    0.970
    62   1 H    0.998 --    22 C    0.968
    63   1 H    0.995 --    28 C    0.966
    64   1 H    0.997 --    29 C    0.969
    65   1 H    0.996 --    30 C    0.969
    66   1 H    0.997 --    31 C    0.968
    67   1 H    0.994 --    33 C    0.946
    68   1 H    0.879 --    35 O    0.853
    69   1 H    0.998 --    40 C    0.968
    70   1 H    0.996 --    41 C    0.969
    71   1 H    0.997 --    42 C    0.969
    72   1 H    0.995 --    43 C    0.966
 ---------------------------------------------------------------------------

molecular dipole:
                 x           y           z       tot (Debye)
 q only:       -1.369      -0.132      -1.228
   full:       -1.166       0.007      -0.799       3.592

           -------------------------------------------------
          | TOTAL ENERGY             -125.911763366490 Eh   |
          | GRADIENT NORM               0.000339556104 Eh/Î± |
          | HOMO-LUMO GAP               2.739634501508 eV   |
           -------------------------------------------------

 * finished run on 2022/03/16 at 21:52:06.567
