   * xtb version 6.3.3 (4ae9cef) compiled by 'conda@95abc7406d43' on 2020-10-14
          program call               : xtb acid_106.xyz --opt --chrg 0 --uhf 0 --gfn 2
          number of atoms            :                    72
          number of electrons        :                   202
          charge                     :                     0
          spin                       :                   0.0

   ID    Z sym.   atoms
    1    8 O      1, 14, 15, 26
    2    6 C      2-10, 12, 13, 17-25, 27-40
    3    7 N      11, 16
    4    1 H      41-72

          :  Hamiltonian                  GFN2-xTB          :
 * total energy  :  -111.2575512 Eh     change       -0.8245564E-09 Eh
 * total energy  :  -111.2700107 Eh     change       -0.1245950E-01 Eh
 * total energy  :  -111.2730765 Eh     change       -0.3065812E-02 Eh
 * total energy  :  -111.2740649 Eh     change       -0.9883714E-03 Eh
 * total energy  :  -111.2746510 Eh     change       -0.5861194E-03 Eh
 * total energy  :  -111.2750652 Eh     change       -0.4141889E-03 Eh
 * total energy  :  -111.2754042 Eh     change       -0.3389899E-03 Eh
 * total energy  :  -111.2757158 Eh     change       -0.3116196E-03 Eh
 * total energy  :  -111.2760059 Eh     change       -0.2901017E-03 Eh
 * total energy  :  -111.2762226 Eh     change       -0.2166362E-03 Eh
 * total energy  :  -111.2777952 Eh     change       -0.2473946E-04 Eh
 * total energy  :  -111.2778157 Eh     change       -0.2041263E-04 Eh
 * total energy  :  -111.2778312 Eh     change       -0.1557209E-04 Eh
 * total energy  :  -111.2778439 Eh     change       -0.1271195E-04 Eh
 * total energy  :  -111.2778556 Eh     change       -0.1166341E-04 Eh
 * total energy  :  -111.2778645 Eh     change       -0.8858831E-05 Eh
 * total energy  :  -111.2778653 Eh     change       -0.8632082E-06 Eh
 * total energy  :  -111.2778708 Eh     change       -0.5448218E-05 Eh
 * total energy  :  -111.2778746 Eh     change       -0.3806884E-05 Eh
   *** GEOMETRY OPTIMIZATION CONVERGED AFTER 45 ITERATIONS ***

 final structure:
================
72
 xtb: 6.3.3 (4ae9cef)
O         2.95296208447461    1.11081863512499    2.19042654750243
C         2.51918243874689    0.11864747337026    1.64848540338583
C         3.32270433685885   -1.09898589093706    1.32136528865308
C         3.53473734079233   -2.09784722586506    2.26095755901005
C         4.27834445250188   -3.21176682809974    1.91147451565451
C         4.80899854369139   -3.32608013746415    0.63966002374858
C         4.61319271230479   -2.32681331414189   -0.30587483173668
C         5.23470348577345   -2.42081063186877   -1.66855890235757
C         6.61955775741217   -1.77011349486100   -1.66466833725152
C         3.86583796623511   -1.21267862850400    0.04821197460488
N         1.20088651752934    0.01262885757452    1.29871980920525
C         0.58759160227463   -1.11382524490479    0.62993041055652
C         0.18906750645987   -2.23121366361221    1.63130518624249
O         0.31598059553568   -1.90751933538310    2.91726048506388
O        -0.20432681679003   -3.29888563260154    1.27051513514040
N        -0.58224686868520   -0.55712156637015   -0.01542329494516
C        -0.70756400307293   -0.70455893806707   -1.37796603470323
C        -1.84126466651711    0.02064127966745   -2.00594135058485
C        -3.11022938180327    0.03610076493200   -1.43919962449331
C        -4.15867750784786    0.69434830846200   -2.06593343813525
C        -5.53152982275026    0.66050665199290   -1.45887694467069
C        -6.25370478515121   -0.62963851115887   -1.85139499893637
C        -3.92063945006294    1.33807659475986   -3.27399147650090
C        -2.66229366703862    1.31551666039444   -3.85132395898445
C        -1.62336890799381    0.65190956678260   -3.22692758223741
O         0.05976617914561   -1.40067969958686   -2.00900079215568
C        -1.01216710676738    0.61282827277877    0.72793710358324
C        -2.03664781864954    0.31248707372489    1.80108024804105
C        -2.59364952004374   -0.94895715947103    1.95902734995918
C        -3.53768506839834   -1.17705122709295    2.94646033987261
C        -3.93964188752913   -0.14799002113474    3.77842941023625
C        -3.40185927300361    1.11797715017856    3.61326497769946
C        -2.45915018949778    1.34735515075657    2.62859653447951
C         0.31589593836899    1.17516709935048    1.30673990107305
C         0.86431145606274    2.29131331278867    0.45173883324673
C         0.87264540385893    3.59539814416008    0.92373255085937
C         1.35700069572182    4.62197879208200    0.13313832741753
C         1.83723481893265    4.35354490587517   -1.13674898723863
C         1.83248152324917    3.05397763396988   -1.61291239331967
C         1.34859235950397    2.02688285586715   -0.82379438908102
H         3.12588175624384   -2.00645906361540    3.25615976074632
H         4.44043067096964   -3.99465203189840    2.63672570627547
H         5.38367049111377   -4.20166749743980    0.37467752927677
H         4.60017107620246   -1.91664976868170   -2.39966592060376
H         5.32801431631005   -3.46812768947831   -1.96107430915320
H         6.54527341536077   -0.72344204787851   -1.37823688719694
H         7.07035213665999   -1.82980771825685   -2.65236194793044
H         7.27162268864013   -2.27262135360059   -0.95374835364137
H         3.70514561846747   -0.42173244526249   -0.67148697411191
H         1.22293755745036   -1.57540847427510   -0.14162079827492
H         0.65929371095143   -1.00286597342889    3.02263100083411
H        -3.29242308194336   -0.48105297866988   -0.50928931971396
H        -6.11143747963935    1.51883576614491   -1.80302215709312
H        -5.45367867844905    0.71226365345274   -0.37040171476583
H        -7.24746871363744   -0.65775663867436   -1.41127604034177
H        -6.34977584574222   -0.69555454626638   -2.93274795428584
H        -5.69489153026855   -1.49557003099245   -1.50454273080021
H        -4.72932944229131    1.85647508640991   -3.76871962477956
H        -2.49311805220629    1.81335215425416   -4.79444491085724
H        -0.63990406171919    0.61677115077914   -3.66978707863223
H        -1.44335856046257    1.34305977467547    0.03357677279000
H        -2.29767544912841   -1.75966606143577    1.31080730743730
H        -3.95720552743857   -2.16485017754676    3.06030537666067
H        -4.67418366978704   -0.32799052755350    4.54861199359771
H        -3.71964515568848    1.92975913300549    4.25042118085734
H        -2.05354901648671    2.33965460035363    2.49105377360484
H         0.18856851638002    1.53420012214967    2.33411225085444
H         0.50972751971193    3.80631324709366    1.91914125341392
H         1.36491888070305    5.63290998229779    0.51267477471237
H         2.21987717678738    5.15392202821438   -1.75227851843744
H         2.21024751317710    2.83691485499056   -2.60105503673508
H         1.35647824592747    1.01587543765917   -1.20498598159348

          :  Hamiltonian                  GFN2-xTB          :
         :: total energy            -111.277874587519 Eh    ::
         :: gradient norm              0.000604864751 Eh/a0 ::
         :: HOMO-LUMO gap              3.642439287208 eV    ::
         :: SCC energy              -113.025494207121 Eh    ::
         :: -> dispersion             -0.096321834871 Eh    ::
         :: repulsion energy           1.744180530027 Eh    ::

    * Orbital Energies and Occupations

         #    Occupation            Energy/Eh            Energy/eV
      -------------------------------------------------------------
         1        2.0000           -0.7622596             -20.7421
       ...           ...                  ...                  ...
        89        2.0000           -0.4265046             -11.6058
        90        2.0000           -0.4226388             -11.5006
        91        2.0000           -0.4218686             -11.4796
        92        2.0000           -0.4199713             -11.4280
        93        2.0000           -0.4170308             -11.3480
        94        2.0000           -0.4163184             -11.3286
        95        2.0000           -0.4137900             -11.2598
        96        2.0000           -0.4110658             -11.1857
        97        2.0000           -0.4106658             -11.1748
        98        2.0000           -0.4050434             -11.0218
        99        2.0000           -0.4038395             -10.9890
       100        2.0000           -0.4012846             -10.9195
       101        2.0000           -0.3976522             -10.8207 (HOMO)
       102                         -0.2637950              -7.1782 (LUMO)
       103                         -0.2529666              -6.8836
       104                         -0.2448696              -6.6632
       105                         -0.2397790              -6.5247
       106                         -0.2385255              -6.4906
       107                         -0.2357567              -6.4153
       108                         -0.2344989              -6.3810
       109                         -0.2330562              -6.3418
       110                         -0.2293876              -6.2420
       111                         -0.2257525              -6.1430
       112                         -0.2028884              -5.5209
       ...                                ...                  ...
       192                          0.6602018              17.9650
      -------------------------------------------------------------
                  HL-Gap            0.1338572 Eh            3.6424 eV

     #   Z          covCN         q      C6AA      Î±(0)
     1   8 O        0.859    -0.418    22.051     6.296
     2   6 C        2.761     0.270    22.435     7.757
     3   6 C        2.977    -0.026    28.637     8.778
     4   6 C        2.921    -0.034    28.836     8.806
     5   6 C        2.919    -0.026    28.649     8.777
     6   6 C        2.925    -0.034    28.852     8.809
     7   6 C        2.971     0.021    27.526     8.606
     8   6 C        3.807    -0.059    21.627     6.620
     9   6 C        3.754    -0.099    22.441     6.755
    10   6 C        2.930    -0.035    28.867     8.811
    11   7 N        2.762    -0.148    24.201     7.306
    12   6 C        3.772     0.075    19.357     6.270
    13   6 C        2.686     0.348    21.094     7.516
    14   8 O        1.659    -0.357    20.031     6.042
    15   8 O        0.856    -0.347    20.653     6.093
    16   7 N        2.759    -0.126    23.733     7.235
    17   6 C        2.768     0.274    22.371     7.746
    18   6 C        2.974    -0.018    28.448     8.749
    19   6 C        2.927    -0.040    28.992     8.830
    20   6 C        2.970     0.017    27.619     8.620
    21   6 C        3.807    -0.059    21.629     6.620
    22   6 C        3.754    -0.099    22.455     6.757
    23   6 C        2.925    -0.034    28.842     8.807
    24   6 C        2.918    -0.028    28.709     8.786
    25   6 C        2.925    -0.024    28.610     8.772
    26   8 O        0.859    -0.418    22.033     6.293
    27   6 C        3.831     0.036    19.941     6.354
    28   6 C        2.970    -0.006    28.165     8.705
    29   6 C        2.922    -0.033    28.826     8.805
    30   6 C        2.920    -0.024    28.603     8.770
    31   6 C        2.920    -0.028    28.706     8.786
    32   6 C        2.919    -0.027    28.680     8.782
    33   6 C        2.925    -0.040    28.982     8.828
    34   6 C        3.821     0.045    19.809     6.334
    35   6 C        2.973     0.005    27.914     8.666
    36   6 C        2.924    -0.030    28.738     8.791
    37   6 C        2.920    -0.025    28.631     8.775
    38   6 C        2.920    -0.028    28.692     8.784
    39   6 C        2.920    -0.027    28.666     8.780
    40   6 C        2.924    -0.032    28.791     8.799
    41   1 H        0.926     0.035     2.516     2.481
    42   1 H        0.926     0.042     2.424     2.434
    43   1 H        0.926     0.040     2.443     2.444
    44   1 H        0.924     0.043     2.407     2.426
    45   1 H        0.924     0.042     2.422     2.434
    46   1 H        0.925     0.038     2.470     2.458
    47   1 H        0.925     0.039     2.458     2.452
    48   1 H        0.925     0.037     2.483     2.464
    49   1 H        0.925     0.035     2.511     2.478
    50   1 H        0.923     0.096     1.819     2.109
    51   1 H        0.804     0.332     0.633     1.250
    52   1 H        0.926     0.041     2.440     2.443
    53   1 H        0.924     0.040     2.454     2.450
    54   1 H        0.924     0.037     2.483     2.464
    55   1 H        0.925     0.040     2.450     2.448
    56   1 H        0.925     0.039     2.461     2.453
    57   1 H        0.925     0.040     2.448     2.447
    58   1 H        0.926     0.039     2.464     2.455
    59   1 H        0.926     0.041     2.442     2.444
    60   1 H        0.926     0.049     2.328     2.386
    61   1 H        0.924     0.058     2.225     2.333
    62   1 H        0.926     0.045     2.387     2.416
    63   1 H        0.926     0.045     2.385     2.415
    64   1 H        0.926     0.040     2.451     2.448
    65   1 H        0.926     0.039     2.468     2.457
    66   1 H        0.926     0.030     2.584     2.514
    67   1 H        0.924     0.053     2.277     2.360
    68   1 H        0.926     0.035     2.522     2.483
    69   1 H        0.926     0.039     2.461     2.453
    70   1 H        0.926     0.038     2.478     2.462
    71   1 H        0.926     0.037     2.485     2.465
    72   1 H        0.926     0.030     2.585     2.514

Wiberg/Mayer (AO) data.
largest (>0.10) Wiberg bond orders for each atom

     #   Z sym  total        # sym  WBO       # sym  WBO       # sym  WBO
 ---------------------------------------------------------------------------
     1   8 O    2.026 --     2 C    1.712    11 N    0.186
     2   6 C    3.942 --     1 O    1.712    11 N    1.181     3 C    0.958
     3   6 C    3.987 --     4 C    1.409    10 C    1.406     2 C    0.958
                             6 C    0.108
     4   6 C    3.990 --     5 C    1.434     3 C    1.409    41 H    0.970
                             7 C    0.108
     5   6 C    3.991 --     6 C    1.449     4 C    1.434    42 H    0.970
                            10 C    0.110
     6   6 C    3.991 --     5 C    1.449     7 C    1.407    43 H    0.969
                             3 C    0.108
     7   6 C    3.987 --    10 C    1.414     6 C    1.407     8 C    1.013
                             4 C    0.108
     8   6 C    3.996 --     7 C    1.013     9 C    1.000    45 H    0.974
                            44 H    0.973
     9   6 C    3.996 --     8 C    1.000    48 H    0.988    46 H    0.988
                            47 H    0.986
    10   6 C    3.990 --     7 C    1.414     3 C    1.406    49 H    0.967
                             5 C    0.110
    11   7 N    3.450 --     2 C    1.181    12 C    0.980    34 C    0.955
                             1 O    0.186
    12   6 C    3.958 --    16 N    0.983    11 N    0.980    50 H    0.929
                            13 C    0.903
    13   6 C    3.923 --    15 O    1.804    14 O    1.151    12 C    0.903
    14   8 O    2.227 --    13 C    1.151    51 H    0.846    15 O    0.172
    15   8 O    2.092 --    13 C    1.804    14 O    0.172
    16   7 N    3.430 --    17 C    1.160    12 C    0.983    27 C    0.976
                            26 O    0.174
    17   6 C    3.940 --    26 O    1.701    16 N    1.160    18 C    0.991
    18   6 C    3.987 --    19 C    1.397    25 C    1.390    17 C    0.991
                            23 C    0.103
    19   6 C    3.990 --    20 C    1.417    18 C    1.397    52 H    0.963
                            24 C    0.107
    20   6 C    3.988 --    19 C    1.417    23 C    1.408    21 C    1.012
                            25 C    0.106
    21   6 C    3.996 --    20 C    1.012    22 C    1.000    53 H    0.975
                            54 H    0.973
    22   6 C    3.995 --    21 C    1.000    56 H    0.988    57 H    0.988
                            55 H    0.986
    23   6 C    3.991 --    24 C    1.440    20 C    1.408    58 H    0.969
                            18 C    0.103
    24   6 C    3.991 --    25 C    1.447    23 C    1.440    59 H    0.970
                            19 C    0.107
    25   6 C    3.988 --    24 C    1.447    18 C    1.390    60 H    0.968
                            20 C    0.106
    26   8 O    2.032 --    17 C    1.701    16 N    0.174
    27   6 C    3.967 --    28 C    0.986    16 N    0.976    34 C    0.946
                            61 H    0.946
    28   6 C    3.985 --    29 C    1.420    33 C    1.405    27 C    0.986
                            31 C    0.109
    29   6 C    3.990 --    30 C    1.434    28 C    1.420    62 H    0.963
                            32 C    0.110
    30   6 C    3.991 --    31 C    1.446    29 C    1.434    63 H    0.970
                            33 C    0.113
    31   6 C    3.991 --    30 C    1.446    32 C    1.432    64 H    0.971
                            28 C    0.109
    32   6 C    3.991 --    33 C    1.452    31 C    1.432    65 H    0.971
                            29 C    0.110
    33   6 C    3.991 --    32 C    1.452    28 C    1.405    66 H    0.968
                            30 C    0.113
    34   6 C    3.965 --    35 C    0.989    67 H    0.956    11 N    0.955
                            27 C    0.946
    35   6 C    3.986 --    36 C    1.415    40 C    1.410    34 C    0.989
                            38 C    0.109
    36   6 C    3.990 --    37 C    1.443    35 C    1.415    68 H    0.968
                            39 C    0.111
    37   6 C    3.992 --    36 C    1.443    38 C    1.440    69 H    0.971
                            40 C    0.112
    38   6 C    3.990 --    37 C    1.440    39 C    1.437    70 H    0.971
                            35 C    0.109
    39   6 C    3.992 --    40 C    1.447    38 C    1.437    71 H    0.971
                            36 C    0.111
    40   6 C    3.992 --    39 C    1.447    35 C    1.410    72 H    0.967
                            37 C    0.112
    41   1 H    0.998 --     4 C    0.970
    42   1 H    0.997 --     5 C    0.970
    43   1 H    0.998 --     6 C    0.969
    44   1 H    0.998 --     8 C    0.973
    45   1 H    0.998 --     8 C    0.974
    46   1 H    0.999 --     9 C    0.988
    47   1 H    0.997 --     9 C    0.986
    48   1 H    0.999 --     9 C    0.988
    49   1 H    0.999 --    10 C    0.967
    50   1 H    0.990 --    12 C    0.929
    51   1 H    0.890 --    14 O    0.846
    52   1 H    0.998 --    19 C    0.963
    53   1 H    0.998 --    21 C    0.975
    54   1 H    0.998 --    21 C    0.973
    55   1 H    0.997 --    22 C    0.986
    56   1 H    0.998 --    22 C    0.988
    57   1 H    0.998 --    22 C    0.988
    58   1 H    0.998 --    23 C    0.969
    59   1 H    0.998 --    24 C    0.970
    60   1 H    0.997 --    25 C    0.968
    61   1 H    0.996 --    27 C    0.946
    62   1 H    0.998 --    29 C    0.963
    63   1 H    0.998 --    30 C    0.970
    64   1 H    0.998 --    31 C    0.971
    65   1 H    0.998 --    32 C    0.971
    66   1 H    0.999 --    33 C    0.968
    67   1 H    0.997 --    34 C    0.956
    68   1 H    0.999 --    36 C    0.968
    69   1 H    0.998 --    37 C    0.971
    70   1 H    0.998 --    38 C    0.971
    71   1 H    0.998 --    39 C    0.971
    72   1 H    0.999 --    40 C    0.967
 ---------------------------------------------------------------------------

molecular dipole:
                 x           y           z       tot (Debye)
 q only:       -1.263       1.357      -0.134
   full:       -1.166       1.664      -0.179       5.184

           -------------------------------------------------
          | TOTAL ENERGY             -111.277874587519 Eh   |
          | GRADIENT NORM               0.000604864751 Eh/Î± |
          | HOMO-LUMO GAP               3.642439287208 eV   |
           -------------------------------------------------

 * finished run on 2022/03/16 at 21:22:44.698
