   * xtb version 6.3.3 (4ae9cef) compiled by 'conda@95abc7406d43' on 2020-10-14
          program call               : xtb acid_384.xyz --opt --chrg 0 --uhf 0 --gfn 2
          number of atoms            :                    62
          number of electrons        :                   206
          charge                     :                     0
          spin                       :                   0.0

   ID    Z sym.   atoms
    1    6 C      1, 3-16, 18, 20-24, 28, 29, 33-37
    2    8 O      2, 17, 26, 27, 30, 31, 39, 40
    3    7 N      19, 32
    4   17 Cl     25, 38
    5    1 H      41-62

          :  Hamiltonian                  GFN2-xTB          :
 * total energy  :  -118.6657113 Eh     change       -0.7087735E-08 Eh
 * total energy  :  -118.6811604 Eh     change       -0.1544908E-01 Eh
 * total energy  :  -118.6869094 Eh     change       -0.5749068E-02 Eh
 * total energy  :  -118.6884687 Eh     change       -0.1559259E-02 Eh
 * total energy  :  -118.6895215 Eh     change       -0.1052862E-02 Eh
 * total energy  :  -118.6904158 Eh     change       -0.8942560E-03 Eh
 * total energy  :  -118.6914340 Eh     change       -0.1018177E-02 Eh
 * total energy  :  -118.6925990 Eh     change       -0.1165007E-02 Eh
 * total energy  :  -118.6937536 Eh     change       -0.1154587E-02 Eh
 * total energy  :  -118.6947085 Eh     change       -0.9548893E-03 Eh
 * total energy  :  -118.7019485 Eh     change       -0.1285342E-04 Eh
 * total energy  :  -118.7019644 Eh     change       -0.1590472E-04 Eh
 * total energy  :  -118.7019800 Eh     change       -0.1561422E-04 Eh
 * total energy  :  -118.7019944 Eh     change       -0.1439962E-04 Eh
 * total energy  :  -118.7020061 Eh     change       -0.1172794E-04 Eh
 * total energy  :  -118.7020151 Eh     change       -0.8982153E-05 Eh
 * total energy  :  -118.7020224 Eh     change       -0.7250801E-05 Eh
 * total energy  :  -118.7020278 Eh     change       -0.5397049E-05 Eh
 * total energy  :  -118.7020319 Eh     change       -0.4173736E-05 Eh
   *** GEOMETRY OPTIMIZATION CONVERGED AFTER 91 ITERATIONS ***

 final structure:
================
62
 xtb: 6.3.3 (4ae9cef)
C        -0.10101046853664   -1.25871573386223    2.94472373459063
O        -0.30437017011918   -2.42457086884859    2.28155354983765
C        -0.07991017404581   -3.64295791351634    2.94483987312652
C         0.35732837787896   -1.16126970983990    4.25239500925301
C         0.53690243553475    0.08387384989778    4.83349819685627
C         0.26165019528291    1.23417719828473    4.12123575598312
C        -0.19387041965021    1.14366640343260    2.81452441547749
C        -0.38033086667620   -0.08814927610912    2.21331173208671
C        -0.83363216415101   -0.28101099261333    0.78705966193485
C        -1.11734279743839    0.99498399583416   -0.01802492347607
C        -2.01591786877462    0.66792805148952   -1.18675581261394
C        -1.53682768198339    0.47984849731711   -2.46904289881680
C        -2.39276217424407    0.13801126258080   -3.50353837586564
C        -3.74023135607063   -0.01796547119219   -3.24892185893887
C        -4.24076610037097    0.16617318742217   -1.97022925845661
C        -3.38574980954816    0.50453428361065   -0.93077692207030
O        -3.76910110431616    0.69404186844050    0.36393386685985
C        -5.13330809080790    0.57146176725655    0.68629732382182
N         0.21848261444632    1.38615300505220   -0.45090330039490
C         0.52115514699967    2.69390766665245   -0.65691400628531
C         1.87574467477512    3.01841470001175   -1.13308652114030
C         2.43996524402166    4.26298046615740   -1.23378667501497
C         3.74370402866099    4.08156746250162   -1.74433817875228
C         3.87326991212503    2.73596768840960   -1.92171054735859
Cl        5.16644250564188    1.80268139540585   -2.50536151220048
O         2.75966724210995    2.07811400180712   -1.56401411739061
O        -0.30437659542554    3.57315603182641   -0.49617631655187
C         1.13095875117215    0.26734947419405   -0.30159919636793
C         2.12345166747452    0.54390620351820    0.84795572103335
O         2.69822424559106   -0.57664867223763    1.27757582970339
O         2.38133866973977    1.62949548079517    1.28214344464987
N         0.27485349375361   -0.84270969198013    0.01250149779152
C         0.06384404873841   -1.94767015290340   -0.76554794751996
C         1.19697275587318   -2.33402974658042   -1.63849265697857
C         2.55941549007516   -2.27983114013273   -1.48156597058222
C         3.12272452916914   -2.91028200276019   -2.61229881604438
C         2.05658105557305   -3.30361711060455   -3.37104065671047
Cl        1.99852863949143   -4.10038376775905   -4.86747873534027
O         0.89759735058173   -2.97229519304244   -2.79557401116134
O        -0.94942315488668   -2.60629952372486   -0.70322154282892
H        -0.33245935521850   -4.41416835472577    2.21913389156557
H        -0.72204512263466   -3.74792952863795    3.82537934632352
H         0.96835717978721   -3.75346564067571    3.24178071742063
H         0.57603001926810   -2.04863857057815    4.82527209219618
H         0.89504757580759    0.14571278644008    5.85044995169653
H         0.40419436968065    2.20343600535237    4.57194843262236
H        -0.38798928440068    2.05338614356825    2.26960790333867
H        -1.66243689128445   -0.99177576172224    0.75199222039202
H        -1.57664115981231    1.79189875940284    0.56982557622990
H        -0.48370964108493    0.61184638758305   -2.66999709936924
H        -2.00432384907343   -0.00796513313539   -4.49947658882920
H        -4.41619654929631   -0.28712218796235   -4.04661446425191
H        -5.29690831849314    0.03640722355362   -1.79559519677819
H        -5.50102033936939   -0.44176171221388    0.49579092306309
H        -5.74442881645268    1.29225415274916    0.13414283378507
H        -5.20146047017658    0.78436487885012    1.75215172066980
H         1.96661579641704    5.18443570150981   -0.96676410964681
H         4.47915542994459    4.83040848719435   -1.94946645771402
H         1.71226281980870    0.07155304625353   -1.21102604887270
H         3.29889700147481   -0.38780234854330    2.01792936852000
H         3.09030679854295   -1.87413935638552   -0.64580456555002
H         4.15888072890948   -3.05492595204647   -2.83380930095427

          :  Hamiltonian                  GFN2-xTB          :
         :: total energy            -118.702031939678 Eh    ::
         :: gradient norm              0.000316398422 Eh/a0 ::
         :: HOMO-LUMO gap              2.940067340479 eV    ::
         :: SCC energy              -120.121525917419 Eh    ::
         :: -> dispersion             -0.090038620049 Eh    ::
         :: repulsion energy           1.416274742498 Eh    ::

    * Orbital Energies and Occupations

         #    Occupation            Energy/Eh            Energy/eV
      -------------------------------------------------------------
         1        2.0000           -1.0794323             -29.3728
       ...           ...                  ...                  ...
        91        2.0000           -0.4371670             -11.8959
        92        2.0000           -0.4329674             -11.7816
        93        2.0000           -0.4266795             -11.6105
        94        2.0000           -0.4197333             -11.4215
        95        2.0000           -0.4134339             -11.2501
        96        2.0000           -0.4072289             -11.0813
        97        2.0000           -0.4063974             -11.0586
        98        2.0000           -0.4058988             -11.0451
        99        2.0000           -0.4034069             -10.9773
       100        2.0000           -0.3998235             -10.8798
       101        2.0000           -0.3968856             -10.7998
       102        2.0000           -0.3855327             -10.4909
       103        2.0000           -0.3780569             -10.2875 (HOMO)
       104                         -0.2700114              -7.3474 (LUMO)
       105                         -0.2684537              -7.3050
       106                         -0.2672516              -7.2723
       107                         -0.2329534              -6.3390
       108                         -0.2235609              -6.0834
       109                         -0.2213229              -6.0225
       110                         -0.2140564              -5.8248
       111                         -0.2102507              -5.7212
       112                         -0.2064730              -5.6184
       113                         -0.1712044              -4.6587
       114                         -0.1605893              -4.3699
       ...                                ...                  ...
       192                          0.6905091              18.7897
      -------------------------------------------------------------
                  HL-Gap            0.1080455 Eh            2.9401 eV

     #   Z          covCN         q      C6AA      Î±(0)
     1   6 C        2.870     0.140    24.950     8.188
     2   8 O        1.706    -0.260    18.314     5.778
     3   6 C        3.643     0.036    20.310     6.478
     4   6 C        2.916    -0.071    29.763     8.946
     5   6 C        2.920    -0.034    28.839     8.806
     6   6 C        2.918    -0.041    29.018     8.834
     7   6 C        2.921    -0.035    28.868     8.811
     8   6 C        2.972    -0.025    28.621     8.775
     9   6 C        3.867     0.038    19.900     6.343
    10   6 C        3.842     0.039    19.895     6.345
    11   6 C        2.975    -0.016    28.398     8.741
    12   6 C        2.923    -0.030    28.760     8.795
    13   6 C        2.918    -0.038    28.940     8.822
    14   6 C        2.921    -0.029    28.736     8.791
    15   6 C        2.917    -0.063    29.568     8.917
    16   6 C        2.870     0.140    24.942     8.187
    17   8 O        1.705    -0.273    18.525     5.811
    18   6 C        3.644     0.036    20.309     6.478
    19   7 N        2.769    -0.106    23.316     7.172
    20   6 C        2.757     0.269    22.454     7.760
    21   6 C        3.108     0.089    25.887     8.336
    22   6 C        3.035    -0.041    28.995     8.832
    23   6 C        3.015    -0.070    29.733     8.945
    24   6 C        3.048     0.201    23.691     7.983
    25  17 Cl       0.920    -0.125   103.034    15.529
    26   8 O        1.741    -0.199    17.311     5.618
    27   8 O        0.860    -0.420    22.089     6.301
    28   6 C        3.789     0.082    19.223     6.244
    29   6 C        2.688     0.357    20.937     7.488
    30   8 O        1.659    -0.362    20.127     6.056
    31   8 O        0.856    -0.382    21.324     6.191
    32   7 N        2.778    -0.110    23.397     7.184
    33   6 C        2.756     0.273    22.377     7.746
    34   6 C        3.113     0.077    26.140     8.375
    35   6 C        3.032    -0.064    29.557     8.917
    36   6 C        3.017    -0.075    29.854     8.963
    37   6 C        3.049     0.202    23.682     7.981
    38  17 Cl       0.920    -0.114   102.694    15.503
    39   8 O        1.742    -0.152    16.591     5.500
    40   8 O        0.859    -0.389    21.470     6.212
    41   1 H        0.925     0.071     2.076     2.253
    42   1 H        0.924     0.043     2.403     2.424
    43   1 H        0.924     0.039     2.462     2.454
    44   1 H        0.926     0.039     2.467     2.456
    45   1 H        0.926     0.038     2.471     2.458
    46   1 H        0.926     0.044     2.401     2.423
    47   1 H        0.926     0.053     2.278     2.360
    48   1 H        0.924     0.104     1.752     2.070
    49   1 H        0.924     0.096     1.825     2.113
    50   1 H        0.926     0.027     2.629     2.536
    51   1 H        0.926     0.038     2.470     2.458
    52   1 H        0.926     0.040     2.447     2.446
    53   1 H        0.926     0.041     2.429     2.437
    54   1 H        0.924     0.044     2.394     2.420
    55   1 H        0.924     0.044     2.396     2.421
    56   1 H        0.925     0.063     2.164     2.300
    57   1 H        0.927     0.084     1.942     2.179
    58   1 H        0.927     0.072     2.067     2.248
    59   1 H        0.924     0.085     1.925     2.170
    60   1 H        0.804     0.344     0.601     1.218
    61   1 H        0.927     0.068     2.112     2.273
    62   1 H        0.927     0.069     2.096     2.264

Wiberg/Mayer (AO) data.
largest (>0.10) Wiberg bond orders for each atom

     #   Z sym  total        # sym  WBO       # sym  WBO       # sym  WBO
 ---------------------------------------------------------------------------
     1   6 C    3.935 --     4 C    1.383     8 C    1.308     2 O    1.075
     2   8 O    2.252 --     1 C    1.075     3 C    0.983
     3   6 C    3.943 --     2 O    0.983    41 H    0.978    43 H    0.976
                            42 H    0.976
     4   6 C    3.986 --     5 C    1.429     1 C    1.383    44 H    0.966
                             7 C    0.101
     5   6 C    3.991 --     6 C    1.450     4 C    1.429    45 H    0.971
                             8 C    0.105
     6   6 C    3.991 --     5 C    1.450     7 C    1.416    46 H    0.970
     7   6 C    3.989 --     8 C    1.446     6 C    1.416    47 H    0.962
                             4 C    0.101
     8   6 C    3.981 --     7 C    1.446     1 C    1.308     9 C    0.989
                             5 C    0.105
     9   6 C    3.955 --     8 C    0.989    10 C    0.961    32 N    0.946
                            48 H    0.941
    10   6 C    3.958 --    11 C    0.987     9 C    0.961    19 N    0.961
                            49 H    0.939
    11   6 C    3.982 --    12 C    1.446    16 C    1.317    10 C    0.987
                            14 C    0.106
    12   6 C    3.991 --    11 C    1.446    13 C    1.417    50 H    0.967
                            15 C    0.101
    13   6 C    3.991 --    14 C    1.450    12 C    1.417    51 H    0.971
    14   6 C    3.991 --    13 C    1.450    15 C    1.429    52 H    0.971
                            11 C    0.106
    15   6 C    3.987 --    14 C    1.429    16 C    1.388    53 H    0.965
                            12 C    0.101
    16   6 C    3.935 --    15 C    1.388    11 C    1.317    17 O    1.061
    17   8 O    2.231 --    16 C    1.061    18 C    0.983
    18   6 C    3.944 --    17 O    0.983    56 H    0.979    55 H    0.977
                            54 H    0.976
    19   7 N    3.468 --    20 C    1.205    28 C    0.978    10 C    0.961
                            27 O    0.189
    20   6 C    3.963 --    27 O    1.650    19 N    1.205    21 C    1.018
    21   6 C    3.893 --    22 C    1.543    26 O    1.073    20 C    1.018
                            24 C    0.127
    22   6 C    3.981 --    21 C    1.543    23 C    1.304    57 H    0.968
    23   6 C    3.975 --    24 C    1.536    22 C    1.304    58 H    0.971
    24   6 C    3.861 --    23 C    1.536    26 O    1.125    25 Cl   1.003
                            21 C    0.127
    25  17 Cl   1.154 --    24 C    1.003
    26   8 O    2.420 --    24 C    1.125    21 C    1.073
    27   8 O    1.998 --    20 C    1.650    19 N    0.189
    28   6 C    3.974 --    32 N    0.997    19 N    0.978    59 H    0.924
                            29 C    0.914
    29   6 C    3.920 --    31 O    1.784    30 O    1.150    28 C    0.914
    30   8 O    2.216 --    29 C    1.150    60 H    0.855    31 O    0.178
    31   8 O    2.071 --    29 C    1.784    30 O    0.178
    32   7 N    3.446 --    33 C    1.178    28 C    0.997     9 C    0.946
                            40 O    0.186
    33   6 C    3.959 --    40 O    1.698    32 N    1.178    34 C    0.997
    34   6 C    3.894 --    35 C    1.530    39 O    1.097    33 C    0.997
                            37 C    0.126
    35   6 C    3.982 --    34 C    1.530    36 C    1.311    61 H    0.967
    36   6 C    3.974 --    37 C    1.522    35 C    1.311    62 H    0.971
    37   6 C    3.867 --    36 C    1.522    39 O    1.148    38 Cl   1.011
                            34 C    0.126
    38  17 Cl   1.166 --    37 C    1.011
    39   8 O    2.465 --    37 C    1.148    34 C    1.097
    40   8 O    2.043 --    33 C    1.698    32 N    0.186
    41   1 H    0.995 --     3 C    0.978
    42   1 H    0.998 --     3 C    0.976
    43   1 H    0.998 --     3 C    0.976
    44   1 H    0.998 --     4 C    0.966
    45   1 H    0.998 --     5 C    0.971
    46   1 H    0.998 --     6 C    0.970
    47   1 H    0.996 --     7 C    0.962
    48   1 H    0.989 --     9 C    0.941
    49   1 H    0.990 --    10 C    0.939
    50   1 H    0.999 --    12 C    0.967
    51   1 H    0.998 --    13 C    0.971
    52   1 H    0.998 --    14 C    0.971
    53   1 H    0.998 --    15 C    0.965
    54   1 H    0.998 --    18 C    0.976
    55   1 H    0.998 --    18 C    0.977
    56   1 H    0.996 --    18 C    0.979
    57   1 H    0.993 --    22 C    0.968
    58   1 H    0.994 --    23 C    0.971
    59   1 H    0.993 --    28 C    0.924
    60   1 H    0.881 --    30 O    0.855
    61   1 H    0.995 --    35 C    0.967
    62   1 H    0.995 --    36 C    0.971
 ---------------------------------------------------------------------------

molecular dipole:
                 x           y           z       tot (Debye)
 q only:        0.436      -0.377       1.426
   full:        0.905      -0.783       1.242       4.383

           -------------------------------------------------
          | TOTAL ENERGY             -118.702031939678 Eh   |
          | GRADIENT NORM               0.000316398422 Eh/Î± |
          | HOMO-LUMO GAP               2.940067340479 eV   |
           -------------------------------------------------

 * finished run on 2022/03/17 at 00:33:35.416
