   * xtb version 6.3.3 (4ae9cef) compiled by 'conda@95abc7406d43' on 2020-10-14
          program call               : xtb acid_379.xyz --opt --chrg 0 --uhf 0 --gfn 2
          number of atoms            :                    92
          number of electrons        :                   270
          charge                     :                     0
          spin                       :                   0.0

   ID    Z sym.   atoms
    1    6 C      1-22, 24-36, 38, 39, 43-55
    2    7 N      23, 42
    3    8 O      37, 40, 41, 56
    4    1 H      57-92

          :  Hamiltonian                  GFN2-xTB          :
 * total energy  :  -147.5037101 Eh     change       -0.6527642E-08 Eh
 * total energy  :  -147.5253358 Eh     change       -0.2162567E-01 Eh
 * total energy  :  -147.5313352 Eh     change       -0.5999470E-02 Eh
 * total energy  :  -147.5331361 Eh     change       -0.1800872E-02 Eh
 * total energy  :  -147.5343445 Eh     change       -0.1208413E-02 Eh
 * total energy  :  -147.5350253 Eh     change       -0.6807530E-03 Eh
 * total energy  :  -147.5355795 Eh     change       -0.5542596E-03 Eh
 * total energy  :  -147.5360245 Eh     change       -0.4449372E-03 Eh
 * total energy  :  -147.5364320 Eh     change       -0.4074890E-03 Eh
 * total energy  :  -147.5368278 Eh     change       -0.3957982E-03 Eh
 * total energy  :  -147.5693060 Eh     change       -0.1180159E-04 Eh
 * total energy  :  -147.5693161 Eh     change       -0.1016527E-04 Eh
 * total energy  :  -147.5693250 Eh     change       -0.8844210E-05 Eh
 * total energy  :  -147.5693332 Eh     change       -0.8184992E-05 Eh
 * total energy  :  -147.5693410 Eh     change       -0.7837289E-05 Eh
 * total energy  :  -147.5693481 Eh     change       -0.7149388E-05 Eh
 * total energy  :  -147.5693541 Eh     change       -0.5985402E-05 Eh
 * total energy  :  -147.5693591 Eh     change       -0.5014549E-05 Eh
 * total energy  :  -147.5693633 Eh     change       -0.4118660E-05 Eh
   *** GEOMETRY OPTIMIZATION CONVERGED AFTER 145 ITERATIONS ***

 final structure:
================
92
 xtb: 6.3.3 (4ae9cef)
C        -3.36059722990667   -0.13584298259679   -2.87667913751763
C        -3.12472607599485   -1.47988288711664   -2.92685050099986
C        -2.27935257019163   -2.07120370184973   -1.97802849996641
C        -1.70222247843295   -1.32031397182776   -0.99200342757003
C        -1.93569676998546    0.06969641308992   -0.89546460439419
C        -2.77345472650833    0.66898835552530   -1.87728713420154
C        -3.00713708139391    2.05835071616463   -1.84910836960474
C        -2.41617252471636    2.83990913143749   -0.89992235286446
C        -1.60419386809757    2.25487304955084    0.07813412005595
C        -1.38489293534245    0.90042044298936    0.11921786237797
C        -0.53284221030708    0.31585640348821    1.21673071825767
C         0.97259877919320    0.53916113356084    0.91743353260095
C         1.52653342923867   -0.54443236745925    0.02785466271859
C         1.82076293454765   -0.20889868720418   -1.27039023244012
C         2.32842327503523   -1.14719330263607   -2.17555939139803
C         2.54762080329380   -2.43123581032391   -1.77118374963641
C         2.23937414123303   -2.83038695328236   -0.45506091626018
C         1.70212975070946   -1.88680441894325    0.46492355513156
C         1.38906794093816   -2.34230640155295    1.76576061555420
C         1.61024586311131   -3.63987671309028    2.13725032450287
C         2.15638500553975   -4.55980582017430    1.23211799427182
C         2.45940590330842   -4.15983453091907   -0.03789933236679
N         1.56992117475962    0.65932740588715    2.23847976671830
C         2.84239171997110    0.30600677899734    2.60400407727385
C         3.79729139805975    0.19521551993216    1.46534133537428
C         4.53498895855987   -0.96890810787155    1.28703829946431
C         5.39160165407191   -1.08870440595074    0.21137237520786
C         5.54659532906684   -0.04114687426786   -0.69334838472224
C         6.42230072336010   -0.17813387813398   -1.86573378696639
C         7.67669224262404   -0.77274325760763   -1.75784129030810
C         8.49685529642385   -0.88720043938304   -2.86513164129252
C         8.07334705263293   -0.41893135890189   -4.09773768978901
C         6.82408957278057    0.16689015944100   -4.21742068769177
C         6.00614612176575    0.29000281614480   -3.10998052387671
C         4.85426687758613    1.14686253522696   -0.46830389182802
C         3.98908705138423    1.26607729700962    0.59984135919289
O         3.14617196399361    0.13154019489011    3.76151105391908
C         0.56726365691221    0.94881260681683    3.24875608818922
C         0.84144615832654    2.34173670813416    3.87779722253915
O         0.68397736904078    3.34907450075849    3.00493249125300
O         1.22799960763148    2.50698221105816    4.98757700252162
N        -0.68976273109915    0.93509356837657    2.52304049841116
C        -1.82615073116870    1.33144411456260    3.17038774746395
C        -3.09917626426357    1.16702718970089    2.41549645575227
C        -3.89287977291376    2.29096507359606    2.21380984098650
C        -5.03389805103689    2.20654890302539    1.44276295982091
C        -5.41700395778805    0.99476815097020    0.87181959251726
C        -6.58719802567923    0.91988628025458   -0.01355724454166
C        -7.75681904452227    1.61616655329796    0.28136149260656
C        -8.84660718089355    1.54976241317521   -0.56681823953532
C        -8.78222058286165    0.79491756782270   -1.72614174527158
C        -7.62280217860321    0.10058815776624   -2.02944950353123
C        -6.53466755207797    0.15791600682793   -1.17882176122061
C        -4.65934817742080   -0.14186972966929    1.14569358943807
C        -3.51346758898615   -0.05956014020053    1.91077775441697
O        -1.75464249553286    1.84342164556732    4.26784034335686
H        -3.99954928580082    0.33976289686015   -3.60690932554960
H        -3.57797276072411   -2.09048163922671   -3.69344844939903
H        -2.08207106637921   -3.13165655232893   -2.02917786638297
H        -1.04450694457014   -1.81452716388584   -0.29465590111842
H        -3.65727002247474    2.49068528949849   -2.59506630610860
H        -2.57831254665707    3.90662166624957   -0.88164052204173
H        -1.18052617395881    2.89707152447571    0.83825108122448
H        -0.72336444546375   -0.75801564142218    1.30863880949611
H         1.07665319659309    1.49640996816757    0.38108219746611
H         1.66807467474910    0.80728980084912   -1.60524024639945
H         2.55295119946876   -0.84155420856382   -3.18589655588260
H         2.95830798515530   -3.16233060326697   -2.45182893834647
H         0.97669008092448   -1.66654199372289    2.49593282057332
H         1.36734480254449   -3.95932128370691    3.13963793433951
H         2.33191492167634   -5.57788630813075    1.54575065436647
H         2.87656995267335   -4.85744157787888   -0.74982466740592
H         4.41076467965826   -1.78431478418663    1.98370312548330
H         5.93003546575147   -2.01175910718890    0.05569282479278
H         8.01764903454400   -1.12346508044481   -0.79476272768558
H         9.47218459093886   -1.34081709628126   -2.76620125066752
H         8.71482668854652   -0.50887520839875   -4.96178735230543
H         6.48753536460445    0.53013944870659   -5.17773622758176
H         5.02672796038919    0.73579695663485   -3.20760608846306
H         5.00721485643120    1.98519786344204   -1.13203265042481
H         3.46800549787082    2.19698097975240    0.77158762947560
H         0.59733181791247    0.21350786189250    4.06905962439129
H         0.31846955916154    3.03762520294433    2.16354117738934
H        -3.59053434915036    3.23236677760381    2.64763626567487
H        -5.61955712792646    3.09392298237337    1.25468168242303
H        -7.81819224882789    2.19317667472831    1.19240459615318
H        -9.75036131428484    2.08869449469549   -0.32272924265902
H        -9.63286002214431    0.74690937830173   -2.38967684661287
H        -7.56643147457548   -0.48821777059555   -2.93357241532202
H        -5.62580364263080   -0.37125437221487   -1.42678513616145
H        -4.97318102940304   -1.09867918923699    0.75543441155662
H        -2.94580897219247   -0.95409528630510    2.12031914380194

          :  Hamiltonian                  GFN2-xTB          :
         :: total energy            -147.569363264672 Eh    ::
         :: gradient norm              0.000341840793 Eh/a0 ::
         :: HOMO-LUMO gap              2.857676746336 eV    ::
         :: SCC energy              -150.104188609462 Eh    ::
         :: -> dispersion             -0.150259769470 Eh    ::
         :: repulsion energy           2.528488236183 Eh    ::

    * Orbital Energies and Occupations

         #    Occupation            Energy/Eh            Energy/eV
      -------------------------------------------------------------
         1        2.0000           -0.7479956             -20.3540
       ...           ...                  ...                  ...
       123        2.0000           -0.4212869             -11.4638
       124        2.0000           -0.4184376             -11.3863
       125        2.0000           -0.4152404             -11.2993
       126        2.0000           -0.4149403             -11.2911
       127        2.0000           -0.4146804             -11.2840
       128        2.0000           -0.4128738             -11.2349
       129        2.0000           -0.4070495             -11.0764
       130        2.0000           -0.4039951             -10.9933
       131        2.0000           -0.4005873             -10.9005
       132        2.0000           -0.3972749             -10.8104
       133        2.0000           -0.3957996             -10.7703
       134        2.0000           -0.3933708             -10.7042
       135        2.0000           -0.3924011             -10.6778 (HOMO)
       136                         -0.2873834              -7.8201 (LUMO)
       137                         -0.2808911              -7.6434
       138                         -0.2686948              -7.3116
       139                         -0.2639932              -7.1836
       140                         -0.2530774              -6.8866
       141                         -0.2488304              -6.7710
       142                         -0.2399448              -6.5292
       143                         -0.2365933              -6.4380
       144                         -0.2355327              -6.4092
       145                         -0.2327080              -6.3323
       146                         -0.2309064              -6.2833
       ...                                ...                  ...
       260                          0.6866260              18.6840
      -------------------------------------------------------------
                  HL-Gap            0.1050177 Eh            2.8577 eV

     #   Z          covCN         q      C6AA      Î±(0)
     1   6 C        2.921    -0.032    28.791     8.799
     2   6 C        2.915    -0.028    28.694     8.784
     3   6 C        2.917    -0.027    28.680     8.782
     4   6 C        2.917    -0.036    28.887     8.814
     5   6 C        2.984     0.007    27.850     8.657
     6   6 C        2.989     0.016    27.647     8.625
     7   6 C        2.921    -0.034    28.845     8.807
     8   6 C        2.914    -0.030    28.749     8.792
     9   6 C        2.923    -0.036    28.900     8.816
    10   6 C        2.966    -0.010    28.268     8.721
    11   6 C        3.819     0.042    19.853     6.341
    12   6 C        3.822     0.047    19.764     6.326
    13   6 C        2.965    -0.010    28.261     8.720
    14   6 C        2.925    -0.035    28.870     8.811
    15   6 C        2.914    -0.029    28.726     8.789
    16   6 C        2.921    -0.034    28.848     8.808
    17   6 C        2.988     0.014    27.682     8.631
    18   6 C        2.983     0.008    27.835     8.654
    19   6 C        2.917    -0.037    28.913     8.818
    20   6 C        2.917    -0.026    28.655     8.778
    21   6 C        2.915    -0.027    28.679     8.782
    22   6 C        2.921    -0.033    28.811     8.802
    23   7 N        2.759    -0.142    24.069     7.286
    24   6 C        2.762     0.274    22.371     7.746
    25   6 C        2.978    -0.016    28.400     8.742
    26   6 C        2.922    -0.020    28.505     8.755
    27   6 C        2.924    -0.032    28.791     8.799
    28   6 C        2.978     0.014    27.701     8.633
    29   6 C        2.978     0.010    27.784     8.646
    30   6 C        2.925    -0.032    28.805     8.802
    31   6 C        2.919    -0.028    28.708     8.786
    32   6 C        2.920    -0.030    28.746     8.792
    33   6 C        2.918    -0.029    28.727     8.789
    34   6 C        2.926    -0.033    28.830     8.805
    35   6 C        2.925    -0.033    28.820     8.804
    36   6 C        2.921    -0.029    28.726     8.789
    37   8 O        0.859    -0.406    21.807     6.261
    38   6 C        3.764     0.091    19.113     6.232
    39   6 C        2.686     0.363    20.850     7.473
    40   8 O        1.659    -0.364    20.162     6.062
    41   8 O        0.856    -0.316    20.066     6.006
    42   7 N        2.761    -0.143    24.090     7.290
    43   6 C        2.765     0.270    22.442     7.758
    44   6 C        2.976    -0.016    28.416     8.744
    45   6 C        2.924    -0.022    28.562     8.764
    46   6 C        2.925    -0.032    28.797     8.800
    47   6 C        2.978     0.014    27.694     8.632
    48   6 C        2.978     0.010    27.796     8.648
    49   6 C        2.924    -0.032    28.806     8.802
    50   6 C        2.919    -0.028    28.710     8.787
    51   6 C        2.920    -0.030    28.740     8.791
    52   6 C        2.919    -0.029    28.722     8.789
    53   6 C        2.925    -0.034    28.843     8.807
    54   6 C        2.925    -0.032    28.797     8.800
    55   6 C        2.920    -0.028    28.699     8.785
    56   8 O        0.860    -0.415    21.991     6.287
    57   1 H        0.926     0.040     2.447     2.446
    58   1 H        0.926     0.038     2.470     2.458
    59   1 H        0.926     0.037     2.491     2.468
    60   1 H        0.926     0.028     2.611     2.527
    61   1 H        0.926     0.042     2.422     2.434
    62   1 H        0.926     0.042     2.424     2.434
    63   1 H        0.925     0.024     2.675     2.557
    64   1 H        0.924     0.051     2.306     2.375
    65   1 H        0.923     0.034     2.537     2.491
    66   1 H        0.926     0.028     2.618     2.530
    67   1 H        0.926     0.038     2.473     2.459
    68   1 H        0.926     0.041     2.442     2.444
    69   1 H        0.926     0.035     2.521     2.483
    70   1 H        0.926     0.041     2.439     2.442
    71   1 H        0.926     0.038     2.471     2.458
    72   1 H        0.926     0.037     2.486     2.466
    73   1 H        0.926     0.045     2.389     2.417
    74   1 H        0.926     0.040     2.451     2.448
    75   1 H        0.926     0.035     2.517     2.481
    76   1 H        0.926     0.034     2.536     2.490
    77   1 H        0.926     0.033     2.549     2.496
    78   1 H        0.926     0.031     2.568     2.506
    79   1 H        0.926     0.029     2.601     2.522
    80   1 H        0.926     0.040     2.450     2.448
    81   1 H        0.926     0.032     2.556     2.500
    82   1 H        0.923     0.078     2.005     2.214
    83   1 H        0.805     0.321     0.662     1.278
    84   1 H        0.926     0.050     2.318     2.381
    85   1 H        0.926     0.043     2.409     2.427
    86   1 H        0.926     0.036     2.507     2.476
    87   1 H        0.926     0.034     2.525     2.485
    88   1 H        0.926     0.033     2.540     2.492
    89   1 H        0.926     0.031     2.572     2.508
    90   1 H        0.926     0.029     2.595     2.519
    91   1 H        0.926     0.038     2.474     2.460
    92   1 H        0.926     0.031     2.577     2.510

Wiberg/Mayer (AO) data.
largest (>0.10) Wiberg bond orders for each atom

     #   Z sym  total        # sym  WBO       # sym  WBO       # sym  WBO
 ---------------------------------------------------------------------------
     1   6 C    3.991 --     2 C    1.555     6 C    1.278    57 H    0.967
                             4 C    0.118
     2   6 C    3.992 --     1 C    1.555     3 C    1.323    58 H    0.970
     3   6 C    3.991 --     4 C    1.553     2 C    1.323    59 H    0.971
     4   6 C    3.991 --     3 C    1.553     5 C    1.285    60 H    0.960
                             1 C    0.118
     5   6 C    3.988 --     4 C    1.285     6 C    1.252    10 C    1.250
     6   6 C    3.990 --     7 C    1.280     1 C    1.278     5 C    1.252
     7   6 C    3.989 --     8 C    1.551     6 C    1.280    61 H    0.967
                            10 C    0.114
     8   6 C    3.991 --     7 C    1.551     9 C    1.327    62 H    0.970
     9   6 C    3.990 --    10 C    1.521     8 C    1.327    63 H    0.960
    10   6 C    3.984 --     9 C    1.521     5 C    1.250    11 C    0.994
                             7 C    0.114
    11   6 C    3.967 --    10 C    0.994    42 N    0.965    64 H    0.943
                            12 C    0.941
    12   6 C    3.969 --    13 C    0.994    23 N    0.965    65 H    0.952
                            11 C    0.941
    13   6 C    3.983 --    14 C    1.520    18 C    1.249    12 C    0.994
                            16 C    0.114
    14   6 C    3.990 --    13 C    1.520    15 C    1.327    66 H    0.967
    15   6 C    3.991 --    16 C    1.552    14 C    1.327    67 H    0.970
    16   6 C    3.989 --    15 C    1.552    17 C    1.279    68 H    0.968
                            13 C    0.114
    17   6 C    3.990 --    22 C    1.281    16 C    1.279    18 C    1.251
    18   6 C    3.989 --    19 C    1.285    17 C    1.251    13 C    1.249
    19   6 C    3.991 --    20 C    1.551    18 C    1.285    69 H    0.963
                            22 C    0.118
    20   6 C    3.991 --    19 C    1.551    21 C    1.324    70 H    0.970
    21   6 C    3.991 --    22 C    1.555    20 C    1.324    71 H    0.970
    22   6 C    3.991 --    21 C    1.555    17 C    1.281    72 H    0.968
                            19 C    0.118
    23   7 N    3.427 --    24 C    1.170    38 C    0.974    12 C    0.965
                            37 O    0.183
    24   6 C    3.943 --    37 O    1.714    23 N    1.170    25 C    0.973
    25   6 C    3.983 --    26 C    1.395    36 C    1.391    24 C    0.973
                            28 C    0.101
    26   6 C    3.989 --    27 C    1.457    25 C    1.395    73 H    0.968
                            35 C    0.104
    27   6 C    3.991 --    26 C    1.457    28 C    1.386    74 H    0.967
                            36 C    0.104
    28   6 C    3.988 --    27 C    1.386    35 C    1.382    29 C    1.047
                            25 C    0.101
    29   6 C    3.989 --    30 C    1.390    34 C    1.388    28 C    1.047
                            32 C    0.106
    30   6 C    3.990 --    31 C    1.451    29 C    1.390    75 H    0.969
                            33 C    0.109
    31   6 C    3.992 --    30 C    1.451    32 C    1.436    76 H    0.971
                            34 C    0.109
    32   6 C    3.987 --    31 C    1.436    33 C    1.434    77 H    0.971
                            29 C    0.106
    33   6 C    3.992 --    34 C    1.452    32 C    1.434    78 H    0.971
                            30 C    0.109
    34   6 C    3.991 --    33 C    1.452    29 C    1.388    79 H    0.969
                            31 C    0.109
    35   6 C    3.990 --    36 C    1.460    28 C    1.382    80 H    0.968
                            26 C    0.104
    36   6 C    3.990 --    35 C    1.460    25 C    1.391    81 H    0.969
                            27 C    0.104
    37   8 O    2.038 --    24 C    1.714    23 N    0.183
    38   6 C    3.952 --    42 N    0.975    23 N    0.974    82 H    0.943
                            39 C    0.899
    39   6 C    3.926 --    41 O    1.842    40 O    1.120    38 C    0.899
    40   8 O    2.203 --    39 C    1.120    83 H    0.860    41 O    0.168
    41   8 O    2.127 --    39 C    1.842    40 O    0.168
    42   7 N    3.440 --    43 C    1.186    38 C    0.975    11 C    0.965
                            56 O    0.187
    43   6 C    3.943 --    56 O    1.692    42 N    1.186    44 C    0.977
    44   6 C    3.982 --    55 C    1.393    45 C    1.392    43 C    0.977
                            47 C    0.101
    45   6 C    3.989 --    46 C    1.458    44 C    1.392    84 H    0.968
                            54 C    0.104
    46   6 C    3.990 --    45 C    1.458    47 C    1.384    85 H    0.967
                            55 C    0.104
    47   6 C    3.988 --    46 C    1.384    54 C    1.383    48 C    1.049
                            44 C    0.101
    48   6 C    3.989 --    49 C    1.389    53 C    1.387    47 C    1.049
                            51 C    0.105
    49   6 C    3.990 --    50 C    1.451    48 C    1.389    86 H    0.968
                            52 C    0.108
    50   6 C    3.992 --    49 C    1.451    51 C    1.435    87 H    0.971
                            53 C    0.109
    51   6 C    3.986 --    50 C    1.435    52 C    1.434    88 H    0.971
                            48 C    0.105
    52   6 C    3.992 --    53 C    1.452    51 C    1.434    89 H    0.971
                            49 C    0.108
    53   6 C    3.991 --    52 C    1.452    48 C    1.387    90 H    0.966
                            50 C    0.109
    54   6 C    3.991 --    55 C    1.458    47 C    1.383    91 H    0.968
                            45 C    0.104
    55   6 C    3.991 --    54 C    1.458    44 C    1.393    92 H    0.968
                            46 C    0.104
    56   8 O    2.037 --    43 C    1.692    42 N    0.187
    57   1 H    0.998 --     1 C    0.967
    58   1 H    0.998 --     2 C    0.970
    59   1 H    0.998 --     3 C    0.971
    60   1 H    0.999 --     4 C    0.960
    61   1 H    0.997 --     7 C    0.967
    62   1 H    0.997 --     8 C    0.970
    63   1 H    0.999 --     9 C    0.960
    64   1 H    0.997 --    11 C    0.943
    65   1 H    0.998 --    12 C    0.952
    66   1 H    0.999 --    14 C    0.967
    67   1 H    0.997 --    15 C    0.970
    68   1 H    0.997 --    16 C    0.968
    69   1 H    0.998 --    19 C    0.963
    70   1 H    0.998 --    20 C    0.970
    71   1 H    0.998 --    21 C    0.970
    72   1 H    0.998 --    22 C    0.968
    73   1 H    0.997 --    26 C    0.968
    74   1 H    0.998 --    27 C    0.967
    75   1 H    0.999 --    30 C    0.969
    76   1 H    0.998 --    31 C    0.971
    77   1 H    0.998 --    32 C    0.971
    78   1 H    0.998 --    33 C    0.971
    79   1 H    0.999 --    34 C    0.969
    80   1 H    0.998 --    35 C    0.968
    81   1 H    0.998 --    36 C    0.969
    82   1 H    0.993 --    38 C    0.943
    83   1 H    0.897 --    40 O    0.860
    84   1 H    0.997 --    45 C    0.968
    85   1 H    0.998 --    46 C    0.967
    86   1 H    0.999 --    49 C    0.968
    87   1 H    0.998 --    50 C    0.971
    88   1 H    0.998 --    51 C    0.971
    89   1 H    0.998 --    52 C    0.971
    90   1 H    0.999 --    53 C    0.966
    91   1 H    0.998 --    54 C    0.968
    92   1 H    0.998 --    55 C    0.968
 ---------------------------------------------------------------------------

molecular dipole:
                 x           y           z       tot (Debye)
 q only:       -1.117      -1.464      -4.555
   full:       -1.251      -1.708      -4.961      13.711

           -------------------------------------------------
          | TOTAL ENERGY             -147.569363264672 Eh   |
          | GRADIENT NORM               0.000341840793 Eh/Î± |
          | HOMO-LUMO GAP               2.857676746336 eV   |
           -------------------------------------------------

 * finished run on 2022/03/17 at 00:30:15.948
