   * xtb version 6.3.3 (4ae9cef) compiled by 'conda@95abc7406d43' on 2020-10-14
          program call               : xtb acid_461.xyz --opt --chrg 0 --uhf 0 --gfn 2
          number of atoms            :                    54
          number of electrons        :                   182
          charge                     :                     0
          spin                       :                   0.0

   ID    Z sym.   atoms
    1    6 C      1-14, 16-18, 20, 22, 24, 25, 29-31, 33, 35
    2    7 N      15, 28
    3    8 O      19, 23, 26, 27, 32, 36
    4   35 Br     21, 34
    5    1 H      37-54

          :  Hamiltonian                  GFN2-xTB          :
 * total energy  :  -103.2605096 Eh     change       -0.2258460E-08 Eh
 * total energy  :  -103.2748771 Eh     change       -0.1436756E-01 Eh
 * total energy  :  -103.2787098 Eh     change       -0.3832644E-02 Eh
 * total energy  :  -103.2794739 Eh     change       -0.7640990E-03 Eh
 * total energy  :  -103.2798199 Eh     change       -0.3460291E-03 Eh
 * total energy  :  -103.2800851 Eh     change       -0.2651865E-03 Eh
 * total energy  :  -103.2804082 Eh     change       -0.3231449E-03 Eh
 * total energy  :  -103.2806859 Eh     change       -0.2776573E-03 Eh
 * total energy  :  -103.2809498 Eh     change       -0.2639180E-03 Eh
 * total energy  :  -103.2811212 Eh     change       -0.1714489E-03 Eh
 * total energy  :  -103.2822257 Eh     change       -0.1126545E-04 Eh
 * total energy  :  -103.2822237 Eh     change        0.1998437E-05 Eh
 * total energy  :  -103.2822145 Eh     change        0.9278376E-05 Eh
 * total energy  :  -103.2822322 Eh     change       -0.1778455E-04 Eh
 * total energy  :  -103.2822079 Eh     change        0.2437848E-04 Eh
 * total energy  :  -103.2822340 Eh     change       -0.2611986E-04 Eh
 * total energy  :  -103.2822402 Eh     change       -0.6186318E-05 Eh
 * total energy  :  -103.2822472 Eh     change       -0.7060784E-05 Eh
 * total energy  :  -103.2822503 Eh     change       -0.3080838E-05 Eh
   *** GEOMETRY OPTIMIZATION CONVERGED AFTER 45 ITERATIONS ***

 final structure:
================
54
 xtb: 6.3.3 (4ae9cef)
C         2.05374798276811   -1.32610510259451    1.37715244558397
C         3.10281156883410   -1.88417080210714    2.08369554944955
C         3.33347345144745   -3.24789408332561    2.02108316151393
C         2.51146008633450   -4.05017479855980    1.24917997635763
C         1.46285534413757   -3.49206801729762    0.54002883822683
C         1.22732425722283   -2.12675035268306    0.59864660093097
C         0.06956911774401   -1.51854555852251   -0.15502618074537
C        -0.99448358456771   -0.93499795014346    0.80319039218137
C        -2.41414378702153   -1.23166321843894    0.36397787117109
C        -2.78516304971322   -2.55751882009749    0.16476581274126
C        -4.06916241521288   -2.87363611589248   -0.23747697183821
C        -5.00067302086846   -1.86846866234823   -0.43922016773300
C        -4.64455525800854   -0.55065325004656   -0.21860883140029
C        -3.35871339104641   -0.23194732720463    0.18559586413705
N        -0.66398440607057    0.47829836407085    0.82300047643542
C        -0.90716752686754    1.26918170151150    1.90389734337935
C        -0.47702461403710    2.68290744195623    1.74879261664009
C        -1.28463087777235    3.78288367155776    1.78996464632068
O        -0.56903110110682    4.90506098404372    1.63339421412428
C         0.70960802517741    4.53205834615647    1.50640238112664
Br        1.98592791617130    5.86632649576098    1.26514479863415
C         0.84634905383296    3.17837161199845    1.56743602367510
O        -1.43333121727335    0.83844159829359    2.90414101441251
C        -0.08731378081589    0.86433840483099   -0.44004441710664
C        -1.21127865186281    1.41188118674628   -1.37364280016346
O        -1.58765641976674    0.59824458585902   -2.34964525092416
O        -1.68729843697039    2.49436508019730   -1.19461699588189
N         0.49336037418948   -0.35408763168869   -0.94613113842030
C         1.59874405972585   -0.46051389061999   -1.74761737186914
C         2.18959020061905    0.79313330551163   -2.26498114424564
C         3.54030587929984    0.92639405075868   -2.45887866219344
O         3.83817952980345    2.13590043150663   -2.94112128929817
C         2.67610769372814    2.78985060663565   -3.08614936490770
Br        2.74066431537660    4.52554622312718   -3.75497060772928
C         1.61811401864611    2.02983427004505   -2.68737751251715
O         2.07136410491541   -1.54328513960000   -2.01857060254766
H         1.87743805738396   -0.26101307361228    1.43380515051091
H         3.74068470106885   -1.25309599041730    2.68443008606342
H         4.15427629626410   -3.68261821656516    2.57118148857388
H         2.68963435161798   -5.11345016801044    1.19386929330458
H         0.83070427461249   -4.11901747961402   -0.07119575606098
H        -0.35876003385303   -2.27083442093816   -0.82560814204135
H        -0.85970278273748   -1.32246023270932    1.82020216977135
H        -2.06726728834709   -3.34589211486281    0.34065647140448
H        -4.34391486131444   -3.90669170488251   -0.38900000256860
H        -6.00281841198866   -2.11428416301962   -0.75572262069731
H        -5.36716651268333    0.23857540952968   -0.35787725382752
H        -3.10674181424541    0.80070285246385    0.37353188538998
H        -2.34526835161134    3.87880427001939    1.89967801038059
H         1.76546265908972    2.62920502521304    1.53131327530147
H         0.65139154505384    1.66445880434844   -0.31111302038263
H        -1.08446428735519   -0.23523437561137   -2.34167260520102
H         4.34202501777486    0.24080453736119   -2.27284449812579
H         0.59054000027991    2.32150240190872   -2.73904764931170

          :  Hamiltonian                  GFN2-xTB          :
         :: total energy            -103.282250314432 Eh    ::
         :: gradient norm              0.000526501610 Eh/a0 ::
         :: HOMO-LUMO gap              3.529317568068 eV    ::
         :: SCC energy              -104.608689777634 Eh    ::
         :: -> dispersion             -0.080353540386 Eh    ::
         :: repulsion energy           1.324001228717 Eh    ::

    * Orbital Energies and Occupations

         #    Occupation            Energy/Eh            Energy/eV
      -------------------------------------------------------------
         1        2.0000           -0.8633122             -23.4919
       ...           ...                  ...                  ...
        79        2.0000           -0.4436577             -12.0725
        80        2.0000           -0.4421685             -12.0320
        81        2.0000           -0.4405227             -11.9872
        82        2.0000           -0.4385485             -11.9335
        83        2.0000           -0.4326590             -11.7732
        84        2.0000           -0.4264108             -11.6032
        85        2.0000           -0.4249397             -11.5632
        86        2.0000           -0.4246783             -11.5561
        87        2.0000           -0.4238913             -11.5347
        88        2.0000           -0.4217915             -11.4775
        89        2.0000           -0.4187923             -11.3959
        90        2.0000           -0.4156627             -11.3108
        91        2.0000           -0.4137468             -11.2586 (HOMO)
        92                         -0.2840467              -7.7293 (LUMO)
        93                         -0.2797366              -7.6120
        94                         -0.2598770              -7.0716
        95                         -0.2572648              -7.0005
        96                         -0.2496952              -6.7946
        97                         -0.2461107              -6.6970
        98                         -0.2429878              -6.6120
        99                         -0.2427596              -6.6058
       100                         -0.2422915              -6.5931
       101                         -0.2279215              -6.2021
       102                         -0.2222668              -6.0482
       ...                                ...                  ...
       172                          0.6647018              18.0875
      -------------------------------------------------------------
                  HL-Gap            0.1297000 Eh            3.5293 eV

     #   Z          covCN         q      C6AA      Î±(0)
     1   6 C        2.924    -0.031    28.780     8.798
     2   6 C        2.920    -0.026    28.655     8.778
     3   6 C        2.921    -0.026    28.653     8.778
     4   6 C        2.920    -0.023    28.590     8.768
     5   6 C        2.924    -0.027    28.676     8.782
     6   6 C        2.973     0.007    27.854     8.657
     7   6 C        3.826     0.041    19.874     6.344
     8   6 C        3.830     0.037    19.928     6.352
     9   6 C        2.970    -0.004    28.127     8.699
    10   6 C        2.925    -0.039    28.973     8.827
    11   6 C        2.920    -0.026    28.659     8.779
    12   6 C        2.920    -0.027    28.678     8.782
    13   6 C        2.920    -0.023    28.577     8.766
    14   6 C        2.922    -0.029    28.717     8.788
    15   7 N        2.769    -0.110    23.407     7.186
    16   6 C        2.755     0.276    22.323     7.737
    17   6 C        3.086    -0.044    28.982     8.825
    18   6 C        3.086     0.084    26.036     8.364
    19   8 O        1.764    -0.154    16.616     5.504
    20   6 C        3.094     0.184    23.974     8.025
    21  35 Br       0.991    -0.101   187.778    22.094
    22   6 C        3.047    -0.076    29.855     8.961
    23   8 O        0.859    -0.404    21.756     6.254
    24   6 C        3.758     0.071    19.437     6.285
    25   6 C        2.685     0.348    21.089     7.515
    26   8 O        1.659    -0.343    19.785     6.005
    27   8 O        0.856    -0.360    20.891     6.128
    28   7 N        2.760    -0.140    24.020     7.279
    29   6 C        2.760     0.269    22.451     7.759
    30   6 C        3.080    -0.052    29.193     8.858
    31   6 C        3.089     0.084    26.030     8.363
    32   8 O        1.763    -0.153    16.592     5.500
    33   6 C        3.093     0.185    23.955     8.022
    34  35 Br       0.991    -0.090   187.456    22.076
    35   6 C        3.044    -0.080    29.948     8.976
    36   8 O        0.860    -0.411    21.908     6.275
    37   1 H        0.926     0.021     2.718     2.578
    38   1 H        0.926     0.039     2.464     2.454
    39   1 H        0.926     0.042     2.429     2.437
    40   1 H        0.926     0.043     2.407     2.426
    41   1 H        0.926     0.038     2.469     2.457
    42   1 H        0.924     0.060     2.198     2.318
    43   1 H        0.924     0.085     1.932     2.174
    44   1 H        0.926     0.032     2.552     2.498
    45   1 H        0.926     0.041     2.439     2.442
    46   1 H        0.926     0.042     2.423     2.434
    47   1 H        0.926     0.045     2.383     2.414
    48   1 H        0.926     0.033     2.541     2.493
    49   1 H        0.926     0.082     1.962     2.190
    50   1 H        0.926     0.052     2.292     2.368
    51   1 H        0.924     0.072     2.065     2.247
    52   1 H        0.804     0.339     0.615     1.232
    53   1 H        0.926     0.086     1.915     2.164
    54   1 H        0.927     0.060     2.200     2.319

Wiberg/Mayer (AO) data.
largest (>0.10) Wiberg bond orders for each atom

     #   Z sym  total        # sym  WBO       # sym  WBO       # sym  WBO
 ---------------------------------------------------------------------------
     1   6 C    3.992 --     2 C    1.448     6 C    1.410    37 H    0.969
                             4 C    0.112
     2   6 C    3.992 --     1 C    1.448     3 C    1.436    38 H    0.971
                             5 C    0.111
     3   6 C    3.990 --     4 C    1.441     2 C    1.436    39 H    0.971
                             6 C    0.109
     4   6 C    3.991 --     5 C    1.442     3 C    1.441    40 H    0.970
                             1 C    0.112
     5   6 C    3.990 --     4 C    1.442     6 C    1.415    41 H    0.968
                             2 C    0.111
     6   6 C    3.985 --     5 C    1.415     1 C    1.410     7 C    0.988
                             3 C    0.109
     7   6 C    3.958 --     6 C    0.988     8 C    0.957    42 H    0.955
                            28 N    0.945
     8   6 C    3.959 --     9 C    0.981    15 N    0.967     7 C    0.957
                            43 H    0.943
     9   6 C    3.984 --    14 C    1.424    10 C    1.403     8 C    0.981
                            12 C    0.109
    10   6 C    3.991 --    11 C    1.452     9 C    1.403    44 H    0.968
                            13 C    0.113
    11   6 C    3.991 --    10 C    1.452    12 C    1.431    45 H    0.970
                            14 C    0.110
    12   6 C    3.991 --    13 C    1.447    11 C    1.431    46 H    0.971
                             9 C    0.109
    13   6 C    3.991 --    12 C    1.447    14 C    1.433    47 H    0.970
                            10 C    0.113
    14   6 C    3.991 --    13 C    1.433     9 C    1.424    48 H    0.966
                            11 C    0.110
    15   7 N    3.470 --    16 C    1.193    24 C    0.985     8 C    0.967
                            23 O    0.191
    16   6 C    3.949 --    23 O    1.704    15 N    1.193    17 C    0.972
    17   6 C    3.979 --    18 C    1.571    22 C    1.249    16 C    0.972
    18   6 C    3.904 --    17 C    1.571    19 O    1.136    49 H    0.962
                            20 C    0.130
    19   8 O    2.471 --    18 C    1.136    20 C    1.135
    20   6 C    3.882 --    22 C    1.553    19 O    1.135    21 Br   1.016
                            18 C    0.130
    21  35 Br   1.167 --    20 C    1.016
    22   6 C    3.974 --    20 C    1.553    17 C    1.249    50 H    0.971
    23   8 O    2.036 --    16 C    1.704    15 N    0.191
    24   6 C    3.965 --    28 N    0.991    15 N    0.985    51 H    0.934
                            25 C    0.890
    25   6 C    3.924 --    27 O    1.789    26 O    1.170    24 C    0.890
    26   8 O    2.247 --    25 C    1.170    52 H    0.844    27 O    0.175
    27   8 O    2.082 --    25 C    1.789    26 O    0.175
    28   7 N    3.448 --    29 C    1.177    24 C    0.991     7 C    0.945
                            36 O    0.183
    29   6 C    3.951 --    36 O    1.693    28 N    1.177    30 C    1.000
    30   6 C    3.976 --    31 C    1.542    35 C    1.247    29 C    1.000
    31   6 C    3.904 --    30 C    1.542    32 O    1.150    53 H    0.961
                            33 C    0.127
    32   8 O    2.474 --    31 C    1.150    33 C    1.126
    33   6 C    3.884 --    35 C    1.561    32 O    1.126    34 Br   1.024
                            31 C    0.127
    34  35 Br   1.177 --    33 C    1.024
    35   6 C    3.976 --    33 C    1.561    30 C    1.247    54 H    0.967
    36   8 O    2.026 --    29 C    1.693    28 N    0.183
    37   1 H    1.000 --     1 C    0.969
    38   1 H    0.998 --     2 C    0.971
    39   1 H    0.998 --     3 C    0.971
    40   1 H    0.998 --     4 C    0.970
    41   1 H    0.998 --     5 C    0.968
    42   1 H    0.995 --     7 C    0.955
    43   1 H    0.992 --     8 C    0.943
    44   1 H    0.999 --    10 C    0.968
    45   1 H    0.998 --    11 C    0.970
    46   1 H    0.998 --    12 C    0.971
    47   1 H    0.998 --    13 C    0.970
    48   1 H    0.999 --    14 C    0.966
    49   1 H    0.993 --    18 C    0.962
    50   1 H    0.997 --    22 C    0.971
    51   1 H    0.995 --    24 C    0.934
    52   1 H    0.885 --    26 O    0.844
    53   1 H    0.993 --    31 C    0.961
    54   1 H    0.996 --    35 C    0.967
 ---------------------------------------------------------------------------

molecular dipole:
                 x           y           z       tot (Debye)
 q only:       -0.020      -1.745      -0.133
   full:       -0.126      -2.328       0.057       5.927

           -------------------------------------------------
          | TOTAL ENERGY             -103.282250314432 Eh   |
          | GRADIENT NORM               0.000526501610 Eh/Î± |
          | HOMO-LUMO GAP               3.529317568068 eV   |
           -------------------------------------------------

 * finished run on 2022/03/17 at 01:29:10.277
