   * xtb version 6.3.3 (4ae9cef) compiled by 'conda@95abc7406d43' on 2020-10-14
          program call               : xtb acid_472.xyz --opt --chrg 0 --uhf 0 --gfn 2
          number of atoms            :                    80
          number of electrons        :                   238
          charge                     :                     0
          spin                       :                   0.0

   ID    Z sym.   atoms
    1    6 C      1, 3-16, 18, 20-30, 32, 33, 37-47
    2    8 O      2, 17, 31, 34, 35, 48
    3    7 N      19, 36
    4    1 H      49-80

          :  Hamiltonian                  GFN2-xTB          :
 * total energy  :  -132.2254194 Eh     change       -0.9607675E-08 Eh
 * total energy  :  -132.2426826 Eh     change       -0.1726317E-01 Eh
 * total energy  :  -132.2470255 Eh     change       -0.4342957E-02 Eh
 * total energy  :  -132.2482016 Eh     change       -0.1176055E-02 Eh
 * total energy  :  -132.2490399 Eh     change       -0.8383295E-03 Eh
 * total energy  :  -132.2495910 Eh     change       -0.5511124E-03 Eh
 * total energy  :  -132.2502372 Eh     change       -0.6461193E-03 Eh
 * total energy  :  -132.2510060 Eh     change       -0.7688792E-03 Eh
 * total energy  :  -132.2518349 Eh     change       -0.8288122E-03 Eh
 * total energy  :  -132.2528250 Eh     change       -0.9901607E-03 Eh
 * total energy  :  -132.2864547 Eh     change       -0.1839617E-04 Eh
 * total energy  :  -132.2864713 Eh     change       -0.1658647E-04 Eh
 * total energy  :  -132.2864832 Eh     change       -0.1183573E-04 Eh
 * total energy  :  -132.2864958 Eh     change       -0.1266519E-04 Eh
 * total energy  :  -132.2865092 Eh     change       -0.1339221E-04 Eh
 * total energy  :  -132.2865224 Eh     change       -0.1315533E-04 Eh
 * total energy  :  -132.2865276 Eh     change       -0.5259567E-05 Eh
 * total energy  :  -132.2865346 Eh     change       -0.7016757E-05 Eh
 * total energy  :  -132.2865385 Eh     change       -0.3886496E-05 Eh
   *** GEOMETRY OPTIMIZATION CONVERGED AFTER 96 ITERATIONS ***

 final structure:
================
80
 xtb: 6.3.3 (4ae9cef)
C        -1.78260158813840   -1.37140092975612    0.93798771814520
O        -1.27119528429707   -0.90119537062201    2.10839858273467
C        -1.48735475069157   -1.64345858733145    3.28474705491289
C        -2.49940498293721   -2.55602207101372    0.81279359742357
C        -2.97841332395584   -2.95610977554624   -0.42208819212335
C        -2.74111934429487   -2.19244656046509   -1.54928380156116
C        -2.03354882906000   -1.01020514433648   -1.42967495983279
C        -1.56652688756478   -0.58003523820711   -0.19842693225481
C        -0.82458921489684    0.72681685322442   -0.08383908924737
C         0.54068106050627    0.66684596057572   -0.81161921495200
C         1.69641526581482    0.64294186670682    0.15726945142206
C         2.05441859206373    1.77388410135783    0.87148618102951
C         3.12893859556075    1.74761092733095    1.74363537333020
C         3.85005665595315    0.58004139485023    1.90197987643010
C         3.49969893232759   -0.56314398674717    1.20426736344244
C         2.41822957432921   -0.54632873755587    0.33271874237740
O         1.99655884596732   -1.62613751626623   -0.38967352623359
C         2.75638333271006   -2.80919274502104   -0.33255741749741
N         0.52994934281200    1.82128780493844   -1.69241476568105
C         1.48276544945594    2.15067958670555   -2.60541469615620
C         2.72196456131912    1.32106665151672   -2.49003448309055
C         2.79257864470374    0.05616492683652   -3.10196690107422
C         3.90074506851029   -0.72528142364322   -2.93664677723947
C         4.97828654496273   -0.29122696084731   -2.13707659121368
C         6.10849394431287   -1.10080802344007   -1.89441274027917
C         7.12855057630606   -0.65617394604800   -1.10152690024766
C         7.07143658704745    0.62187242406885   -0.52161251330159
C         5.99490454146595    1.43273861945298   -0.74349625268233
C         4.92071488196942    0.99924399268750   -1.54846349567525
C         3.77924567647450    1.79601164167508   -1.75902989351842
O         1.31200112462850    3.03815011806949   -3.41287102004300
C        -0.68511706140942    2.58177195572132   -1.61894236279977
C        -0.42843820514983    4.01249335790096   -1.04828645255615
O        -1.46090786008699    4.82393308769614   -1.13818132940641
O         0.61847071286276    4.31648283420425   -0.55399855701796
N        -1.54044216290378    1.81676781134646   -0.73361754239490
C        -2.85193489130622    2.09760884677248   -0.62352324916993
C        -3.61229336675432    1.26335456164764    0.34707806726086
C        -4.57397217654949    0.38375166616496   -0.07574889208168
C        -5.25181928191298   -0.43417018566392    0.84851769627029
C        -6.19367996962733   -1.40107198624807    0.43969193808728
C        -6.81627687231739   -2.19953815159170    1.35700845781196
C        -6.53199204060166   -2.06360090898891    2.72542956542296
C        -5.62997325497022   -1.13059474373796    3.15368201153189
C        -4.96521262860854   -0.29486660725788    2.23195820110709
C        -4.02362528578551    0.67288001354677    2.64050615238060
C        -3.35117858269885    1.42583932883454    1.72242475763353
O        -3.36345569795233    3.01054225011788   -1.26703969273227
H        -1.02247957058752   -2.63237975643428    3.22543316207715
H        -1.01303010549311   -1.07135272542491    4.08042130549541
H        -2.55508454893089   -1.75183969375043    3.49832826559988
H        -2.69641633331868   -3.17241241656335    1.67496676651052
H        -3.53984426332433   -3.87504163183112   -0.49709722605890
H        -3.10697273767285   -2.51126570519917   -2.51285816863276
H        -1.85478285151665   -0.39779248829264   -2.30179574782193
H        -0.66822965551010    0.96055812161221    0.97491087123221
H         0.59102936978991   -0.24780263506124   -1.41546973997790
H         1.51098296300313    2.69266962927989    0.71265798497449
H         3.40304549421834    2.63787660454461    2.28766747149431
H         4.69738685577826    0.54917418817797    2.57049214685054
H         4.08157773827330   -1.46022538926719    1.34257676391328
H         2.27943119635322   -3.49524711499502   -1.03096469997700
H         2.74145018541922   -3.24824214858915    0.67011381057540
H         3.79128761252730   -2.63396713286347   -0.64110328821560
H         1.96461385360506   -0.28716689674269   -3.70531176975969
H         3.95886743790456   -1.69655420059788   -3.40781812918129
H         6.15158460261878   -2.08191018000493   -2.34790035432295
H         7.98895891031230   -1.28311472659984   -0.91690429501853
H         7.88877041639650    0.95578016870390    0.10081094819209
H         5.94118618654911    2.41581819762313   -0.29936207617637
H         3.72711777978450    2.77670465680227   -1.31051374744591
H        -1.14480799373083    2.69660489572371   -2.61660631443944
H        -2.29126641226400    4.34942258150868   -1.41076400552190
H        -4.79457493068192    0.28473732907499   -1.12816093182339
H        -6.40729932585575   -1.50039096479142   -0.61442353554275
H        -7.53390044563756   -2.94090905786134    1.03805143068278
H        -7.03553883386164   -2.70171112448519    3.43676338114809
H        -5.41232666880313   -1.01877601393026    4.20695306959706
H        -3.83239659050458    0.80197965415429    3.69626409705549
H        -2.62475030256570    2.15900299258913    2.04052900782392

          :  Hamiltonian                  GFN2-xTB          :
         :: total energy            -132.286538527619 Eh    ::
         :: gradient norm              0.000967440151 Eh/a0 ::
         :: HOMO-LUMO gap              2.780371354682 eV    ::
         :: SCC energy              -134.324025052421 Eh    ::
         :: -> dispersion             -0.127214683968 Eh    ::
         :: repulsion energy           2.031586634229 Eh    ::

    * Orbital Energies and Occupations

         #    Occupation            Energy/Eh            Energy/eV
      -------------------------------------------------------------
         1        2.0000           -0.7395571             -20.1244
       ...           ...                  ...                  ...
       107        2.0000           -0.4250759             -11.5669
       108        2.0000           -0.4191267             -11.4050
       109        2.0000           -0.4164389             -11.3319
       110        2.0000           -0.4126094             -11.2277
       111        2.0000           -0.4105244             -11.1709
       112        2.0000           -0.4079649             -11.1013
       113        2.0000           -0.4028964             -10.9634
       114        2.0000           -0.4001282             -10.8880
       115        2.0000           -0.3932161             -10.7000
       116        2.0000           -0.3905830             -10.6283
       117        2.0000           -0.3868819             -10.5276
       118        2.0000           -0.3858429             -10.4993
       119        2.0000           -0.3800739             -10.3423 (HOMO)
       120                         -0.2778971              -7.5620 (LUMO)
       121                         -0.2642968              -7.1919
       122                         -0.2527659              -6.8781
       123                         -0.2471985              -6.7266
       124                         -0.2365548              -6.4370
       125                         -0.2352478              -6.4014
       126                         -0.2331303              -6.3438
       127                         -0.2304034              -6.2696
       128                         -0.2287502              -6.2246
       129                         -0.2214489              -6.0259
       130                         -0.2089655              -5.6862
       ...                                ...                  ...
       224                          0.6950001              18.9119
      -------------------------------------------------------------
                  HL-Gap            0.1021768 Eh            2.7804 eV

     #   Z          covCN         q      C6AA      Î±(0)
     1   6 C        2.868     0.141    24.935     8.185
     2   8 O        1.705    -0.273    18.536     5.813
     3   6 C        3.644     0.037    20.290     6.475
     4   6 C        2.918    -0.064    29.603     8.922
     5   6 C        2.921    -0.030    28.753     8.793
     6   6 C        2.917    -0.040    28.990     8.829
     7   6 C        2.924    -0.034    28.844     8.808
     8   6 C        2.973    -0.023    28.565     8.767
     9   6 C        3.816     0.040    19.885     6.347
    10   6 C        3.815     0.040    19.887     6.347
    11   6 C        2.972    -0.024    28.604     8.773
    12   6 C        2.923    -0.037    28.926     8.820
    13   6 C        2.918    -0.038    28.954     8.824
    14   6 C        2.921    -0.031    28.774     8.797
    15   6 C        2.918    -0.065    29.627     8.926
    16   6 C        2.868     0.137    25.010     8.198
    17   8 O        1.705    -0.282    18.674     5.834
    18   6 C        3.644     0.039    20.256     6.470
    19   7 N        2.763    -0.112    23.435     7.190
    20   6 C        2.767     0.275    22.351     7.743
    21   6 C        2.976    -0.013    28.323     8.730
    22   6 C        2.917    -0.026    28.647     8.777
    23   6 C        2.918    -0.033    28.833     8.805
    24   6 C        2.987     0.012    27.734     8.639
    25   6 C        2.918    -0.037    28.928     8.820
    26   6 C        2.916    -0.030    28.761     8.794
    27   6 C        2.916    -0.030    28.738     8.791
    28   6 C        2.919    -0.032    28.799     8.800
    29   6 C        2.988     0.015    27.666     8.628
    30   6 C        2.924    -0.029    28.728     8.790
    31   8 O        0.859    -0.422    22.127     6.307
    32   6 C        3.761     0.086    19.205     6.247
    33   6 C        2.685     0.358    20.922     7.486
    34   8 O        1.656    -0.364    20.161     6.061
    35   8 O        0.856    -0.364    20.981     6.141
    36   7 N        2.761    -0.107    23.348     7.177
    37   6 C        2.766     0.269    22.463     7.762
    38   6 C        2.975    -0.012    28.321     8.729
    39   6 C        2.922    -0.028    28.705     8.786
    40   6 C        2.988     0.015    27.666     8.628
    41   6 C        2.919    -0.032    28.801     8.801
    42   6 C        2.916    -0.028    28.703     8.785
    43   6 C        2.916    -0.029    28.718     8.788
    44   6 C        2.918    -0.036    28.892     8.814
    45   6 C        2.987     0.014    27.702     8.634
    46   6 C        2.918    -0.031    28.772     8.796
    47   6 C        2.919    -0.026    28.656     8.778
    48   8 O        0.859    -0.460    22.918     6.419
    49   1 H        0.924     0.044     2.394     2.420
    50   1 H        0.925     0.066     2.131     2.283
    51   1 H        0.924     0.045     2.386     2.416
    52   1 H        0.926     0.041     2.432     2.438
    53   1 H        0.926     0.042     2.421     2.433
    54   1 H        0.926     0.043     2.406     2.426
    55   1 H        0.926     0.041     2.436     2.441
    56   1 H        0.924     0.071     2.078     2.254
    57   1 H        0.924     0.067     2.120     2.277
    58   1 H        0.926     0.070     2.085     2.258
    59   1 H        0.926     0.045     2.382     2.414
    60   1 H        0.926     0.039     2.461     2.453
    61   1 H        0.926     0.038     2.481     2.463
    62   1 H        0.925     0.061     2.184     2.311
    63   1 H        0.924     0.041     2.439     2.442
    64   1 H        0.924     0.045     2.380     2.413
    65   1 H        0.926     0.032     2.554     2.499
    66   1 H        0.926     0.035     2.516     2.481
    67   1 H        0.925     0.029     2.607     2.525
    68   1 H        0.926     0.031     2.570     2.507
    69   1 H        0.926     0.033     2.540     2.492
    70   1 H        0.926     0.038     2.474     2.459
    71   1 H        0.926     0.049     2.327     2.385
    72   1 H        0.923     0.073     2.049     2.239
    73   1 H        0.800     0.364     0.557     1.172
    74   1 H        0.926     0.043     2.405     2.425
    75   1 H        0.926     0.037     2.483     2.464
    76   1 H        0.926     0.036     2.498     2.472
    77   1 H        0.926     0.035     2.515     2.480
    78   1 H        0.925     0.033     2.549     2.497
    79   1 H        0.926     0.041     2.439     2.442
    80   1 H        0.926     0.037     2.489     2.467

Wiberg/Mayer (AO) data.
largest (>0.10) Wiberg bond orders for each atom

     #   Z sym  total        # sym  WBO       # sym  WBO       # sym  WBO
 ---------------------------------------------------------------------------
     1   6 C    3.935 --     4 C    1.376     8 C    1.326     2 O    1.064
     2   8 O    2.234 --     1 C    1.064     3 C    0.980
     3   6 C    3.941 --     2 O    0.980    50 H    0.979    49 H    0.976
                            51 H    0.975
     4   6 C    3.987 --     5 C    1.439     1 C    1.376    52 H    0.965
                             7 C    0.103
     5   6 C    3.990 --     4 C    1.439     6 C    1.438    53 H    0.971
                             8 C    0.106
     6   6 C    3.991 --     5 C    1.438     7 C    1.431    54 H    0.970
     7   6 C    3.990 --     6 C    1.431     8 C    1.431    55 H    0.968
                             4 C    0.103
     8   6 C    3.982 --     7 C    1.431     1 C    1.326     9 C    0.991
                             5 C    0.106
     9   6 C    3.962 --     8 C    0.991    36 N    0.958    10 C    0.952
                            56 H    0.950
    10   6 C    3.966 --    11 C    0.989    19 N    0.966     9 C    0.952
                            57 H    0.949
    11   6 C    3.981 --    12 C    1.434    16 C    1.328    10 C    0.989
                            14 C    0.106
    12   6 C    3.986 --    11 C    1.434    13 C    1.427    58 H    0.958
                            15 C    0.104
    13   6 C    3.991 --    14 C    1.443    12 C    1.427    59 H    0.970
    14   6 C    3.990 --    13 C    1.443    15 C    1.434    60 H    0.971
                            11 C    0.106
    15   6 C    3.987 --    14 C    1.434    16 C    1.382    61 H    0.965
                            12 C    0.104
    16   6 C    3.932 --    15 C    1.382    11 C    1.328    17 O    1.053
    17   8 O    2.222 --    16 C    1.053    18 C    0.982
    18   6 C    3.944 --    17 O    0.982    62 H    0.980    63 H    0.976
                            64 H    0.975
    19   7 N    3.463 --    20 C    1.200    32 C    0.995    10 C    0.966
                            31 O    0.190
    20   6 C    3.943 --    31 O    1.700    19 N    1.200    21 C    0.956
    21   6 C    3.988 --    30 C    1.518    22 C    1.294    20 C    0.956
    22   6 C    3.991 --    23 C    1.555    21 C    1.294    65 H    0.970
    23   6 C    3.991 --    22 C    1.555    24 C    1.279    66 H    0.967
                            30 C    0.117
    24   6 C    3.991 --    23 C    1.279    25 C    1.278    29 C    1.250
    25   6 C    3.992 --    26 C    1.559    24 C    1.278    67 H    0.968
                            28 C    0.118
    26   6 C    3.991 --    25 C    1.559    27 C    1.318    68 H    0.971
    27   6 C    3.992 --    28 C    1.561    26 C    1.318    69 H    0.971
    28   6 C    3.990 --    27 C    1.561    29 C    1.276    70 H    0.968
                            25 C    0.118
    29   6 C    3.990 --    30 C    1.283    28 C    1.276    24 C    1.250
    30   6 C    3.989 --    21 C    1.518    29 C    1.283    71 H    0.965
                            23 C    0.117
    31   8 O    2.018 --    20 C    1.700    19 N    0.190
    32   6 C    3.955 --    19 N    0.995    36 N    0.969    72 H    0.938
                            33 C    0.888
    33   6 C    3.929 --    35 O    1.779    34 O    1.202    32 C    0.888
    34   8 O    2.240 --    33 C    1.202    73 H    0.779    35 O    0.180
    35   8 O    2.083 --    33 C    1.779    34 O    0.180
    36   7 N    3.502 --    37 C    1.267    32 C    0.969     9 C    0.958
                            48 O    0.188
    37   6 C    3.943 --    48 O    1.600    36 N    1.267    38 C    0.971
    38   6 C    3.987 --    39 C    1.517    47 C    1.283    37 C    0.971
    39   6 C    3.989 --    38 C    1.517    40 C    1.283    74 H    0.966
                            46 C    0.115
    40   6 C    3.990 --    39 C    1.283    41 C    1.277    45 C    1.250
    41   6 C    3.989 --    42 C    1.559    40 C    1.277    75 H    0.968
                            44 C    0.118
    42   6 C    3.992 --    41 C    1.559    43 C    1.319    76 H    0.971
    43   6 C    3.990 --    44 C    1.557    42 C    1.319    77 H    0.971
    44   6 C    3.992 --    43 C    1.557    45 C    1.281    78 H    0.968
                            41 C    0.118
    45   6 C    3.990 --    44 C    1.281    46 C    1.277    40 C    1.250
    46   6 C    3.991 --    47 C    1.561    45 C    1.277    79 H    0.967
                            39 C    0.115
    47   6 C    3.991 --    46 C    1.561    38 C    1.283    80 H    0.969
    48   8 O    2.000 --    37 C    1.600    36 N    0.188
    49   1 H    0.998 --     3 C    0.976
    50   1 H    0.995 --     3 C    0.979
    51   1 H    0.998 --     3 C    0.975
    52   1 H    0.998 --     4 C    0.965
    53   1 H    0.998 --     5 C    0.971
    54   1 H    0.998 --     6 C    0.970
    55   1 H    0.998 --     7 C    0.968
    56   1 H    0.995 --     9 C    0.950
    57   1 H    0.995 --    10 C    0.949
    58   1 H    0.994 --    12 C    0.958
    59   1 H    0.998 --    13 C    0.970
    60   1 H    0.998 --    14 C    0.971
    61   1 H    0.998 --    15 C    0.965
    62   1 H    0.996 --    18 C    0.980
    63   1 H    0.998 --    18 C    0.976
    64   1 H    0.998 --    18 C    0.975
    65   1 H    0.998 --    22 C    0.970
    66   1 H    0.998 --    23 C    0.967
    67   1 H    0.999 --    25 C    0.968
    68   1 H    0.999 --    26 C    0.971
    69   1 H    0.998 --    27 C    0.971
    70   1 H    0.998 --    28 C    0.968
    71   1 H    0.997 --    30 C    0.965
    72   1 H    0.994 --    32 C    0.938
    73   1 H    0.867 --    34 O    0.779
    74   1 H    0.998 --    39 C    0.966
    75   1 H    0.998 --    41 C    0.968
    76   1 H    0.998 --    42 C    0.971
    77   1 H    0.998 --    43 C    0.971
    78   1 H    0.998 --    44 C    0.968
    79   1 H    0.997 --    46 C    0.967
    80   1 H    0.998 --    47 C    0.969
 ---------------------------------------------------------------------------

molecular dipole:
                 x           y           z       tot (Debye)
 q only:       -0.224      -3.859       2.107
   full:       -0.367      -4.416       2.163      12.535

           -------------------------------------------------
          | TOTAL ENERGY             -132.286538527619 Eh   |
          | GRADIENT NORM               0.000967440151 Eh/Î± |
          | HOMO-LUMO GAP               2.780371354682 eV   |
           -------------------------------------------------

 * finished run on 2022/03/17 at 01:36:25.113
