   * xtb version 6.3.3 (4ae9cef) compiled by 'conda@95abc7406d43' on 2020-10-14
          program call               : xtb acid_134.xyz --opt --chrg 0 --uhf 0 --gfn 2
          number of atoms            :                    54
          number of electrons        :                   182
          charge                     :                     0
          spin                       :                   0.0

   ID    Z sym.   atoms
    1    6 C      1-14, 16-20, 24, 25, 29-33
    2    7 N      15, 28
    3   17 Cl     21, 34
    4   16 S      22, 35
    5    8 O      23, 26, 27, 36
    6    1 H      37-54

          :  Hamiltonian                  GFN2-xTB          :
 * total energy  :  -102.5572833 Eh     change       -0.6398722E-09 Eh
 * total energy  :  -102.5700712 Eh     change       -0.1278790E-01 Eh
 * total energy  :  -102.5742049 Eh     change       -0.4133668E-02 Eh
 * total energy  :  -102.5752083 Eh     change       -0.1003383E-02 Eh
 * total energy  :  -102.5757275 Eh     change       -0.5191790E-03 Eh
 * total energy  :  -102.5760737 Eh     change       -0.3462074E-03 Eh
 * total energy  :  -102.5764001 Eh     change       -0.3264214E-03 Eh
 * total energy  :  -102.5767516 Eh     change       -0.3515134E-03 Eh
 * total energy  :  -102.5771261 Eh     change       -0.3744543E-03 Eh
 * total energy  :  -102.5774655 Eh     change       -0.3394055E-03 Eh
 * total energy  :  -102.5858456 Eh     change       -0.2225807E-04 Eh
 * total energy  :  -102.5858606 Eh     change       -0.1504141E-04 Eh
 * total energy  :  -102.5858419 Eh     change        0.1866568E-04 Eh
 * total energy  :  -102.5858678 Eh     change       -0.2591934E-04 Eh
 * total energy  :  -102.5858788 Eh     change       -0.1095393E-04 Eh
 * total energy  :  -102.5858865 Eh     change       -0.7714263E-05 Eh
 * total energy  :  -102.5858864 Eh     change        0.6787215E-07 Eh
 * total energy  :  -102.5858967 Eh     change       -0.1020325E-04 Eh
 * total energy  :  -102.5859011 Eh     change       -0.4411060E-05 Eh
   *** GEOMETRY OPTIMIZATION CONVERGED AFTER 95 ITERATIONS ***

 final structure:
================
54
 xtb: 6.3.3 (4ae9cef)
C         2.32372911943374    0.63248523817171   -1.04286333694369
C         3.37326722967491    1.29018936785540   -1.65809047066915
C         3.56752598504084    2.64429827541928   -1.44395853432043
C         2.70131141672500    3.34217821035692   -0.62020105809447
C         1.65421181908203    2.68530489218410    0.00118039296670
C         1.46731415153592    1.32402018717733   -0.19529100676461
C         0.31285925539460    0.62086781436587    0.46737809151583
C        -0.80184506121332    0.33361727900653   -0.56407860138261
C        -1.84450792744782    1.41814441142013   -0.57381329258856
C        -1.80773968142943    2.40605143278762   -1.54681604828135
C        -2.74222598386903    3.42613752502982   -1.53911220131132
C        -3.72070084370422    3.46442088134021   -0.56080338578160
C        -3.75827696408408    2.48244114664330    0.41456715212393
C        -2.81987252839106    1.46653063737333    0.41323681103311
N        -1.34591400710460   -0.95032367561965   -0.14315494132288
C        -2.32322060319993   -1.51478109538767   -0.91638365947340
C        -2.87603720008403   -2.80839828433139   -0.48665209789014
C        -3.41635059271847   -3.72411239689843   -1.34747748541940
C        -3.94860906795071   -4.85629097191644   -0.70773142550308
C        -3.83282788601018   -4.77737905525271    0.64771697372603
Cl       -4.36650668484910   -5.92581047858116    1.78624138886416
S        -3.05499334606962   -3.32179640719643    1.16029351922419
O        -2.74384064939341   -0.95095955036222   -1.90795292547864
C        -0.41123745252753   -1.66212452894276    0.69415297122478
C         0.16963437795120   -2.89814433928797   -0.02963364418622
O         0.90410119740879   -2.53706948295074   -1.08679097276663
O        -0.13271738165618   -4.02916694172819    0.21920991334492
N         0.62853844804567   -0.69900283034451    0.98401457118494
C         1.81028058763316   -1.20358071310810    1.40830563123695
C         2.84923576870587   -0.26759059830196    1.85561005839867
C         4.19470929224531   -0.46351733785477    1.72074541584178
C         4.97025827832145    0.56400172394371    2.28651334891877
C         4.19929489004048    1.52046980415898    2.87638187167639
Cl        4.74389629925292    2.92280231293534    3.67611075613436
S         2.50744090652724    1.18227083767125    2.74309437095633
O         1.98221891159788   -2.41393257376482    1.44065502191855
H         2.17176045999891   -0.42284604341011   -1.21494338206813
H         4.03992170161947    0.74402143947943   -2.30828006520830
H         4.38972769718568    3.15493315784382   -1.92200251292188
H         2.84292616010480    4.39957769266212   -0.45640681298262
H         0.98004098201159    3.22818994639678    0.64722419582785
H        -0.09196743914208    1.24337121733308    1.27799772664320
H        -0.36783793278480    0.23700459685789   -1.56915198582355
H        -1.04831357772292    2.37153931450110   -2.31411084732797
H        -2.71015342821995    4.18876046508528   -2.30290396433129
H        -4.45532034153190    4.25586879590957   -0.56022983842952
H        -4.52135469145433    2.50686891418845    1.17828884211410
H        -2.85221077875803    0.69808975209668    1.17236706625230
H        -3.41527190337332   -3.57694694859784   -2.41196472288371
H        -4.39767101903748   -5.68760278640799   -1.21777410385189
H        -0.87360950176723   -2.01400682835290    1.62933827873561
H         1.25001078783890   -3.32653014775829   -1.53225878490194
H         4.60371721416013   -1.31866092601264    1.21500454213519
H         6.04319953796764    0.59611767216432    2.26520319691879

          :  Hamiltonian                  GFN2-xTB          :
         :: total energy            -102.585901064623 Eh    ::
         :: gradient norm              0.000880654902 Eh/a0 ::
         :: HOMO-LUMO gap              2.763885023781 eV    ::
         :: SCC energy              -103.914626744375 Eh    ::
         :: -> dispersion             -0.087193170918 Eh    ::
         :: repulsion energy           1.326878478852 Eh    ::

    * Orbital Energies and Occupations

         #    Occupation            Energy/Eh            Energy/eV
      -------------------------------------------------------------
         1        2.0000           -1.0810657             -29.4173
       ...           ...                  ...                  ...
        79        2.0000           -0.4322691             -11.7626
        80        2.0000           -0.4314487             -11.7403
        81        2.0000           -0.4279266             -11.6445
        82        2.0000           -0.4245985             -11.5539
        83        2.0000           -0.4203061             -11.4371
        84        2.0000           -0.4191499             -11.4057
        85        2.0000           -0.4161650             -11.3244
        86        2.0000           -0.4145486             -11.2804
        87        2.0000           -0.4123673             -11.2211
        88        2.0000           -0.4084393             -11.1142
        89        2.0000           -0.4048851             -11.0175
        90        2.0000           -0.4001338             -10.8882
        91        2.0000           -0.3950266             -10.7492 (HOMO)
        92                         -0.2934557              -7.9853 (LUMO)
        93                         -0.2817899              -7.6679
        94                         -0.2518178              -6.8523
        95                         -0.2470717              -6.7232
        96                         -0.2436858              -6.6310
        97                         -0.2415423              -6.5727
        98                         -0.2329880              -6.3399
        99                         -0.2305647              -6.2740
       100                         -0.2287342              -6.2242
       101                         -0.2271399              -6.1808
       102                         -0.2154410              -5.8624
       ...                                ...                  ...
       182                          0.6682509              18.1840
      -------------------------------------------------------------
                  HL-Gap            0.1015709 Eh            2.7639 eV

     #   Z          covCN         q      C6AA      Î±(0)
     1   6 C        2.923    -0.037    28.923     8.819
     2   6 C        2.920    -0.028    28.689     8.783
     3   6 C        2.920    -0.029    28.714     8.787
     4   6 C        2.920    -0.026    28.652     8.778
     5   6 C        2.924    -0.035    28.860     8.810
     6   6 C        2.975    -0.000    28.030     8.684
     7   6 C        3.817     0.035    19.968     6.360
     8   6 C        3.835     0.050    19.720     6.318
     9   6 C        2.975     0.012    27.747     8.640
    10   6 C        2.924    -0.029    28.725     8.789
    11   6 C        2.920    -0.025    28.635     8.775
    12   6 C        2.920    -0.028    28.698     8.785
    13   6 C        2.920    -0.026    28.655     8.778
    14   6 C        2.924    -0.031    28.774     8.797
    15   7 N        2.759    -0.122    23.655     7.223
    16   6 C        2.778     0.271    22.429     7.757
    17   6 C        2.988    -0.021    28.524     8.761
    18   6 C        3.122    -0.029    28.535     8.748
    19   6 C        3.113    -0.055    29.192     8.851
    20   6 C        2.911     0.107    25.626     8.301
    21  17 Cl       1.019    -0.124   103.031    15.529
    22  16 S        2.401     0.022   140.163    19.926
    23   8 O        0.860    -0.415    21.989     6.287
    24   6 C        3.772     0.093    19.074     6.223
    25   6 C        2.688     0.367    20.768     7.458
    26   8 O        1.659    -0.371    20.300     6.082
    27   8 O        0.856    -0.386    21.401     6.202
    28   7 N        2.763    -0.104    23.278     7.166
    29   6 C        2.790     0.273    22.385     7.750
    30   6 C        2.990    -0.013    28.325     8.730
    31   6 C        3.116    -0.031    28.599     8.760
    32   6 C        3.112    -0.056    29.238     8.858
    33   6 C        2.910     0.101    25.769     8.324
    34  17 Cl       1.017    -0.124   103.026    15.529
    35  16 S        2.397     0.022   140.140    19.924
    36   8 O        0.861    -0.424    22.161     6.312
    37   1 H        0.926     0.046     2.376     2.410
    38   1 H        0.926     0.040     2.445     2.445
    39   1 H        0.926     0.041     2.438     2.442
    40   1 H        0.926     0.042     2.419     2.432
    41   1 H        0.926     0.037     2.486     2.466
    42   1 H        0.923     0.056     2.249     2.345
    43   1 H        0.923     0.061     2.187     2.313
    44   1 H        0.926     0.035     2.516     2.480
    45   1 H        0.926     0.039     2.456     2.450
    46   1 H        0.926     0.039     2.467     2.456
    47   1 H        0.926     0.039     2.463     2.454
    48   1 H        0.926     0.034     2.533     2.489
    49   1 H        0.926     0.073     2.056     2.243
    50   1 H        0.926     0.069     2.099     2.266
    51   1 H        0.923     0.076     2.017     2.221
    52   1 H        0.804     0.341     0.609     1.226
    53   1 H        0.926     0.075     2.029     2.227
    54   1 H        0.926     0.071     2.072     2.251

Wiberg/Mayer (AO) data.
largest (>0.10) Wiberg bond orders for each atom

     #   Z sym  total        # sym  WBO       # sym  WBO       # sym  WBO
 ---------------------------------------------------------------------------
     1   6 C    3.990 --     2 C    1.446     6 C    1.410    37 H    0.964
                             4 C    0.111
     2   6 C    3.992 --     1 C    1.446     3 C    1.437    38 H    0.971
                             5 C    0.110
     3   6 C    3.990 --     4 C    1.440     2 C    1.437    39 H    0.971
                             6 C    0.109
     4   6 C    3.991 --     5 C    1.442     3 C    1.440    40 H    0.970
                             1 C    0.111
     5   6 C    3.989 --     4 C    1.442     6 C    1.412    41 H    0.968
                             2 C    0.110
     6   6 C    3.985 --     5 C    1.412     1 C    1.410     7 C    0.992
                             3 C    0.109
     7   6 C    3.962 --     6 C    0.992    28 N    0.960    42 H    0.952
                             8 C    0.947
     8   6 C    3.962 --     9 C    0.990    15 N    0.959    43 H    0.951
                             7 C    0.947
     9   6 C    3.983 --    10 C    1.414    14 C    1.411     8 C    0.990
                            12 C    0.109
    10   6 C    3.990 --    11 C    1.443     9 C    1.414    44 H    0.969
                            13 C    0.111
    11   6 C    3.992 --    10 C    1.443    12 C    1.440    45 H    0.971
                            14 C    0.112
    12   6 C    3.991 --    11 C    1.440    13 C    1.437    46 H    0.971
                             9 C    0.109
    13   6 C    3.992 --    14 C    1.446    12 C    1.437    47 H    0.971
                            10 C    0.111
    14   6 C    3.991 --    13 C    1.446     9 C    1.411    48 H    0.969
                            11 C    0.112
    15   7 N    3.432 --    16 C    1.176    24 C    0.982     8 C    0.959
                            23 O    0.177
    16   6 C    3.953 --    23 O    1.670    15 N    1.176    17 C    1.025
    17   6 C    3.940 --    18 C    1.547    22 S    1.138    16 C    1.025
    18   6 C    3.986 --    17 C    1.547    19 C    1.296    49 H    0.960
    19   6 C    3.980 --    20 C    1.547    18 C    1.296    50 H    0.960
    20   6 C    3.891 --    19 C    1.547    22 S    1.174    21 Cl   1.017
    21  17 Cl   1.173 --    20 C    1.017
    22  16 S    2.644 --    20 C    1.174    17 C    1.138
    23   8 O    2.021 --    16 C    1.670    15 N    0.177
    24   6 C    3.963 --    15 N    0.982    28 N    0.980    51 H    0.940
                            25 C    0.907
    25   6 C    3.923 --    27 O    1.774    26 O    1.132    24 C    0.907
    26   8 O    2.197 --    25 C    1.132    52 H    0.859    27 O    0.169
    27   8 O    2.064 --    25 C    1.774    26 O    0.169
    28   7 N    3.473 --    29 C    1.222    24 C    0.980     7 C    0.960
                            36 O    0.183
    29   6 C    3.952 --    36 O    1.619    28 N    1.222    30 C    1.023
    30   6 C    3.942 --    31 C    1.553    35 S    1.137    29 C    1.023
                            33 C    0.100
    31   6 C    3.985 --    30 C    1.553    32 C    1.292    53 H    0.959
    32   6 C    3.980 --    33 C    1.550    31 C    1.292    54 H    0.960
    33   6 C    3.890 --    32 C    1.550    35 S    1.172    34 Cl   1.016
                            30 C    0.100
    34  17 Cl   1.173 --    33 C    1.016
    35  16 S    2.635 --    33 C    1.172    30 C    1.137
    36   8 O    2.045 --    29 C    1.619    28 N    0.183
    37   1 H    0.998 --     1 C    0.964
    38   1 H    0.998 --     2 C    0.971
    39   1 H    0.998 --     3 C    0.971
    40   1 H    0.998 --     4 C    0.970
    41   1 H    0.999 --     5 C    0.968
    42   1 H    0.996 --     7 C    0.952
    43   1 H    0.996 --     8 C    0.951
    44   1 H    0.999 --    10 C    0.969
    45   1 H    0.998 --    11 C    0.971
    46   1 H    0.998 --    12 C    0.971
    47   1 H    0.998 --    13 C    0.971
    48   1 H    0.999 --    14 C    0.969
    49   1 H    0.995 --    18 C    0.960
    50   1 H    0.995 --    19 C    0.960
    51   1 H    0.992 --    24 C    0.940
    52   1 H    0.883 --    26 O    0.859
    53   1 H    0.994 --    31 C    0.959
    54   1 H    0.994 --    32 C    0.960
 ---------------------------------------------------------------------------

molecular dipole:
                 x           y           z       tot (Debye)
 q only:        0.770       1.838      -0.569
   full:        1.184       1.454      -0.536       4.957

           -------------------------------------------------
          | TOTAL ENERGY             -102.585901064623 Eh   |
          | GRADIENT NORM               0.000880654902 Eh/Î± |
          | HOMO-LUMO GAP               2.763885023781 eV   |
           -------------------------------------------------

 * finished run on 2022/03/16 at 21:44:22.201
