   * xtb version 6.3.3 (4ae9cef) compiled by 'conda@95abc7406d43' on 2020-10-14
          program call               : xtb acid_253.xyz --opt --chrg 0 --uhf 0 --gfn 2
          number of atoms            :                    84
          number of electrons        :                   238
          charge                     :                     0
          spin                       :                   0.0

   ID    Z sym.   atoms
    1    6 C      1-22, 24-32, 34, 35, 39-47
    2    7 N      23, 38
    3    8 O      33, 36, 37, 48
    4    1 H      49-84

          :  Hamiltonian                  GFN2-xTB          :
 * total energy  :  -130.4483396 Eh     change       -0.4832771E-08 Eh
 * total energy  :  -130.4673771 Eh     change       -0.1903741E-01 Eh
 * total energy  :  -130.4731343 Eh     change       -0.5757203E-02 Eh
 * total energy  :  -130.4749615 Eh     change       -0.1827250E-02 Eh
 * total energy  :  -130.4764176 Eh     change       -0.1456057E-02 Eh
 * total energy  :  -130.4772352 Eh     change       -0.8176527E-03 Eh
 * total energy  :  -130.4778969 Eh     change       -0.6617034E-03 Eh
 * total energy  :  -130.4785798 Eh     change       -0.6828735E-03 Eh
 * total energy  :  -130.4792640 Eh     change       -0.6841727E-03 Eh
 * total energy  :  -130.4799267 Eh     change       -0.6627065E-03 Eh
 * total energy  :  -130.4925104 Eh     change       -0.4875694E-04 Eh
 * total energy  :  -130.4925668 Eh     change       -0.5643591E-04 Eh
 * total energy  :  -130.4926286 Eh     change       -0.6180527E-04 Eh
 * total energy  :  -130.4926351 Eh     change       -0.6494328E-05 Eh
 * total energy  :  -130.4926482 Eh     change       -0.1304733E-04 Eh
 * total energy  :  -130.4926688 Eh     change       -0.2060410E-04 Eh
 * total energy  :  -130.4926842 Eh     change       -0.1537839E-04 Eh
 * total energy  :  -130.4926921 Eh     change       -0.7900590E-05 Eh
 * total energy  :  -130.4926963 Eh     change       -0.4280935E-05 Eh
   *** GEOMETRY OPTIMIZATION CONVERGED AFTER 157 ITERATIONS ***

 final structure:
================
84
 xtb: 6.3.3 (4ae9cef)
C        -1.06175890487429    3.35499893429438   -0.48567424319109
C        -1.69998253617570    4.53105931249507   -0.21993383264957
C        -3.03688062640646    4.54305466022359    0.23157332221606
C        -3.72974205845283    5.73964147835854    0.50584598664406
C        -5.02962930142248    5.71223959480957    0.92811665212330
C        -5.69447142128173    4.48744599199125    1.09532575413677
C        -5.04820962209816    3.31034779950514    0.83997137178640
C        -3.70757392726581    3.30482419217094    0.40293520579677
C        -3.01764997796990    2.10579484385980    0.12889987203797
C        -1.72085527099300    2.12112574264966   -0.30617703458779
C        -0.94818174262074    0.86096603386176   -0.60541184268233
C         0.24426532016203    0.67244601412138    0.38767179390035
C         1.55701743241926    1.03940238969504   -0.24193706494718
C         2.07144891139465    0.32225536913753   -1.29061536195437
C         3.33271972961104    0.63347932015705   -1.83366458127706
C         3.91430711803946   -0.13833563746275   -2.86059411418798
C         5.15963224777363    0.16026699722318   -3.33707920309470
C         5.87564046947032    1.25084884418223   -2.81851283534810
C         5.33286310757418    2.02614107522661   -1.83262753004952
C         4.05489719693699    1.73817260077029   -1.31226237440974
C         3.47228727847520    2.50266034872352   -0.28112132768372
C         2.26266180307732    2.15584845990216    0.24683320239592
N         0.11006592233405   -0.71739166140670    0.80820263889497
C         1.02158453678805   -1.71439075751569    0.99683795198989
C         2.44915042907857   -1.32308343031161    1.10124848903042
C         2.87354588662718   -0.32470160385655    1.96768302306022
C         4.20877919317716    0.03982795385958    2.03525935060277
C         4.64279025191849    1.13028389875939    2.96488202263584
C         5.13925890743472   -0.60343077762681    1.21195712365586
C         6.57767449257373   -0.18989767601918    1.21980761524981
C         4.71366215308786   -1.63292980534840    0.38462572321866
C         3.38535101426255   -2.00600135230066    0.33576695088090
O         0.65506636355238   -2.87358131055630    1.07852036517330
C        -1.28952161105026   -1.05252333244326    0.72165105058880
C        -2.04184307853570   -0.54704060682079    1.96243677635097
O        -3.32812794195686   -0.88549443055505    1.91097218788647
O        -1.55008036865870    0.07091419187242    2.86405100386357
N        -1.73074105290081   -0.35340270141940   -0.45769374024905
C        -2.55895978602452   -0.79161156807955   -1.44622416872603
C        -3.23128648413130   -2.09521540390710   -1.17116882981365
C        -4.60127464966532   -2.12039819436590   -0.95787412168060
C        -5.23180751855802   -3.32416120393499   -0.70402682172883
C        -4.52212036794350   -4.51608270196624   -0.66623835531123
C        -5.22674571102045   -5.80658695765176   -0.38216756487967
C        -3.14351957997767   -4.49692843390057   -0.90295808910597
C        -2.34418776274098   -5.76245595960633   -0.87936056186708
C        -2.51605441489243   -3.28646845966706   -1.15618678860249
O        -2.74502104201988   -0.13243259086370   -2.44730347370498
H        -0.04207309149216    3.35305161922054   -0.84316742410361
H        -1.19019089174084    5.47361525291331   -0.35988327432269
H        -3.21425645585332    6.68010110807081    0.37162250657327
H        -5.55623934290508    6.63274019625804    1.13354509145822
H        -6.72258493928462    4.48452025473763    1.42707864518226
H        -5.55747766676906    2.36483910261635    0.96397151397500
H        -3.54645206070731    1.17163996876824    0.25019245662084
H        -0.58922355623797    0.91282454426232   -1.64169895516618
H         0.06934328556745    1.31033155159645    1.26527046638053
H         1.52948252574668   -0.52312701909500   -1.69169115942601
H         3.35991510631851   -0.97735843969209   -3.25547210947681
H         5.60363113800458   -0.44037179320390   -4.11737030840273
H         6.85875493772915    1.47222055203804   -3.20761558028654
H         5.87813791682901    2.86994761779810   -1.43314038310635
H         4.00832601004408    3.36122755393938    0.09785538040892
H         1.83561665689424    2.73173778254753    1.05526802931238
H         2.15016764788956    0.16964191560421    2.60013414891934
H         5.39163995047466    0.76329490092096    3.66585965833962
H         5.08766148355444    1.95158868877732    2.40414797039480
H         3.79736549535586    1.51330707638644    3.52983667138527
H         7.00871952138256   -0.30480389548118    2.21382675153764
H         7.15363964390682   -0.78928840183815    0.51968989985380
H         6.67112405912336    0.85774302996984    0.93548765119944
H         5.43394881646718   -2.14476722189930   -0.23722985169780
H         3.06040392222752   -2.80799868382168   -0.30922815643044
H        -1.42170976162281   -2.13848782249842    0.65478316768163
H        -3.80179415627441   -0.56253201517788    2.69564426112137
H        -5.16485463525799   -1.20037969911506   -0.99003865781998
H        -6.29884072647130   -3.33824183675493   -0.53256186107403
H        -4.81305614983742   -6.28146739691741    0.50685851715588
H        -6.28873894056390   -5.63941976600699   -0.22281029597036
H        -5.10529865303215   -6.50049458699132   -1.21311984916811
H        -1.28750603414584   -5.55187563926664   -1.01969140120206
H        -2.46882832995427   -6.27623472317273    0.07288700706299
H        -2.67409682202078   -6.43941382594688   -1.66722825758581
H        -1.45309690989603   -3.27760844338439   -1.35627384375766

          :  Hamiltonian                  GFN2-xTB          :
         :: total energy            -130.492696337671 Eh    ::
         :: gradient norm              0.000802852252 Eh/a0 ::
         :: HOMO-LUMO gap              3.003410737891 eV    ::
         :: SCC energy              -132.627352427252 Eh    ::
         :: -> dispersion             -0.123079511184 Eh    ::
         :: repulsion energy           2.131444225829 Eh    ::

    * Orbital Energies and Occupations

         #    Occupation            Energy/Eh            Energy/eV
      -------------------------------------------------------------
         1        2.0000           -0.7671030             -20.8739
       ...           ...                  ...                  ...
       107        2.0000           -0.4176356             -11.3644
       108        2.0000           -0.4129760             -11.2376
       109        2.0000           -0.4041961             -10.9987
       110        2.0000           -0.4005480             -10.8995
       111        2.0000           -0.3990239             -10.8580
       112        2.0000           -0.3980924             -10.8326
       113        2.0000           -0.3969572             -10.8018
       114        2.0000           -0.3929232             -10.6920
       115        2.0000           -0.3915226             -10.6539
       116        2.0000           -0.3905069             -10.6262
       117        2.0000           -0.3844129             -10.4604
       118        2.0000           -0.3826123             -10.4114
       119        2.0000           -0.3807004             -10.3594 (HOMO)
       120                         -0.2703270              -7.3560 (LUMO)
       121                         -0.2617302              -7.1220
       122                         -0.2574921              -7.0067
       123                         -0.2458480              -6.6899
       124                         -0.2381926              -6.4815
       125                         -0.2312870              -6.2936
       126                         -0.2306527              -6.2764
       127                         -0.2216430              -6.0312
       128                         -0.2188500              -5.9552
       129                         -0.1994467              -5.4272
       130                         -0.1971806              -5.3656
       ...                                ...                  ...
       228                          0.6932011              18.8630
      -------------------------------------------------------------
                  HL-Gap            0.1103733 Eh            3.0034 eV

     #   Z          covCN         q      C6AA      Î±(0)
     1   6 C        2.920    -0.037    28.925     8.820
     2   6 C        2.917    -0.033    28.830     8.805
     3   6 C        2.987     0.013    27.708     8.635
     4   6 C        2.918    -0.034    28.838     8.806
     5   6 C        2.916    -0.030    28.737     8.791
     6   6 C        2.916    -0.029    28.728     8.789
     7   6 C        2.919    -0.034    28.842     8.807
     8   6 C        2.987     0.016    27.656     8.627
     9   6 C        2.922    -0.036    28.897     8.815
    10   6 C        2.968     0.004    27.926     8.668
    11   6 C        3.834     0.042    19.846     6.338
    12   6 C        3.835     0.037    19.925     6.351
    13   6 C        2.968     0.002    27.984     8.677
    14   6 C        2.923    -0.038    28.939     8.822
    15   6 C        2.987     0.015    27.664     8.628
    16   6 C        2.919    -0.032    28.800     8.800
    17   6 C        2.916    -0.028    28.697     8.785
    18   6 C        2.916    -0.028    28.712     8.787
    19   6 C        2.918    -0.034    28.838     8.806
    20   6 C        2.988     0.013    27.717     8.636
    21   6 C        2.917    -0.034    28.851     8.808
    22   6 C        2.920    -0.035    28.883     8.813
    23   7 N        2.764    -0.117    23.541     7.206
    24   6 C        2.766     0.272    22.396     7.750
    25   6 C        2.974    -0.019    28.474     8.753
    26   6 C        2.926    -0.040    28.995     8.831
    27   6 C        2.970     0.011    27.773     8.644
    28   6 C        3.758    -0.109    22.627     6.782
    29   6 C        2.971     0.011    27.765     8.643
    30   6 C        3.758    -0.108    22.618     6.780
    31   6 C        2.924    -0.039    28.979     8.828
    32   6 C        2.924    -0.027    28.677     8.782
    33   8 O        0.860    -0.443    22.548     6.367
    34   6 C        3.798     0.087    19.145     6.230
    35   6 C        2.690     0.354    20.986     7.497
    36   8 O        1.659    -0.365    20.187     6.065
    37   8 O        0.856    -0.386    21.398     6.202
    38   7 N        2.765    -0.120    23.611     7.217
    39   6 C        2.761     0.274    22.374     7.746
    40   6 C        2.975    -0.023    28.575     8.768
    41   6 C        2.922    -0.028    28.692     8.784
    42   6 C        2.924    -0.039    28.975     8.827
    43   6 C        2.970     0.011    27.770     8.644
    44   6 C        3.758    -0.109    22.638     6.783
    45   6 C        2.970     0.013    27.718     8.636
    46   6 C        3.758    -0.110    22.647     6.785
    47   6 C        2.927    -0.042    29.033     8.836
    48   8 O        0.859    -0.424    22.157     6.311
    49   1 H        0.926     0.031     2.565     2.505
    50   1 H        0.926     0.037     2.494     2.469
    51   1 H        0.926     0.033     2.544     2.494
    52   1 H        0.926     0.032     2.559     2.502
    53   1 H        0.926     0.032     2.563     2.503
    54   1 H        0.926     0.030     2.581     2.512
    55   1 H        0.926     0.033     2.550     2.497
    56   1 H        0.923     0.069     2.097     2.265
    57   1 H        0.923     0.058     2.227     2.334
    58   1 H        0.925     0.035     2.521     2.483
    59   1 H        0.926     0.036     2.501     2.473
    60   1 H        0.926     0.035     2.520     2.483
    61   1 H        0.926     0.034     2.536     2.490
    62   1 H        0.926     0.032     2.565     2.504
    63   1 H        0.926     0.036     2.499     2.472
    64   1 H        0.926     0.036     2.502     2.474
    65   1 H        0.926     0.037     2.485     2.465
    66   1 H        0.925     0.050     2.324     2.384
    67   1 H        0.925     0.047     2.354     2.400
    68   1 H        0.925     0.044     2.400     2.423
    69   1 H        0.925     0.050     2.319     2.381
    70   1 H        0.925     0.042     2.418     2.432
    71   1 H        0.925     0.047     2.360     2.402
    72   1 H        0.926     0.035     2.514     2.480
    73   1 H        0.926     0.044     2.400     2.423
    74   1 H        0.924     0.106     1.730     2.057
    75   1 H        0.804     0.342     0.607     1.224
    76   1 H        0.926     0.037     2.492     2.468
    77   1 H        0.926     0.035     2.520     2.482
    78   1 H        0.925     0.048     2.344     2.394
    79   1 H        0.925     0.042     2.428     2.437
    80   1 H        0.925     0.049     2.334     2.389
    81   1 H        0.925     0.049     2.338     2.391
    82   1 H        0.925     0.050     2.319     2.382
    83   1 H        0.925     0.048     2.349     2.397
    84   1 H        0.925     0.036     2.509     2.477

Wiberg/Mayer (AO) data.
largest (>0.10) Wiberg bond orders for each atom

     #   Z sym  total        # sym  WBO       # sym  WBO       # sym  WBO
 ---------------------------------------------------------------------------
     1   6 C    3.991 --     2 C    1.571    10 C    1.286    49 H    0.967
     2   6 C    3.991 --     1 C    1.571     3 C    1.272    50 H    0.968
                             9 C    0.113
     3   6 C    3.990 --     4 C    1.284     2 C    1.272     8 C    1.253
     4   6 C    3.992 --     5 C    1.554     3 C    1.284    51 H    0.968
                             7 C    0.118
     5   6 C    3.990 --     4 C    1.554     6 C    1.323    52 H    0.971
     6   6 C    3.992 --     7 C    1.555     5 C    1.323    53 H    0.971
     7   6 C    3.990 --     6 C    1.555     8 C    1.281    54 H    0.968
                             4 C    0.118
     8   6 C    3.990 --     7 C    1.281     9 C    1.276     3 C    1.253
     9   6 C    3.990 --    10 C    1.535     8 C    1.276    55 H    0.963
                             2 C    0.113
    10   6 C    3.986 --     9 C    1.535     1 C    1.286    11 C    0.989
    11   6 C    3.962 --    10 C    0.989    38 N    0.969    56 H    0.947
                            12 C    0.939
    12   6 C    3.963 --    13 C    0.999    23 N    0.963    57 H    0.954
                            11 C    0.939
    13   6 C    3.986 --    14 C    1.520    22 C    1.294    12 C    0.999
    14   6 C    3.990 --    13 C    1.520    15 C    1.285    58 H    0.965
                            21 C    0.114
    15   6 C    3.990 --    14 C    1.285    16 C    1.278    20 C    1.249
    16   6 C    3.989 --    17 C    1.558    15 C    1.278    59 H    0.968
                            19 C    0.118
    17   6 C    3.992 --    16 C    1.558    18 C    1.320    60 H    0.971
    18   6 C    3.989 --    19 C    1.556    17 C    1.320    61 H    0.971
    19   6 C    3.992 --    18 C    1.556    20 C    1.282    62 H    0.968
                            16 C    0.118
    20   6 C    3.990 --    19 C    1.282    21 C    1.277    15 C    1.249
    21   6 C    3.991 --    22 C    1.561    20 C    1.277    63 H    0.967
                            14 C    0.114
    22   6 C    3.990 --    21 C    1.561    13 C    1.294    64 H    0.967
    23   7 N    3.459 --    24 C    1.198    34 C    0.989    12 C    0.963
                            33 O    0.184
    24   6 C    3.941 --    33 O    1.667    23 N    1.198    25 C    0.988
    25   6 C    3.987 --    32 C    1.395    26 C    1.391    24 C    0.988
                            29 C    0.102
    26   6 C    3.990 --    27 C    1.429    25 C    1.391    65 H    0.966
                            31 C    0.102
    27   6 C    3.989 --    26 C    1.429    29 C    1.367    28 C    1.029
                            32 C    0.102
    28   6 C    3.996 --    27 C    1.029    68 H    0.985    66 H    0.970
                            67 H    0.969
    29   6 C    3.988 --    31 C    1.417    27 C    1.367    30 C    1.030
                            25 C    0.102
    30   6 C    3.996 --    29 C    1.030    70 H    0.985    69 H    0.969
                            71 H    0.969
    31   6 C    3.991 --    32 C    1.445    29 C    1.417    72 H    0.967
                            26 C    0.102
    32   6 C    3.990 --    31 C    1.445    25 C    1.395    73 H    0.969
                            27 C    0.102
    33   8 O    1.997 --    24 C    1.667    23 N    0.184
    34   6 C    3.965 --    23 N    0.989    38 N    0.978    74 H    0.923
                            35 C    0.917
    35   6 C    3.916 --    37 O    1.783    36 O    1.150    34 C    0.917
    36   8 O    2.216 --    35 C    1.150    75 H    0.857    37 O    0.181
    37   8 O    2.059 --    35 C    1.783    36 O    0.181
    38   7 N    3.461 --    39 C    1.194    34 C    0.978    11 C    0.969
                            48 O    0.187
    39   6 C    3.941 --    48 O    1.696    38 N    1.194    40 C    0.966
    40   6 C    3.987 --    41 C    1.406    47 C    1.397    39 C    0.966
                            43 C    0.104
    41   6 C    3.991 --    42 C    1.438    40 C    1.406    76 H    0.970
                            45 C    0.105
    42   6 C    3.991 --    41 C    1.438    43 C    1.421    77 H    0.967
                            47 C    0.104
    43   6 C    3.989 --    42 C    1.421    45 C    1.369    44 C    1.030
                            40 C    0.104
    44   6 C    3.996 --    43 C    1.030    79 H    0.985    80 H    0.970
                            78 H    0.969
    45   6 C    3.989 --    47 C    1.424    43 C    1.369    46 C    1.030
                            41 C    0.105
    46   6 C    3.995 --    45 C    1.030    81 H    0.985    82 H    0.969
                            83 H    0.969
    47   6 C    3.990 --    45 C    1.424    40 C    1.397    84 H    0.965
                            42 C    0.104
    48   8 O    2.016 --    39 C    1.696    38 N    0.187
    49   1 H    0.999 --     1 C    0.967
    50   1 H    0.998 --     2 C    0.968
    51   1 H    0.998 --     4 C    0.968
    52   1 H    0.999 --     5 C    0.971
    53   1 H    0.999 --     6 C    0.971
    54   1 H    0.999 --     7 C    0.968
    55   1 H    0.998 --     9 C    0.963
    56   1 H    0.993 --    11 C    0.947
    57   1 H    0.996 --    12 C    0.954
    58   1 H    0.998 --    14 C    0.965
    59   1 H    0.998 --    16 C    0.968
    60   1 H    0.998 --    17 C    0.971
    61   1 H    0.998 --    18 C    0.971
    62   1 H    0.999 --    19 C    0.968
    63   1 H    0.998 --    21 C    0.967
    64   1 H    0.998 --    22 C    0.967
    65   1 H    0.998 --    26 C    0.966
    66   1 H    0.997 --    28 C    0.970
    67   1 H    0.998 --    28 C    0.969
    68   1 H    0.998 --    28 C    0.985
    69   1 H    0.997 --    30 C    0.969
    70   1 H    0.998 --    30 C    0.985
    71   1 H    0.997 --    30 C    0.969
    72   1 H    0.998 --    31 C    0.967
    73   1 H    0.997 --    32 C    0.969
    74   1 H    0.988 --    34 C    0.923
    75   1 H    0.883 --    36 O    0.857
    76   1 H    0.998 --    41 C    0.970
    77   1 H    0.998 --    42 C    0.967
    78   1 H    0.997 --    44 C    0.969
    79   1 H    0.998 --    44 C    0.985
    80   1 H    0.997 --    44 C    0.970
    81   1 H    0.997 --    46 C    0.985
    82   1 H    0.997 --    46 C    0.969
    83   1 H    0.998 --    46 C    0.969
    84   1 H    0.998 --    47 C    0.965
 ---------------------------------------------------------------------------

molecular dipole:
                 x           y           z       tot (Debye)
 q only:        0.801       0.600       0.646
   full:        0.724       0.525       0.813       3.071

           -------------------------------------------------
          | TOTAL ENERGY             -130.492696337671 Eh   |
          | GRADIENT NORM               0.000802852252 Eh/Î± |
          | HOMO-LUMO GAP               3.003410737891 eV   |
           -------------------------------------------------

 * finished run on 2022/03/16 at 23:02:32.560
