   * xtb version 6.3.3 (4ae9cef) compiled by 'conda@95abc7406d43' on 2020-10-14
          program call               : xtb acid_9.xyz --opt --chrg 0 --uhf 0 --gfn 2
          number of atoms            :                    66
          number of electrons        :                   218
          charge                     :                     0
          spin                       :                   0.0

   ID    Z sym.   atoms
    1    6 C      1-22, 24-28, 32, 33, 37-41
    2    7 N      23, 36
    3   17 Cl     29, 42
    4    8 O      30, 31, 34, 35, 43, 44
    5    1 H      45-66

          :  Hamiltonian                  GFN2-xTB          :
 * total energy  :  -123.3835503 Eh     change       -0.4040174E-08 Eh
 * total energy  :  -123.4037408 Eh     change       -0.2019049E-01 Eh
 * total energy  :  -123.4107038 Eh     change       -0.6963001E-02 Eh
 * total energy  :  -123.4128074 Eh     change       -0.2103600E-02 Eh
 * total energy  :  -123.4139716 Eh     change       -0.1164223E-02 Eh
 * total energy  :  -123.4144396 Eh     change       -0.4680265E-03 Eh
 * total energy  :  -123.4148444 Eh     change       -0.4047918E-03 Eh
 * total energy  :  -123.4152548 Eh     change       -0.4103349E-03 Eh
 * total energy  :  -123.4156949 Eh     change       -0.4400951E-03 Eh
 * total energy  :  -123.4161539 Eh     change       -0.4590565E-03 Eh
 * total energy  :  -123.4270106 Eh     change       -0.8016027E-05 Eh
 * total energy  :  -123.4270184 Eh     change       -0.7730530E-05 Eh
 * total energy  :  -123.4270250 Eh     change       -0.6627742E-05 Eh
 * total energy  :  -123.4270310 Eh     change       -0.6034635E-05 Eh
 * total energy  :  -123.4270374 Eh     change       -0.6336069E-05 Eh
 * total energy  :  -123.4270441 Eh     change       -0.6757900E-05 Eh
 * total energy  :  -123.4270506 Eh     change       -0.6426913E-05 Eh
 * total energy  :  -123.4270562 Eh     change       -0.5645897E-05 Eh
 * total energy  :  -123.4270609 Eh     change       -0.4732844E-05 Eh
   *** GEOMETRY OPTIMIZATION CONVERGED AFTER 81 ITERATIONS ***

 final structure:
================
66
 xtb: 6.3.3 (4ae9cef)
C         1.42920660370669    5.09534186532131    0.11110067381220
C         0.51890716096554    5.33211971512552    1.10030813777166
C        -0.07239057117971    4.25336781990617    1.77114794791601
C         0.23376247984520    2.96615039413594    1.42849883622787
C         1.14358006934194    2.67958090565419    0.38656593524196
C         1.76723637084849    3.77890773788495   -0.26675122371947
C         2.70796124146217    3.54359977461299   -1.29039893588883
C         3.01583741920404    2.26922009263937   -1.66760402622661
C         2.37472114419217    1.18190269795564   -1.05954083948087
C         1.45810120192414    1.36452539479633   -0.05599583652977
C         0.70737062606499    0.17934564991361    0.50398387843017
C        -0.60185652415935   -0.06249866400496   -0.28363986254488
C        -1.79526416199638    0.47675053654255    0.46337733944735
C        -2.29033711552355   -0.25112722405847    1.51698562555217
C        -3.36079607096264    0.21467523244710    2.28836135964015
C        -3.91503347330118    1.43232213967030    2.01764676502426
C        -3.41890740374463    2.22768176153537    0.96513195433756
C        -2.34771464082773    1.74954899079374    0.15959556118360
C        -1.87642976215105    2.58925111614395   -0.87386489263514
C        -2.41798807350610    3.82540468220434   -1.08702302203831
C        -3.46915209087894    4.29374528950362   -0.28676411505314
C        -3.96113721543057    3.50558194035315    0.71285081088121
N        -0.65410873794020   -1.51301848847784   -0.43287963985213
C        -1.75960680693652   -2.08930502021835   -0.98611998071528
C        -1.81288692567856   -3.55702478067159   -1.07258379306436
C        -2.78017954611090   -4.30089302011140   -1.69975421969135
C        -2.43006158310225   -5.65653702182638   -1.52788850100035
C        -1.27407842006499   -5.63947112816658   -0.80189829275964
Cl       -0.28958881586906   -6.90150980281395   -0.23481932146812
O        -0.89052335241238   -4.38733297879430   -0.51628473071141
O        -2.70328560266107   -1.42048686808109   -1.36277607583643
C         0.66993905336979   -2.07236809597026   -0.33152933583207
C         1.31852070673555   -2.32093263987570   -1.71700461461290
O         0.51287192517876   -2.98370167078976   -2.53839605067081
O         2.42435853353466   -1.96575624226989   -2.01031694733210
N         1.41587905974709   -1.09014800810164    0.40473579788893
C         2.58837695684459   -1.25045593897908    1.07411318271303
C         3.28065778919543   -2.54539445346152    0.97939278177524
C         4.51456940701693   -2.84607135186132    1.49870977195571
C         4.78755207949632   -4.18789223719090    1.15941362047319
C         3.69611026515892   -4.60837631992831    0.45626701074938
Cl        3.32963591625055   -6.10587054489013   -0.25427140020795
O         2.77867140788862   -3.63778719340426    0.33989658978141
O         3.06338998326575   -0.34811285802363    1.73747276981884
H         1.90885356473616    5.91583314744060   -0.40381367353162
H         0.25897344120111    6.34271886737577    1.37866343863512
H        -0.77791809236842    4.44397628984110    2.56629273904879
H        -0.23642786037549    2.16414091787476    1.97413760335930
H         3.17789341828090    4.39130144819980   -1.76824856782636
H         3.74137062564744    2.08290531095498   -2.44525351973840
H         2.62297903832630    0.18680863271251   -1.39383035563134
H         0.49672760716026    0.34725509167763    1.56625134317430
H        -0.53168137288625    0.38964534740523   -1.27958462796386
H        -1.85200861222540   -1.20955985841859    1.75732501308431
H        -3.73348435559887   -0.39377685860708    3.09894934586306
H        -4.73588111149382    1.80908716358844    2.61071870126678
H        -1.06519600237359    2.26772490856319   -1.50746693583732
H        -2.03302766605924    4.45212404422597   -1.87780406853680
H        -3.88378908603075    5.27415355299191   -0.46903193476197
H        -4.77419644789264    3.85023133970507    1.33611108654187
H        -3.63068338410818   -3.90646748113887   -2.21545804606519
H        -2.95062277594906   -6.51952889963611   -1.88532339145879
H         0.64586389475651   -3.03680838047242    0.19121934900791
H         0.94127464586210   -3.13472626623009   -3.39789874587113
H         5.13601254101309   -2.17293211706761    2.05158166881994
H         5.65907848358350   -4.76105838616609    1.39501388563446

          :  Hamiltonian                  GFN2-xTB          :
         :: total energy            -123.427060934373 Eh    ::
         :: gradient norm              0.000280677153 Eh/a0 ::
         :: HOMO-LUMO gap              2.572508910543 eV    ::
         :: SCC energy              -125.129597623533 Eh    ::
         :: -> dispersion             -0.105276986021 Eh    ::
         :: repulsion energy           1.699716872030 Eh    ::

    * Orbital Energies and Occupations

         #    Occupation            Energy/Eh            Energy/eV
      -------------------------------------------------------------
         1        2.0000           -1.0819983             -29.4427
       ...           ...                  ...                  ...
        97        2.0000           -0.4206625             -11.4468
        98        2.0000           -0.4196167             -11.4184
        99        2.0000           -0.4162748             -11.3274
       100        2.0000           -0.4157648             -11.3135
       101        2.0000           -0.4117911             -11.2054
       102        2.0000           -0.4092648             -11.1367
       103        2.0000           -0.4088046             -11.1241
       104        2.0000           -0.4038406             -10.9891
       105        2.0000           -0.4023072             -10.9473
       106        2.0000           -0.3991325             -10.8609
       107        2.0000           -0.3987227             -10.8498
       108        2.0000           -0.3788400             -10.3088
       109        2.0000           -0.3754034             -10.2152 (HOMO)
       110                         -0.2808654              -7.6427 (LUMO)
       111                         -0.2750695              -7.4850
       112                         -0.2679352              -7.2909
       113                         -0.2630003              -7.1566
       114                         -0.2588179              -7.0428
       115                         -0.2302253              -6.2648
       116                         -0.2271227              -6.1803
       117                         -0.2140021              -5.8233
       118                         -0.2100534              -5.7158
       119                         -0.1944587              -5.2915
       120                         -0.1885953              -5.1319
       ...                                ...                  ...
       208                          0.6953613              18.9217
      -------------------------------------------------------------
                  HL-Gap            0.0945380 Eh            2.5725 eV

     #   Z          covCN         q      C6AA      Î±(0)
     1   6 C        2.921    -0.034    28.854     8.809
     2   6 C        2.915    -0.029    28.730     8.789
     3   6 C        2.917    -0.028    28.707     8.786
     4   6 C        2.917    -0.033    28.825     8.804
     5   6 C        2.983     0.011    27.760     8.643
     6   6 C        2.989     0.016    27.649     8.626
     7   6 C        2.920    -0.036    28.896     8.815
     8   6 C        2.914    -0.028    28.709     8.786
     9   6 C        2.921    -0.036    28.892     8.815
    10   6 C        2.967     0.004    27.935     8.669
    11   6 C        3.826     0.043    19.834     6.337
    12   6 C        3.832     0.047    19.767     6.326
    13   6 C        2.968     0.009    27.811     8.650
    14   6 C        2.923    -0.032    28.795     8.800
    15   6 C        2.914    -0.029    28.720     8.788
    16   6 C        2.921    -0.035    28.860     8.810
    17   6 C        2.989     0.017    27.611     8.619
    18   6 C        2.983     0.015    27.666     8.628
    19   6 C        2.917    -0.031    28.762     8.794
    20   6 C        2.917    -0.028    28.688     8.783
    21   6 C        2.915    -0.028    28.707     8.786
    22   6 C        2.921    -0.033    28.833     8.806
    23   7 N        2.761    -0.110    23.407     7.186
    24   6 C        2.759     0.268    22.480     7.764
    25   6 C        3.105     0.083    26.016     8.358
    26   6 C        3.034    -0.043    29.037     8.839
    27   6 C        3.014    -0.072    29.781     8.952
    28   6 C        3.044     0.203    23.664     7.979
    29  17 Cl       0.920    -0.114   102.705    15.504
    30   8 O        1.741    -0.185    17.085     5.581
    31   8 O        0.860    -0.416    21.994     6.288
    32   6 C        3.757     0.083    19.246     6.255
    33   6 C        2.687     0.357    20.948     7.490
    34   8 O        1.659    -0.362    20.135     6.058
    35   8 O        0.856    -0.381    21.300     6.188
    36   7 N        2.762    -0.101    23.222     7.157
    37   6 C        2.760     0.266    22.508     7.769
    38   6 C        3.103     0.083    26.019     8.358
    39   6 C        3.035    -0.041    28.993     8.832
    40   6 C        3.013    -0.071    29.744     8.946
    41   6 C        3.044     0.204    23.639     7.974
    42  17 Cl       0.920    -0.118   102.814    15.512
    43   8 O        1.741    -0.195    17.247     5.608
    44   8 O        0.860    -0.418    22.044     6.295
    45   1 H        0.926     0.035     2.520     2.482
    46   1 H        0.926     0.033     2.547     2.496
    47   1 H        0.926     0.031     2.575     2.509
    48   1 H        0.926     0.027     2.629     2.535
    49   1 H        0.926     0.036     2.505     2.475
    50   1 H        0.926     0.037     2.489     2.467
    51   1 H        0.926     0.048     2.344     2.394
    52   1 H        0.924     0.067     2.117     2.275
    53   1 H        0.924     0.053     2.280     2.361
    54   1 H        0.926     0.028     2.620     2.531
    55   1 H        0.926     0.036     2.506     2.475
    56   1 H        0.926     0.038     2.480     2.463
    57   1 H        0.926     0.027     2.625     2.533
    58   1 H        0.926     0.033     2.547     2.496
    59   1 H        0.926     0.034     2.527     2.486
    60   1 H        0.926     0.036     2.504     2.475
    61   1 H        0.927     0.083     1.951     2.184
    62   1 H        0.927     0.073     2.057     2.243
    63   1 H        0.924     0.102     1.770     2.080
    64   1 H        0.804     0.346     0.598     1.214
    65   1 H        0.927     0.084     1.934     2.175
    66   1 H        0.927     0.073     2.058     2.243

Wiberg/Mayer (AO) data.
largest (>0.10) Wiberg bond orders for each atom

     #   Z sym  total        # sym  WBO       # sym  WBO       # sym  WBO
 ---------------------------------------------------------------------------
     1   6 C    3.991 --     2 C    1.556     6 C    1.280    45 H    0.968
                             4 C    0.118
     2   6 C    3.992 --     1 C    1.556     3 C    1.323    46 H    0.971
     3   6 C    3.992 --     4 C    1.553     2 C    1.323    47 H    0.971
     4   6 C    3.992 --     3 C    1.553     5 C    1.283    48 H    0.961
                             1 C    0.118
     5   6 C    3.988 --     4 C    1.283     6 C    1.253    10 C    1.250
     6   6 C    3.990 --     1 C    1.280     7 C    1.278     5 C    1.253
     7   6 C    3.990 --     8 C    1.556     6 C    1.278    49 H    0.968
                            10 C    0.114
     8   6 C    3.992 --     7 C    1.556     9 C    1.323    50 H    0.970
     9   6 C    3.989 --    10 C    1.529     8 C    1.323    51 H    0.961
    10   6 C    3.982 --     9 C    1.529     5 C    1.250    11 C    0.987
                             7 C    0.114
    11   6 C    3.957 --    10 C    0.987    36 N    0.958    12 C    0.949
                            52 H    0.945
    12   6 C    3.960 --    13 C    0.992    23 N    0.956    11 C    0.949
                            53 H    0.947
    13   6 C    3.983 --    14 C    1.520    18 C    1.254    12 C    0.992
                            16 C    0.115
    14   6 C    3.991 --    13 C    1.520    15 C    1.330    54 H    0.968
    15   6 C    3.992 --    16 C    1.550    14 C    1.330    55 H    0.970
    16   6 C    3.990 --    15 C    1.550    17 C    1.282    56 H    0.968
                            13 C    0.115
    17   6 C    3.990 --    16 C    1.282    22 C    1.278    18 C    1.251
    18   6 C    3.989 --    19 C    1.281    13 C    1.254    17 C    1.251
    19   6 C    3.992 --    20 C    1.556    18 C    1.281    57 H    0.961
                            22 C    0.118
    20   6 C    3.992 --    19 C    1.556    21 C    1.321    58 H    0.971
    21   6 C    3.992 --    22 C    1.558    20 C    1.321    59 H    0.971
    22   6 C    3.991 --    21 C    1.558    17 C    1.278    60 H    0.968
                            19 C    0.118
    23   7 N    3.449 --    24 C    1.189    32 C    0.987    12 C    0.956
                            31 O    0.184
    24   6 C    3.962 --    31 O    1.657    23 N    1.189    25 C    1.023
    25   6 C    3.893 --    26 C    1.534    30 O    1.075    24 C    1.023
                            28 C    0.126
    26   6 C    3.982 --    25 C    1.534    27 C    1.312    61 H    0.969
    27   6 C    3.974 --    28 C    1.527    26 C    1.312    62 H    0.970
    28   6 C    3.866 --    27 C    1.527    30 O    1.131    29 Cl   1.011
                            25 C    0.126
    29  17 Cl   1.167 --    28 C    1.011
    30   8 O    2.434 --    28 C    1.131    25 C    1.075
    31   8 O    2.009 --    24 C    1.657    23 N    0.184
    32   6 C    3.969 --    36 N    0.998    23 N    0.987    63 H    0.919
                            33 C    0.905
    33   6 C    3.917 --    35 O    1.782    34 O    1.159    32 C    0.905
    34   8 O    2.221 --    33 C    1.159    64 H    0.853    35 O    0.181
    35   8 O    2.071 --    33 C    1.782    34 O    0.181
    36   7 N    3.472 --    37 C    1.199    32 C    0.998    11 C    0.958
                            44 O    0.190
    37   6 C    3.962 --    44 O    1.651    36 N    1.199    38 C    1.023
    38   6 C    3.891 --    39 C    1.536    43 O    1.071    37 C    1.023
                            41 C    0.127
    39   6 C    3.981 --    38 C    1.536    40 C    1.311    65 H    0.968
    40   6 C    3.975 --    41 C    1.529    39 C    1.311    66 H    0.970
    41   6 C    3.863 --    40 C    1.529    43 O    1.129    42 Cl   1.008
                            38 C    0.127
    42  17 Cl   1.162 --    41 C    1.008
    43   8 O    2.425 --    41 C    1.129    38 C    1.071
    44   8 O    2.002 --    37 C    1.651    36 N    0.190
    45   1 H    0.998 --     1 C    0.968
    46   1 H    0.998 --     2 C    0.971
    47   1 H    0.999 --     3 C    0.971
    48   1 H    0.999 --     4 C    0.961
    49   1 H    0.998 --     7 C    0.968
    50   1 H    0.998 --     8 C    0.970
    51   1 H    0.997 --     9 C    0.961
    52   1 H    0.995 --    11 C    0.945
    53   1 H    0.996 --    12 C    0.947
    54   1 H    0.999 --    14 C    0.968
    55   1 H    0.998 --    15 C    0.970
    56   1 H    0.998 --    16 C    0.968
    57   1 H    0.999 --    19 C    0.961
    58   1 H    0.998 --    20 C    0.971
    59   1 H    0.998 --    21 C    0.971
    60   1 H    0.998 --    22 C    0.968
    61   1 H    0.993 --    26 C    0.969
    62   1 H    0.994 --    27 C    0.970
    63   1 H    0.989 --    32 C    0.919
    64   1 H    0.880 --    34 O    0.853
    65   1 H    0.993 --    39 C    0.968
    66   1 H    0.994 --    40 C    0.970
 ---------------------------------------------------------------------------

molecular dipole:
                 x           y           z       tot (Debye)
 q only:       -0.564       0.063      -0.351
   full:       -0.331      -0.869      -0.605       2.820

           -------------------------------------------------
          | TOTAL ENERGY             -123.427060934373 Eh   |
          | GRADIENT NORM               0.000280677153 Eh/Î± |
          | HOMO-LUMO GAP               2.572508910543 eV   |
           -------------------------------------------------

 * finished run on 2022/03/17 at 02:13:07.837
