   * xtb version 6.3.3 (4ae9cef) compiled by 'conda@95abc7406d43' on 2020-10-14
          program call               : xtb acid_454.xyz --opt --chrg 0 --uhf 0 --gfn 2
          number of atoms            :                    62
          number of electrons        :                   206
          charge                     :                     0
          spin                       :                   0.0

   ID    Z sym.   atoms
    1    6 C      1, 3-16, 18, 20-22, 24, 25, 28, 29, 33-35, 37, 38
    2    8 O      2, 17, 27, 30, 31, 40
    3    7 N      19, 32
    4   35 Br     23, 36
    5   16 S      26, 39
    6    1 H      41-62

          :  Hamiltonian                  GFN2-xTB          :
 * total energy  :  -116.0803079 Eh     change       -0.1048178E-08 Eh
 * total energy  :  -116.0950586 Eh     change       -0.1475067E-01 Eh
 * total energy  :  -116.1007198 Eh     change       -0.5661206E-02 Eh
 * total energy  :  -116.1023261 Eh     change       -0.1606328E-02 Eh
 * total energy  :  -116.1030702 Eh     change       -0.7440540E-03 Eh
 * total energy  :  -116.1035617 Eh     change       -0.4915442E-03 Eh
 * total energy  :  -116.1040340 Eh     change       -0.4723196E-03 Eh
 * total energy  :  -116.1044999 Eh     change       -0.4659045E-03 Eh
 * total energy  :  -116.1049843 Eh     change       -0.4843670E-03 Eh
 * total energy  :  -116.1054676 Eh     change       -0.4832589E-03 Eh
 * total energy  :  -116.1138057 Eh     change       -0.1151475E-04 Eh
 * total energy  :  -116.1138202 Eh     change       -0.1454519E-04 Eh
 * total energy  :  -116.1138423 Eh     change       -0.2202819E-04 Eh
 * total energy  :  -116.1138704 Eh     change       -0.2811920E-04 Eh
 * total energy  :  -116.1138946 Eh     change       -0.2418314E-04 Eh
 * total energy  :  -116.1139132 Eh     change       -0.1863497E-04 Eh
 * total energy  :  -116.1139235 Eh     change       -0.1031898E-04 Eh
 * total energy  :  -116.1139300 Eh     change       -0.6439809E-05 Eh
 * total energy  :  -116.1139323 Eh     change       -0.2326905E-05 Eh
   *** GEOMETRY OPTIMIZATION CONVERGED AFTER 94 ITERATIONS ***

 final structure:
================
62
 xtb: 6.3.3 (4ae9cef)
C        -1.72465748357516   -2.63968315315547    0.05234142155670
O        -0.80265235837115   -3.07138809217717    0.95693638816752
C        -0.73228544556938   -4.44386358873610    1.25088489132138
C        -2.63957037415892   -3.45736987447359   -0.59722569784659
C        -3.54063638428847   -2.91521274099874   -1.49937674589369
C        -3.53988341502810   -1.56019209719994   -1.76314743625692
C        -2.62426513565828   -0.74145202925410   -1.12245792489784
C        -1.72003561406651   -1.26249496529168   -0.21704926181144
C        -0.68585972915293   -0.41755666504866    0.47806568577027
C         0.66160366874874   -0.43701616891937   -0.27435184739767
C         1.63916662781845   -1.40380428332636    0.33011486856703
C         2.23235299223613   -1.13819493772869    1.55113086458810
C         3.11977436810476   -2.03546413331019    2.11919165064342
C         3.40880231459433   -3.21295366058076    1.45765063798746
C         2.81527865299540   -3.50084992624878    0.23999783635089
C         1.92298260210109   -2.60424046996736   -0.33466940935353
O         1.27009385861872   -2.81512488837508   -1.51210852726378
C         1.58005704161182   -3.96602844122101   -2.25760663974203
N         1.11838881017623    0.94753779163001   -0.17752670893919
C         2.32444825538753    1.30376987832488   -0.70751945812286
C         2.67021594043604    2.74213717654928   -0.56662480548154
C         2.76010265845136    3.49877112024852    0.56969168448779
Br        2.33405868343801    2.85404395254845    2.29653746386538
C         3.23719562807803    4.80963423252225    0.35120694936438
C         3.51122734718008    5.02243479551986   -0.96146911906671
S         3.21000000583068    3.63841671572486   -1.93501282422214
O         3.09699247157666    0.50599684391868   -1.18598130748217
C        -0.02760296896311    1.81203838590918   -0.08321710986189
C        -0.44607025939654    2.29414310298477   -1.49600851276832
O        -1.72723316206324    2.63049764197457   -1.54806474469819
O         0.31891240180534    2.38563658513693   -2.41262656866965
N        -1.02542445037531    0.99726512708049    0.55207344520927
C        -2.09709120986477    1.40246168336859    1.27280721224199
C        -2.34279966932368    2.87158883501301    1.32421101178835
C        -3.44104964425722    3.51414617234370    0.83114855205243
Br       -4.74044175302367    2.65886986498448   -0.22891788303727
C        -3.48364894007138    4.89674501523270    1.12803304308129
C        -2.41698693136376    5.28167833380201    1.86935068622918
S        -1.34570482480384    3.97756329091649    2.20582474744103
O        -2.84264974132366    0.62549263990727    1.82606230264234
H        -0.52484339096025   -5.03678524009048    0.35426513031551
H        -1.65357520615035   -4.80435016629775    1.71952436888588
H         0.09622411612916   -4.54832415280723    1.95011033046537
H        -2.66453934842707   -4.51803122898229   -0.40311801054921
H        -4.24853447351596   -3.56421693761387   -1.99310008409340
H        -4.24767957891047   -1.13634145740901   -2.45833679369839
H        -2.63259859007523    0.31916810751661   -1.32039233492984
H        -0.55793054493201   -0.79944923070703    1.49839256945324
H         0.50470342339431   -0.70094268872979   -1.32819663659086
H         2.00135915660043   -0.21448625474360    2.06052401521279
H         3.57984824159709   -1.81362096325796    3.06961955394290
H         4.10099556793242   -3.92204467482855    1.88752428508769
H         3.05787568999399   -4.42893617385065   -0.25332425810397
H         2.63707702546217   -3.98977603425593   -2.53970296814654
H         0.96785714394380   -3.90627863104634   -3.15645912915239
H         1.32829630264544   -4.88186949153731   -1.71186673038457
H         3.36419709475497    5.53159021439498    1.13677458613793
H         3.87799944647017    5.92063731778875   -1.41617687636946
H         0.18188734405615    2.71693828726155    0.50463673253037
H        -1.98893742938512    2.92666366149439   -2.43687400077613
H        -4.27624749474148    5.54561518810664    0.80417230243891
H        -2.18853633037872    6.25685847997141    2.24970913775199

          :  Hamiltonian                  GFN2-xTB          :
         :: total energy            -116.113932299776 Eh    ::
         :: gradient norm              0.000511441383 Eh/a0 ::
         :: HOMO-LUMO gap              2.553698748142 eV    ::
         :: SCC energy              -117.548253295901 Eh    ::
         :: -> dispersion             -0.102689387117 Eh    ::
         :: repulsion energy           1.430780095659 Eh    ::

    * Orbital Energies and Occupations

         #    Occupation            Energy/Eh            Energy/eV
      -------------------------------------------------------------
         1        2.0000           -0.8493011             -23.1107
       ...           ...                  ...                  ...
        91        2.0000           -0.4228467             -11.5062
        92        2.0000           -0.4212884             -11.4638
        93        2.0000           -0.4184057             -11.3854
        94        2.0000           -0.4150995             -11.2954
        95        2.0000           -0.4125651             -11.2265
        96        2.0000           -0.4093901             -11.1401
        97        2.0000           -0.4084851             -11.1154
        98        2.0000           -0.4048020             -11.0152
        99        2.0000           -0.4024606             -10.9515
       100        2.0000           -0.4007274             -10.9043
       101        2.0000           -0.3981947             -10.8354
       102        2.0000           -0.3825904             -10.4108
       103        2.0000           -0.3745373             -10.1917 (HOMO)
       104                         -0.2806906              -7.6380 (LUMO)
       105                         -0.2793760              -7.6022
       106                         -0.2741091              -7.4589
       107                         -0.2434731              -6.6252
       108                         -0.2374880              -6.4624
       109                         -0.2303221              -6.2674
       110                         -0.2279797              -6.2036
       111                         -0.2274250              -6.1885
       112                         -0.2215822              -6.0296
       113                         -0.2153075              -5.8588
       114                         -0.2117656              -5.7624
       ...                                ...                  ...
       202                          0.6733361              18.3224
      -------------------------------------------------------------
                  HL-Gap            0.0938467 Eh            2.5537 eV

     #   Z          covCN         q      C6AA      Î±(0)
     1   6 C        2.870     0.145    24.854     8.172
     2   8 O        1.705    -0.272    18.515     5.810
     3   6 C        3.644     0.040    20.231     6.465
     4   6 C        2.917    -0.064    29.591     8.920
     5   6 C        2.921    -0.031    28.763     8.795
     6   6 C        2.918    -0.039    28.970     8.826
     7   6 C        2.923    -0.030    28.748     8.793
     8   6 C        2.973    -0.011    28.287     8.724
     9   6 C        3.830     0.045    19.803     6.332
    10   6 C        3.837     0.050    19.715     6.317
    11   6 C        2.974    -0.003    28.105     8.696
    12   6 C        2.924    -0.031    28.768     8.796
    13   6 C        2.918    -0.039    28.962     8.825
    14   6 C        2.921    -0.031    28.780     8.797
    15   6 C        2.918    -0.064    29.603     8.922
    16   6 C        2.868     0.150    24.750     8.155
    17   8 O        1.705    -0.271    18.497     5.807
    18   6 C        3.644     0.041    20.227     6.465
    19   7 N        2.768    -0.117    23.554     7.208
    20   6 C        2.786     0.286    22.153     7.710
    21   6 C        3.042    -0.030    28.700     8.787
    22   6 C        3.136     0.057    26.495     8.425
    23  35 Br       1.025    -0.158   189.394    22.189
    24   6 C        3.144    -0.053    29.048     8.818
    25   6 C        2.951    -0.032    28.789     8.800
    26  16 S        2.341     0.083   137.711    19.751
    27   8 O        0.859    -0.398    21.644     6.238
    28   6 C        3.767     0.091    19.109     6.230
    29   6 C        2.687     0.349    21.080     7.514
    30   8 O        1.659    -0.357    20.026     6.041
    31   8 O        0.856    -0.381    21.313     6.190
    32   7 N        2.764    -0.104    23.279     7.166
    33   6 C        2.774     0.282    22.235     7.723
    34   6 C        3.050    -0.026    28.597     8.770
    35   6 C        3.134     0.075    26.112     8.364
    36  35 Br       1.036    -0.138   188.833    22.157
    37   6 C        3.149    -0.050    28.959     8.803
    38   6 C        2.947    -0.023    28.585     8.769
    39  16 S        2.332     0.014   140.467    19.948
    40   8 O        0.860    -0.400    21.681     6.243
    41   1 H        0.924     0.038     2.472     2.459
    42   1 H        0.924     0.045     2.383     2.414
    43   1 H        0.925     0.062     2.174     2.306
    44   1 H        0.926     0.039     2.456     2.451
    45   1 H        0.926     0.039     2.459     2.452
    46   1 H        0.926     0.041     2.436     2.441
    47   1 H        0.926     0.037     2.490     2.467
    48   1 H        0.924     0.083     1.951     2.184
    49   1 H        0.924     0.067     2.121     2.278
    50   1 H        0.926     0.045     2.385     2.415
    51   1 H        0.926     0.040     2.446     2.446
    52   1 H        0.926     0.037     2.483     2.464
    53   1 H        0.926     0.038     2.471     2.458
    54   1 H        0.924     0.046     2.367     2.406
    55   1 H        0.925     0.061     2.184     2.311
    56   1 H        0.924     0.036     2.504     2.475
    57   1 H        0.926     0.064     2.156     2.296
    58   1 H        0.926     0.067     2.116     2.275
    59   1 H        0.923     0.079     1.994     2.208
    60   1 H        0.804     0.351     0.587     1.203
    61   1 H        0.926     0.066     2.135     2.285
    62   1 H        0.926     0.065     2.145     2.290

Wiberg/Mayer (AO) data.
largest (>0.10) Wiberg bond orders for each atom

     #   Z sym  total        # sym  WBO       # sym  WBO       # sym  WBO
 ---------------------------------------------------------------------------
     1   6 C    3.934 --     4 C    1.386     8 C    1.317     2 O    1.062
     2   8 O    2.235 --     1 C    1.062     3 C    0.983
     3   6 C    3.945 --     2 O    0.983    43 H    0.979    42 H    0.976
                            41 H    0.976
     4   6 C    3.987 --     5 C    1.430     1 C    1.386    44 H    0.966
                             7 C    0.101
     5   6 C    3.991 --     6 C    1.449     4 C    1.430    45 H    0.971
                             8 C    0.106
     6   6 C    3.991 --     5 C    1.449     7 C    1.418    46 H    0.971
     7   6 C    3.990 --     8 C    1.446     6 C    1.418    47 H    0.965
                             4 C    0.101
     8   6 C    3.982 --     7 C    1.446     1 C    1.317     9 C    0.991
                             5 C    0.106
     9   6 C    3.956 --     8 C    0.991    32 N    0.954    10 C    0.950
                            48 H    0.946
    10   6 C    3.958 --    11 C    0.995     9 C    0.950    49 H    0.950
                            19 N    0.950
    11   6 C    3.982 --    12 C    1.438    16 C    1.324    10 C    0.995
                            14 C    0.107
    12   6 C    3.989 --    11 C    1.438    13 C    1.425    50 H    0.966
                            15 C    0.102
    13   6 C    3.991 --    14 C    1.444    12 C    1.425    51 H    0.971
    14   6 C    3.990 --    13 C    1.444    15 C    1.434    52 H    0.971
                            11 C    0.107
    15   6 C    3.987 --    14 C    1.434    16 C    1.381    53 H    0.966
                            12 C    0.102
    16   6 C    3.934 --    15 C    1.381    11 C    1.324    17 O    1.061
    17   8 O    2.233 --    16 C    1.061    18 C    0.984
    18   6 C    3.945 --    17 O    0.984    55 H    0.980    54 H    0.976
                            56 H    0.976
    19   7 N    3.439 --    20 C    1.183    28 C    0.994    10 C    0.950
                            27 O    0.184
    20   6 C    3.954 --    27 O    1.705    19 N    1.183    21 C    0.984
    21   6 C    3.949 --    22 C    1.523    26 S    1.179    20 C    0.984
                            25 C    0.104
    22   6 C    3.928 --    21 C    1.523    24 C    1.261    23 Br   0.982
    23  35 Br   1.143 --    22 C    0.982
    24   6 C    3.983 --    25 C    1.610    22 C    1.261    57 H    0.963
    25   6 C    3.952 --    24 C    1.610    26 S    1.221    58 H    0.967
                            21 C    0.104
    26  16 S    2.696 --    25 C    1.221    21 C    1.179
    27   8 O    2.047 --    20 C    1.705    19 N    0.184
    28   6 C    3.975 --    32 N    0.995    19 N    0.994    59 H    0.921
                            29 C    0.902
    29   6 C    3.919 --    31 O    1.783    30 O    1.163    28 C    0.902
    30   8 O    2.230 --    29 C    1.163    60 H    0.850    31 O    0.183
    31   8 O    2.074 --    29 C    1.783    30 O    0.183
    32   7 N    3.481 --    33 C    1.216    28 C    0.995     9 C    0.954
                            40 O    0.198
    33   6 C    3.955 --    40 O    1.690    32 N    1.216    34 C    0.969
    34   6 C    3.944 --    35 C    1.548    39 S    1.156    33 C    0.969
                            38 C    0.111
    35   6 C    3.937 --    34 C    1.548    37 C    1.247    36 Br   0.992
    36  35 Br   1.144 --    35 C    0.992
    37   6 C    3.984 --    38 C    1.632    35 C    1.247    61 H    0.962
    38   6 C    3.949 --    37 C    1.632    39 S    1.193    62 H    0.967
                            34 C    0.111
    39  16 S    2.659 --    38 C    1.193    34 C    1.156
    40   8 O    2.045 --    33 C    1.690    32 N    0.198
    41   1 H    0.998 --     3 C    0.976
    42   1 H    0.998 --     3 C    0.976
    43   1 H    0.996 --     3 C    0.979
    44   1 H    0.998 --     4 C    0.966
    45   1 H    0.998 --     5 C    0.971
    46   1 H    0.998 --     6 C    0.971
    47   1 H    0.998 --     7 C    0.965
    48   1 H    0.993 --     9 C    0.946
    49   1 H    0.995 --    10 C    0.950
    50   1 H    0.997 --    12 C    0.966
    51   1 H    0.998 --    13 C    0.971
    52   1 H    0.998 --    14 C    0.971
    53   1 H    0.998 --    15 C    0.966
    54   1 H    0.998 --    18 C    0.976
    55   1 H    0.996 --    18 C    0.980
    56   1 H    0.999 --    18 C    0.976
    57   1 H    0.995 --    24 C    0.963
    58   1 H    0.995 --    25 C    0.967
    59   1 H    0.993 --    28 C    0.921
    60   1 H    0.876 --    30 O    0.850
    61   1 H    0.995 --    37 C    0.962
    62   1 H    0.995 --    38 C    0.967
 ---------------------------------------------------------------------------

molecular dipole:
                 x           y           z       tot (Debye)
 q only:        0.170       0.357      -0.616
   full:        0.355       0.592      -0.655       2.419

           -------------------------------------------------
          | TOTAL ENERGY             -116.113932299776 Eh   |
          | GRADIENT NORM               0.000511441383 Eh/Î± |
          | HOMO-LUMO GAP               2.553698748142 eV   |
           -------------------------------------------------

 * finished run on 2022/03/17 at 01:24:46.208
