   * xtb version 6.3.3 (4ae9cef) compiled by 'conda@95abc7406d43' on 2020-10-14
          program call               : xtb alk_6.xyz --opt --chrg 0 --uhf 0 --gfn 2
          number of atoms            :                    26
          number of electrons        :                    94
          charge                     :                     0
          spin                       :                   0.0

   ID    Z sym.   atoms
    1    8 O      1, 3, 17
    2   16 S      2
    3    6 C      4-13
    4    9 F      14-16
    5    1 H      18-26

          :  Hamiltonian                  GFN2-xTB          :
 * total energy  :   -55.5917458 Eh     change       -0.4524594E-09 Eh
 * total energy  :   -55.6019326 Eh     change       -0.1018680E-01 Eh
 * total energy  :   -55.6057291 Eh     change       -0.3796543E-02 Eh
 * total energy  :   -55.6060477 Eh     change       -0.3186362E-03 Eh
 * total energy  :   -55.6062495 Eh     change       -0.2017777E-03 Eh
 * total energy  :   -55.6062965 Eh     change       -0.4694103E-04 Eh
 * total energy  :   -55.6063205 Eh     change       -0.2408426E-04 Eh
 * total energy  :   -55.6063342 Eh     change       -0.1367112E-04 Eh
 * total energy  :   -55.6063422 Eh     change       -0.8032539E-05 Eh
 * total energy  :   -55.6063496 Eh     change       -0.7309923E-05 Eh
 * total energy  :   -55.6063504 Eh     change       -0.8386632E-06 Eh
 * total energy  :   -55.6063535 Eh     change       -0.3103834E-05 Eh
   *** GEOMETRY OPTIMIZATION CONVERGED AFTER 12 ITERATIONS ***

 final structure:
================
26
 xtb: 6.3.3 (4ae9cef)
O        -3.59519414484890   -1.75397195677854   -0.73665318294653
S        -3.53960146374255   -0.70412056560734    0.21560524832725
O        -2.48498797949354    0.40597788038945   -0.18278816365105
C        -1.11515686480856    0.13141843984544   -0.20762283705219
C        -0.26852845322561    1.14966141411824   -0.62168238383333
C         1.09386196654435    0.92005550969983   -0.66151347215369
C         1.62311391313503   -0.31380425878794   -0.29929232879137
C         3.11188234917551   -0.53003379106550   -0.31274600594836
C         3.71895077117601    0.06496099621507    0.92583611607330
C         4.63958727991475    1.00934324910236    0.92422406256628
C         0.75571156372004   -1.31487914470674    0.11703280036811
C        -0.61259228685413   -1.10192459145491    0.16462291270695
C        -4.99785126343331    0.43327743180490   -0.08027181763009
F        -5.00980333958130    0.83767776652734   -1.34284463918999
F        -6.13499574898592   -0.20153287297908    0.17488375852015
F        -4.91753131049449    1.49650672747398    0.70755806185978
O        -3.49155121033003   -1.01577286391212    1.59862593516265
H        -0.68569261606417    2.10244838952423   -0.90456312868789
H         1.75655141067984    1.71127663416499   -0.97868603729816
H         3.55231662417356   -0.06517898241228   -1.19604990278060
H         3.32598291469154   -1.60103673799877   -0.33635666445329
H         3.33473441104434   -0.32947289741735    1.85704588952183
H         5.04765373220134    1.40879953714293    1.83676332220734
H         5.03379919222964    1.41813891204051    0.00799911508254
H         1.14740293102028   -2.27862834782556    0.40652126620872
H        -1.28806437784391   -1.87918587710314    0.48506607581184

          :  Hamiltonian                  GFN2-xTB          :
         :: total energy             -55.606353493390 Eh    ::
         :: gradient norm              0.000706084063 Eh/a0 ::
         :: HOMO-LUMO gap              4.358912879145 eV    ::
         :: SCC energy               -56.167075359657 Eh    ::
         :: -> dispersion             -0.026455350139 Eh    ::
         :: repulsion energy           0.560784747204 Eh    ::

    * Orbital Energies and Occupations

         #    Occupation            Energy/Eh            Energy/eV
      -------------------------------------------------------------
         1        2.0000           -0.9208289             -25.0570
       ...           ...                  ...                  ...
        35        2.0000           -0.5074300             -13.8079
        36        2.0000           -0.5040639             -13.7163
        37        2.0000           -0.4993910             -13.5891
        38        2.0000           -0.4928494             -13.4111
        39        2.0000           -0.4845084             -13.1841
        40        2.0000           -0.4822573             -13.1229
        41        2.0000           -0.4715353             -12.8311
        42        2.0000           -0.4582371             -12.4693
        43        2.0000           -0.4478151             -12.1857
        44        2.0000           -0.4457620             -12.1298
        45        2.0000           -0.4347543             -11.8303
        46        2.0000           -0.4187691             -11.3953
        47        2.0000           -0.4131400             -11.2421 (HOMO)
        48                         -0.2529529              -6.8832 (LUMO)
        49                         -0.2496569              -6.7935
        50                         -0.2134423              -5.8081
        51                         -0.2043676              -5.5611
        52                         -0.1417652              -3.8576
        53                         -0.1341293              -3.6498
        54                         -0.1226920              -3.3386
        55                         -0.0594183              -1.6169
        56                          0.0538110               1.4643
        57                          0.0691990               1.8830
        58                          0.0794582               2.1622
       ...                                ...                  ...
        82                          1.2672503              34.4836
      -------------------------------------------------------------
                  HL-Gap            0.1601871 Eh            4.3589 eV

     #   Z          covCN         q      C6AA      Î±(0)
     1   8 O        0.860    -0.558    25.108     6.718
     2  16 S        3.729     1.373    96.609    16.543
     3   8 O        1.711    -0.411    21.049     6.195
     4   6 C        2.989     0.143    24.889     8.184
     5   6 C        2.916    -0.042    29.046     8.838
     6   6 C        2.928    -0.034    28.835     8.806
     7   6 C        2.972     0.021    27.539     8.608
     8   6 C        3.812    -0.068    21.793     6.645
     9   6 C        2.890    -0.023    28.588     8.766
    10   6 C        2.837    -0.093    30.339     9.026
    11   6 C        2.928    -0.030    28.760     8.795
    12   6 C        2.919    -0.060    29.502     8.907
    13   6 C        3.315     0.371    19.202     6.986
    14   9 F        0.806    -0.166    10.890     3.898
    15   9 F        0.805    -0.168    10.913     3.902
    16   9 F        0.805    -0.166    10.887     3.898
    17   8 O        0.860    -0.558    25.100     6.717
    18   1 H        0.926     0.066     2.125     2.280
    19   1 H        0.926     0.061     2.191     2.315
    20   1 H        0.924     0.056     2.248     2.345
    21   1 H        0.924     0.056     2.249     2.345
    22   1 H        0.925     0.037     2.493     2.469
    23   1 H        0.926     0.042     2.421     2.433
    24   1 H        0.926     0.041     2.434     2.440
    25   1 H        0.926     0.059     2.207     2.323
    26   1 H        0.926     0.054     2.275     2.358

Wiberg/Mayer (AO) data.
largest (>0.10) Wiberg bond orders for each atom

     #   Z sym  total        # sym  WBO       # sym  WBO       # sym  WBO
 ---------------------------------------------------------------------------
     1   8 O    1.930 --     2 S    1.608    17 O    0.126
     2  16 S    4.971 --     1 O    1.608    17 O    1.608     3 O    0.976
                            13 C    0.654
     3   8 O    2.208 --     2 S    0.976     4 C    0.917
     4   6 C    3.870 --    12 C    1.402     5 C    1.381     3 O    0.917
     5   6 C    3.984 --     6 C    1.452     4 C    1.381    18 H    0.965
                            11 C    0.109
     6   6 C    3.987 --     5 C    1.452     7 C    1.402    19 H    0.967
                            12 C    0.109
     7   6 C    3.986 --    11 C    1.414     6 C    1.402     8 C    1.001
     8   6 C    3.995 --     9 C    1.004     7 C    1.001    20 H    0.967
                            21 H    0.958
     9   6 C    3.989 --    10 C    1.980     8 C    1.004    22 H    0.967
    10   6 C    3.989 --     9 C    1.980    23 H    0.976    24 H    0.975
    11   6 C    3.988 --    12 C    1.438     7 C    1.414    25 H    0.967
                             5 C    0.109
    12   6 C    3.987 --    11 C    1.438     4 C    1.402    26 H    0.959
                             6 C    0.109
    13   6 C    3.815 --    16 F    0.980    14 F    0.980    15 F    0.976
                             2 S    0.654
    14   9 F    1.118 --    13 C    0.980
    15   9 F    1.115 --    13 C    0.976
    16   9 F    1.119 --    13 C    0.980
    17   8 O    1.931 --     2 S    1.608     1 O    0.126
    18   1 H    0.995 --     5 C    0.965
    19   1 H    0.995 --     6 C    0.967
    20   1 H    0.996 --     8 C    0.967
    21   1 H    0.997 --     8 C    0.958
    22   1 H    0.999 --     9 C    0.967
    23   1 H    0.997 --    10 C    0.976
    24   1 H    0.998 --    10 C    0.975
    25   1 H    0.996 --    11 C    0.967
    26   1 H    0.997 --    12 C    0.959
 ---------------------------------------------------------------------------

molecular dipole:
                 x           y           z       tot (Debye)
 q only:        2.002       0.414      -0.302
   full:        1.701       0.562      -0.324       4.628

           -------------------------------------------------
          | TOTAL ENERGY              -55.606353493390 Eh   |
          | GRADIENT NORM               0.000706084063 Eh/Î± |
          | HOMO-LUMO GAP               4.358912879145 eV   |
           -------------------------------------------------

 * finished run on 2022/03/17 at 19:41:31.505
