   * xtb version 6.3.3 (4ae9cef) compiled by 'conda@95abc7406d43' on 2020-10-14
          program call               : xtb sub_9.xyz --opt --chrg 0 --uhf 0 --gfn 2
          number of atoms            :                    28
          number of electrons        :                    78
          charge                     :                     0
          spin                       :                   0.0

   ID    Z sym.   atoms
    1    6 C      1-4, 6-13, 15, 16
    2    7 N      5, 14
    3    1 H      17-28

          :  Hamiltonian                  GFN2-xTB          :
 * total energy  :   -41.9499162 Eh     change       -0.3260183E-09 Eh
 * total energy  :   -41.9566288 Eh     change       -0.6712625E-02 Eh
 * total energy  :   -41.9578658 Eh     change       -0.1236988E-02 Eh
 * total energy  :   -41.9579661 Eh     change       -0.1002503E-03 Eh
 * total energy  :   -41.9580101 Eh     change       -0.4399697E-04 Eh
 * total energy  :   -41.9580243 Eh     change       -0.1423849E-04 Eh
 * total energy  :   -41.9580265 Eh     change       -0.2235858E-05 Eh
 * total energy  :   -41.9580317 Eh     change       -0.5169532E-05 Eh
 * total energy  :   -41.9580318 Eh     change       -0.4374039E-07 Eh
   *** GEOMETRY OPTIMIZATION CONVERGED AFTER 9 ITERATIONS ***

 final structure:
================
28
 xtb: 6.3.3 (4ae9cef)
C        -4.45486050011663    0.94075237713587    0.07351359312985
C        -3.18630176439502    0.15697846239983    0.19804185366898
C        -1.95951908665009    0.75312944214382   -0.04339867394334
C        -0.79090802864968   -0.01108520923471    0.05869178412219
N         0.46213601528765    0.53383179066989   -0.17163819588721
C         0.71839252311014    1.84657267764223   -0.51793972146925
C         2.04683673944402    2.05492528189332   -0.67218191916567
C         2.69730936827302    0.81254551865803   -0.41282263612313
C         1.68301946793206   -0.12274746318317   -0.10161523496058
C         2.00104481773268   -1.43964164712400    0.20171246215043
C         3.33380762091714   -1.80000830475705    0.18844466506308
C         4.33987054369308   -0.88332405969043   -0.11747424574574
C         4.03418144685783    0.42498253958285   -0.41957051233422
N        -0.82845217922592   -1.29924481568715    0.38468389133658
C        -1.99821857923648   -1.86438417118301    0.61398377745731
C        -3.20400815061687   -1.19448257697412    0.53657046441137
H        -5.23375972132300    0.51770802843065    0.70329454690656
H        -4.80331287083505    0.91290849419812   -0.95943393094360
H        -4.29909113894661    1.98145402282573    0.34817672392158
H        -1.92880112154270    1.79791065557977   -0.30536999611547
H        -0.07328437757860    2.55897269507963   -0.63466769714760
H         2.52132672114632    2.97847590010026   -0.93893756945971
H         1.22935996275515   -2.15117281500760    0.43818084057444
H         3.60491178985374   -2.81927097666891    0.42118497076076
H         5.37013006450846   -1.20840916915545   -0.11594738389502
H         4.80755339641176    1.14032927676105   -0.65731678859365
H        -1.95532598820625   -2.91404459267924    0.87452161988398
H        -4.13403697060019   -1.70366136175614    0.73432631239699

          :  Hamiltonian                  GFN2-xTB          :
         :: total energy             -41.958031761626 Eh    ::
         :: gradient norm              0.000931055705 Eh/a0 ::
         :: HOMO-LUMO gap              3.110116935204 eV    ::
         :: SCC energy               -42.708912748456 Eh    ::
         :: -> dispersion             -0.029628456314 Eh    ::
         :: repulsion energy           0.750973735304 Eh    ::

    * Orbital Energies and Occupations

         #    Occupation            Energy/Eh            Energy/eV
      -------------------------------------------------------------
         1        2.0000           -0.6729120             -18.3109
       ...           ...                  ...                  ...
        27        2.0000           -0.4659166             -12.6782
        28        2.0000           -0.4619812             -12.5711
        29        2.0000           -0.4549344             -12.3794
        30        2.0000           -0.4533542             -12.3364
        31        2.0000           -0.4434245             -12.0662
        32        2.0000           -0.4262971             -11.6001
        33        2.0000           -0.4242236             -11.5437
        34        2.0000           -0.4229930             -11.5102
        35        2.0000           -0.4107408             -11.1768
        36        2.0000           -0.4059618             -11.0468
        37        2.0000           -0.3777383             -10.2788
        38        2.0000           -0.3694677             -10.0537
        39        2.0000           -0.3630618              -9.8794 (HOMO)
        40                         -0.2487671              -6.7693 (LUMO)
        41                         -0.2408540              -6.5540
        42                         -0.2201706              -5.9911
        43                         -0.1873532              -5.0981
        44                         -0.1537840              -4.1847
        45                         -0.1000780              -2.7233
        46                         -0.0633267              -1.7232
        47                          0.0193322               0.5261
        48                          0.0957864               2.6065
        49                          0.1015571               2.7635
        50                          0.1171349               3.1874
       ...                                ...                  ...
        76                          0.7352155              20.0062
      -------------------------------------------------------------
                  HL-Gap            0.1142947 Eh            3.1101 eV

     #   Z          covCN         q      C6AA      Î±(0)
     1   6 C        3.758    -0.111    22.671     6.788
     2   6 C        2.974     0.034    27.239     8.561
     3   6 C        2.922    -0.071    29.761     8.946
     4   6 C        2.895     0.146    24.836     8.171
     5   7 N        2.823    -0.015    21.543     6.894
     6   6 C        3.035    -0.007    28.156     8.703
     7   6 C        2.998    -0.067    29.649     8.932
     8   6 C        3.113    -0.008    28.068     8.679
     9   6 C        3.084     0.043    26.936     8.508
    10   6 C        2.909    -0.046    29.147     8.853
    11   6 C        2.925    -0.036    28.891     8.815
    12   6 C        2.920    -0.038    28.953     8.824
    13   6 C        2.912    -0.037    28.927     8.819
    14   7 N        1.846    -0.252    27.417     7.760
    15   6 C        2.904     0.060    26.665     8.467
    16   6 C        2.918    -0.060    29.496     8.906
    17   1 H        0.925     0.048     2.347     2.396
    18   1 H        0.924     0.054     2.274     2.358
    19   1 H        0.925     0.047     2.359     2.402
    20   1 H        0.926     0.035     2.510     2.477
    21   1 H        0.926     0.034     2.536     2.490
    22   1 H        0.926     0.033     2.543     2.494
    23   1 H        0.926     0.060     2.201     2.320
    24   1 H        0.926     0.029     2.595     2.519
    25   1 H        0.926     0.027     2.635     2.538
    26   1 H        0.926     0.028     2.610     2.526
    27   1 H        0.925     0.038     2.478     2.462
    28   1 H        0.926     0.034     2.534     2.489

Wiberg/Mayer (AO) data.
largest (>0.10) Wiberg bond orders for each atom

     #   Z sym  total        # sym  WBO       # sym  WBO       # sym  WBO
 ---------------------------------------------------------------------------
     1   6 C    3.996 --     2 C    1.028    17 H    0.982    19 H    0.980
                            18 H    0.964
     2   6 C    3.984 --     3 C    1.443    16 C    1.382     1 C    1.028
     3   6 C    3.983 --     2 C    1.443     4 C    1.337    20 H    0.962
                            15 C    0.106
     4   6 C    3.969 --    14 N    1.361     3 C    1.337     5 N    1.102
     5   7 N    3.633 --     6 C    1.148     9 C    1.111     4 C    1.102
     6   6 C    3.952 --     7 C    1.648     5 N    1.148    21 H    0.964
     7   6 C    3.972 --     6 C    1.648     8 C    1.194    22 H    0.973
     8   6 C    3.983 --    13 C    1.343     9 C    1.266     7 C    1.194
     9   6 C    3.955 --    10 C    1.361     8 C    1.266     5 N    1.111
    10   6 C    3.988 --    11 C    1.477     9 C    1.361    23 H    0.960
                            13 C    0.111
    11   6 C    3.988 --    10 C    1.477    12 C    1.386    24 H    0.972
    12   6 C    3.987 --    13 C    1.491    11 C    1.386    25 H    0.972
    13   6 C    3.990 --    12 C    1.491     8 C    1.343    26 H    0.970
                            10 C    0.111
    14   7 N    3.061 --    15 C    1.433     4 C    1.361
    15   6 C    3.981 --    16 C    1.441    14 N    1.433    27 H    0.963
                             3 C    0.106
    16   6 C    3.973 --    15 C    1.441     2 C    1.382    28 H    0.969
    17   1 H    0.997 --     1 C    0.982
    18   1 H    0.997 --     1 C    0.964
    19   1 H    0.998 --     1 C    0.980
    20   1 H    0.999 --     3 C    0.962
    21   1 H    0.998 --     6 C    0.964
    22   1 H    0.998 --     7 C    0.973
    23   1 H    0.996 --    10 C    0.960
    24   1 H    0.999 --    11 C    0.972
    25   1 H    0.999 --    12 C    0.972
    26   1 H    0.999 --    13 C    0.970
    27   1 H    0.998 --    15 C    0.963
    28   1 H    0.999 --    16 C    0.969
 ---------------------------------------------------------------------------

molecular dipole:
                 x           y           z       tot (Debye)
 q only:       -0.731       0.283      -0.035
   full:       -1.200       0.516      -0.070       3.324

           -------------------------------------------------
          | TOTAL ENERGY              -41.958031761626 Eh   |
          | GRADIENT NORM               0.000931055705 Eh/Î± |
          | HOMO-LUMO GAP               3.110116935204 eV   |
           -------------------------------------------------

 * finished run on 2022/03/17 at 02:20:41.803
