   * xtb version 6.3.3 (4ae9cef) compiled by 'conda@95abc7406d43' on 2020-10-14
          program call               : xtb acid_161.xyz --opt --chrg 0 --uhf 0 --gfn 2
          number of atoms            :                    66
          number of electrons        :                   190
          charge                     :                     0
          spin                       :                   0.0

   ID    Z sym.   atoms
    1    6 C      1-14, 16-23, 25, 26, 30-37
    2    7 N      15, 29
    3    8 O      24, 27, 28, 38
    4    1 H      39-66

          :  Hamiltonian                  GFN2-xTB          :
 * total energy  :  -104.9325762 Eh     change       -0.1060883E-08 Eh
 * total energy  :  -104.9456535 Eh     change       -0.1307729E-01 Eh
 * total energy  :  -104.9493038 Eh     change       -0.3650310E-02 Eh
 * total energy  :  -104.9503435 Eh     change       -0.1039674E-02 Eh
 * total energy  :  -104.9510598 Eh     change       -0.7163084E-03 Eh
 * total energy  :  -104.9515228 Eh     change       -0.4630287E-03 Eh
 * total energy  :  -104.9519088 Eh     change       -0.3859597E-03 Eh
 * total energy  :  -104.9522672 Eh     change       -0.3583976E-03 Eh
 * total energy  :  -104.9526311 Eh     change       -0.3638596E-03 Eh
 * total energy  :  -104.9529440 Eh     change       -0.3129651E-03 Eh
 * total energy  :  -104.9553440 Eh     change       -0.3714628E-04 Eh
 * total energy  :  -104.9553805 Eh     change       -0.3651532E-04 Eh
 * total energy  :  -104.9554026 Eh     change       -0.2216207E-04 Eh
 * total energy  :  -104.9554313 Eh     change       -0.2868082E-04 Eh
 * total energy  :  -104.9554554 Eh     change       -0.2407801E-04 Eh
 * total energy  :  -104.9554707 Eh     change       -0.1532858E-04 Eh
 * total energy  :  -104.9554853 Eh     change       -0.1458914E-04 Eh
 * total energy  :  -104.9554951 Eh     change       -0.9828970E-05 Eh
 * total energy  :  -104.9555000 Eh     change       -0.4887558E-05 Eh
   *** GEOMETRY OPTIMIZATION CONVERGED AFTER 43 ITERATIONS ***

 final structure:
================
66
 xtb: 6.3.3 (4ae9cef)
C         0.51889840162052   -2.39468875705842    1.19570064873975
C         0.59304687032734   -3.56540459843193    1.92748738809355
C         0.45782974727216   -4.78965733993065    1.29465727383440
C         0.25171028752110   -4.83826773400349   -0.07307624126735
C         0.17647102545437   -3.66704961522011   -0.80604655376084
C         0.30729961423157   -2.43787346122517   -0.17731522899256
C         0.21048383693832   -1.15667947533700   -0.96604534564022
C        -1.03058390987569   -0.31648466262191   -0.55756679734171
C        -1.79830792574548    0.19928397319127   -1.75366950739439
C        -2.03505338645044    1.55237100391317   -1.95107638420155
C        -2.74738772206717    1.98392450124943   -3.05798569631434
C        -3.23821814347998    1.06852867636867   -3.97181231637973
C        -3.02177133287590   -0.28468787168340   -3.77009648625207
C        -2.30849073058863   -0.71628491693466   -2.66738756931852
N        -0.47197743614040    0.73833210153866    0.26785951172675
C        -0.78070337876733    0.95614045619518    1.58880425985615
C        -2.11558787115667    0.49330040075959    2.04650453651265
C        -3.28005774137121    0.68100966884479    1.30831209640754
C        -4.49778478899819    0.28130996647730    1.82437675554361
C        -4.58680555175794   -0.31484304707947    3.07731724519427
C        -5.91097646795123   -0.76035027398297    3.61513087150125
C        -3.42020025643867   -0.49354422009891    3.81161434321014
C        -2.20047029284369   -0.08556157238897    3.30965423590379
O         0.00088098584867    1.51352742471238    2.33259366376639
C         0.88396758083161    0.99414680951044   -0.16740575902258
C         0.91853086982175    2.08636998772669   -1.25059766355644
O         1.06245029517188    1.58027633205315   -2.47424533941934
O         0.82550564392861    3.25948383019306   -1.02440748162122
N         1.33439631319176   -0.28092712110851   -0.66496981697436
C         2.57557056160606   -0.56403578283475   -1.14467365596693
C         3.61533971959328    0.45158161070106   -0.80505982097102
C         4.29820937003704    1.10128628360286   -1.82409006334239
C         5.27321472023372    2.03478079406991   -1.52335670168702
C         5.60030372834386    2.32320758413098   -0.20485603920364
C         6.64102668306554    3.34785711245479    0.12616497412032
C         4.93078869658178    1.64741907902367    0.80972357317485
C         3.94685929360057    0.72311467020115    0.51790767820938
O         2.80090522630074   -1.57383766739470   -1.77816346655616
H         0.63333073574733   -1.44242261818495    1.69376786378990
H         0.76057512198097   -3.52223865959143    2.99356548827704
H         0.51965528340128   -5.70383134823020    1.86622715735280
H         0.15488693931145   -5.79109442811188   -0.57208442070412
H         0.02985684095652   -3.70628719004214   -1.87531595262807
H         0.20930272684614   -1.38223092206294   -2.03853423784950
H        -1.70523488647598   -0.93128096746450    0.04975312875934
H        -1.66836563686513    2.27597193791048   -1.23763554153361
H        -2.91998628620649    3.04032445996949   -3.20066970729085
H        -3.79357037950156    1.40637916795032   -4.83393944157893
H        -3.41250922588321   -1.00557985766143   -4.47275474767405
H        -2.15035926602636   -1.77254281079628   -2.50497128813570
H        -3.24057997311676    1.16132474535001    0.34308388836594
H        -5.39662385658031    0.44027661820528    1.24657981845712
H        -6.69868651067300   -0.06945645772863    3.32318808785945
H        -6.16262359419314   -1.74312281851882    3.21512717841542
H        -5.88646787414159   -0.83244748717866    4.69949044776614
H        -3.47081440179252   -0.94641816236967    4.79125642675370
H        -1.29825655705337   -0.20671878929829    3.89012578959720
H         1.45562680953128    1.36647361664023    0.69546283499389
H         1.08089270846627    2.28716412259668   -3.13920033879005
H         4.05734181190336    0.86984418060324   -2.85111378207386
H         5.79223862561125    2.54139473037651   -2.32456119758002
H         6.16080235058713    4.28768129541085    0.40008207201518
H         7.24641583705116    3.02448950008824    0.97017672885310
H         7.29102220308567    3.53335262704196   -0.72523340211539
H         5.18428547357041    1.84952747130880    1.84032374794396
H         3.44853444542908    0.19439489420699    1.31789927813482

          :  Hamiltonian                  GFN2-xTB          :
         :: total energy            -104.955500036421 Eh    ::
         :: gradient norm              0.000775588396 Eh/a0 ::
         :: HOMO-LUMO gap              3.406962800062 eV    ::
         :: SCC energy              -106.609958608037 Eh    ::
         :: -> dispersion             -0.088936791411 Eh    ::
         :: repulsion energy           1.651898273418 Eh    ::

    * Orbital Energies and Occupations

         #    Occupation            Energy/Eh            Energy/eV
      -------------------------------------------------------------
         1        2.0000           -0.7667346             -20.8639
       ...           ...                  ...                  ...
        83        2.0000           -0.4232661             -11.5177
        84        2.0000           -0.4191130             -11.4046
        85        2.0000           -0.4174476             -11.3593
        86        2.0000           -0.4166672             -11.3381
        87        2.0000           -0.4144469             -11.2777
        88        2.0000           -0.4089164             -11.1272
        89        2.0000           -0.4085258             -11.1166
        90        2.0000           -0.4071443             -11.0790
        91        2.0000           -0.4021026             -10.9418
        92        2.0000           -0.3997550             -10.8779
        93        2.0000           -0.3982011             -10.8356
        94        2.0000           -0.3898873             -10.6094
        95        2.0000           -0.3865378             -10.5182 (HOMO)
        96                         -0.2613342              -7.1113 (LUMO)
        97                         -0.2560113              -6.9664
        98                         -0.2404525              -6.5430
        99                         -0.2377910              -6.4706
       100                         -0.2370669              -6.4509
       101                         -0.2340876              -6.3698
       102                         -0.2286751              -6.2226
       103                         -0.2269026              -6.1743
       104                         -0.2249566              -6.1214
       105                         -0.1984695              -5.4006
       106                         -0.1960666              -5.3352
       ...                                ...                  ...
       180                          0.6694384              18.2163
      -------------------------------------------------------------
                  HL-Gap            0.1252036 Eh            3.4070 eV

     #   Z          covCN         q      C6AA      Î±(0)
     1   6 C        2.924    -0.032    28.806     8.802
     2   6 C        2.920    -0.028    28.693     8.784
     3   6 C        2.920    -0.029    28.728     8.789
     4   6 C        2.920    -0.026    28.658     8.779
     5   6 C        2.924    -0.029    28.727     8.790
     6   6 C        2.974     0.006    27.876     8.661
     7   6 C        3.826     0.043    19.834     6.337
     8   6 C        3.831     0.036    19.939     6.353
     9   6 C        2.971     0.002    27.986     8.677
    10   6 C        2.923    -0.035    28.870     8.811
    11   6 C        2.920    -0.028    28.711     8.787
    12   6 C        2.920    -0.030    28.752     8.793
    13   6 C        2.919    -0.027    28.665     8.780
    14   6 C        2.925    -0.037    28.909     8.817
    15   7 N        2.762    -0.122    23.644     7.222
    16   6 C        2.769     0.272    22.408     7.753
    17   6 C        2.974    -0.020    28.511     8.759
    18   6 C        2.919    -0.033    28.811     8.802
    19   6 C        2.925    -0.038    28.952     8.824
    20   6 C        2.966     0.025    27.451     8.594
    21   6 C        3.758    -0.112    22.700     6.793
    22   6 C        2.924    -0.037    28.920     8.819
    23   6 C        2.925    -0.021    28.520     8.758
    24   8 O        0.859    -0.421    22.111     6.305
    25   6 C        3.779     0.088    19.141     6.233
    26   6 C        2.688     0.352    21.023     7.504
    27   8 O        1.659    -0.362    20.126     6.056
    28   8 O        0.856    -0.384    21.363     6.197
    29   7 N        2.765    -0.119    23.593     7.214
    30   6 C        2.764     0.273    22.388     7.749
    31   6 C        2.977    -0.026    28.648     8.780
    32   6 C        2.922    -0.026    28.644     8.777
    33   6 C        2.925    -0.038    28.945     8.823
    34   6 C        2.966     0.023    27.497     8.601
    35   6 C        3.758    -0.112    22.686     6.791
    36   6 C        2.925    -0.036    28.902     8.816
    37   6 C        2.921    -0.032    28.796     8.800
    38   8 O        0.859    -0.424    22.166     6.312
    39   1 H        0.926     0.030     2.593     2.518
    40   1 H        0.926     0.036     2.509     2.477
    41   1 H        0.926     0.036     2.508     2.477
    42   1 H        0.926     0.038     2.481     2.463
    43   1 H        0.926     0.038     2.474     2.460
    44   1 H        0.924     0.065     2.140     2.288
    45   1 H        0.924     0.057     2.233     2.337
    46   1 H        0.926     0.038     2.472     2.459
    47   1 H        0.926     0.038     2.470     2.458
    48   1 H        0.926     0.037     2.483     2.464
    49   1 H        0.926     0.039     2.467     2.456
    50   1 H        0.926     0.034     2.532     2.489
    51   1 H        0.926     0.038     2.472     2.459
    52   1 H        0.926     0.037     2.484     2.465
    53   1 H        0.925     0.049     2.330     2.387
    54   1 H        0.924     0.053     2.288     2.365
    55   1 H        0.925     0.048     2.342     2.393
    56   1 H        0.926     0.041     2.442     2.444
    57   1 H        0.926     0.052     2.299     2.371
    58   1 H        0.923     0.102     1.767     2.079
    59   1 H        0.804     0.340     0.612     1.229
    60   1 H        0.926     0.040     2.445     2.445
    61   1 H        0.926     0.037     2.495     2.470
    62   1 H        0.924     0.053     2.280     2.361
    63   1 H        0.925     0.048     2.341     2.392
    64   1 H        0.925     0.045     2.382     2.414
    65   1 H        0.926     0.041     2.437     2.441
    66   1 H        0.926     0.035     2.513     2.479

Wiberg/Mayer (AO) data.
largest (>0.10) Wiberg bond orders for each atom

     #   Z sym  total        # sym  WBO       # sym  WBO       # sym  WBO
 ---------------------------------------------------------------------------
     1   6 C    3.992 --     2 C    1.448     6 C    1.409    39 H    0.968
                             4 C    0.112
     2   6 C    3.992 --     1 C    1.448     3 C    1.436    40 H    0.971
                             5 C    0.111
     3   6 C    3.990 --     4 C    1.441     2 C    1.436    41 H    0.971
                             6 C    0.109
     4   6 C    3.992 --     3 C    1.441     5 C    1.441    42 H    0.971
                             1 C    0.112
     5   6 C    3.989 --     4 C    1.441     6 C    1.416    43 H    0.968
                             2 C    0.111
     6   6 C    3.986 --     5 C    1.416     1 C    1.409     7 C    0.989
                             3 C    0.109
     7   6 C    3.965 --     6 C    0.989    29 N    0.960    44 H    0.953
                             8 C    0.946
     8   6 C    3.967 --     9 C    0.988    15 N    0.974     7 C    0.946
                            45 H    0.946
     9   6 C    3.986 --    10 C    1.419    14 C    1.405     8 C    0.988
                            12 C    0.110
    10   6 C    3.991 --    11 C    1.435     9 C    1.419    46 H    0.964
                            13 C    0.110
    11   6 C    3.992 --    12 C    1.445    10 C    1.435    47 H    0.971
                            14 C    0.112
    12   6 C    3.991 --    11 C    1.445    13 C    1.432    48 H    0.971
                             9 C    0.110
    13   6 C    3.991 --    14 C    1.452    12 C    1.432    49 H    0.971
                            10 C    0.110
    14   6 C    3.991 --    13 C    1.452     9 C    1.405    50 H    0.968
                            11 C    0.112
    15   7 N    3.436 --    16 C    1.167    25 C    0.980     8 C    0.974
                            24 O    0.175
    16   6 C    3.941 --    24 O    1.693    15 N    1.167    17 C    0.993
    17   6 C    3.987 --    23 C    1.390    18 C    1.387    16 C    0.993
                            20 C    0.102
    18   6 C    3.991 --    19 C    1.457    17 C    1.387    51 H    0.965
                            22 C    0.105
    19   6 C    3.991 --    18 C    1.457    20 C    1.403    52 H    0.969
                            23 C    0.106
    20   6 C    3.987 --    22 C    1.405    19 C    1.403    21 C    1.029
                            17 C    0.102
    21   6 C    3.995 --    20 C    1.029    55 H    0.983    53 H    0.979
                            54 H    0.965
    22   6 C    3.991 --    23 C    1.456    20 C    1.405    56 H    0.968
                            18 C    0.105
    23   6 C    3.989 --    22 C    1.456    17 C    1.390    57 H    0.968
                            19 C    0.106
    24   8 O    2.026 --    16 C    1.693    15 N    0.175
    25   6 C    3.965 --    29 N    0.985    15 N    0.980    58 H    0.927
                            26 C    0.916
    26   6 C    3.917 --    28 O    1.781    27 O    1.150    25 C    0.916
    27   8 O    2.219 --    26 C    1.150    59 H    0.858    28 O    0.182
    28   8 O    2.063 --    26 C    1.781    27 O    0.182
    29   7 N    3.454 --    30 C    1.198    25 C    0.985     7 C    0.960
                            38 O    0.186
    30   6 C    3.945 --    38 O    1.694    29 N    1.198    31 C    0.968
    31   6 C    3.987 --    32 C    1.407    37 C    1.394    30 C    0.968
                            34 C    0.106
    32   6 C    3.991 --    33 C    1.445    31 C    1.407    60 H    0.969
                            36 C    0.108
    33   6 C    3.991 --    32 C    1.445    34 C    1.413    61 H    0.968
                            37 C    0.108
    34   6 C    3.988 --    33 C    1.413    36 C    1.401    35 C    1.028
                            31 C    0.106
    35   6 C    3.996 --    34 C    1.028    64 H    0.984    63 H    0.978
                            62 H    0.966
    36   6 C    3.991 --    37 C    1.457    34 C    1.401    65 H    0.968
                            32 C    0.108
    37   6 C    3.991 --    36 C    1.457    31 C    1.394    66 H    0.968
                            33 C    0.108
    38   8 O    2.016 --    30 C    1.694    29 N    0.186
    39   1 H    0.999 --     1 C    0.968
    40   1 H    0.998 --     2 C    0.971
    41   1 H    0.998 --     3 C    0.971
    42   1 H    0.998 --     4 C    0.971
    43   1 H    0.999 --     5 C    0.968
    44   1 H    0.995 --     7 C    0.953
    45   1 H    0.996 --     8 C    0.946
    46   1 H    0.999 --    10 C    0.964
    47   1 H    0.998 --    11 C    0.971
    48   1 H    0.998 --    12 C    0.971
    49   1 H    0.998 --    13 C    0.971
    50   1 H    0.999 --    14 C    0.968
    51   1 H    0.998 --    18 C    0.965
    52   1 H    0.998 --    19 C    0.969
    53   1 H    0.997 --    21 C    0.979
    54   1 H    0.996 --    21 C    0.965
    55   1 H    0.997 --    21 C    0.983
    56   1 H    0.998 --    22 C    0.968
    57   1 H    0.997 --    23 C    0.968
    58   1 H    0.989 --    25 C    0.927
    59   1 H    0.884 --    27 O    0.858
    60   1 H    0.998 --    32 C    0.969
    61   1 H    0.998 --    33 C    0.968
    62   1 H    0.997 --    35 C    0.966
    63   1 H    0.997 --    35 C    0.978
    64   1 H    0.998 --    35 C    0.984
    65   1 H    0.998 --    36 C    0.968
    66   1 H    0.998 --    37 C    0.968
 ---------------------------------------------------------------------------

molecular dipole:
                 x           y           z       tot (Debye)
 q only:       -1.567      -0.381      -0.363
   full:       -1.605      -0.261      -0.479       4.308

           -------------------------------------------------
          | TOTAL ENERGY             -104.955500036421 Eh   |
          | GRADIENT NORM               0.000775588396 Eh/Î± |
          | HOMO-LUMO GAP               3.406962800062 eV   |
           -------------------------------------------------

 * finished run on 2022/03/16 at 21:58:30.085
