   * xtb version 6.3.3 (4ae9cef) compiled by 'conda@95abc7406d43' on 2020-10-14
          program call               : xtb acid_408.xyz --opt --chrg 0 --uhf 0 --gfn 2
          number of atoms            :                    60
          number of electrons        :                   182
          charge                     :                     0
          spin                       :                   0.0

   ID    Z sym.   atoms
    1    6 C      1-14, 16-21, 24, 25, 29-34
    2    7 N      15, 28
    3   16 S      22, 35
    4    8 O      23, 26, 27, 36
    5    1 H      37-60

          :  Hamiltonian                  GFN2-xTB          :
 * total energy  :  -100.8139762 Eh     change       -0.3166150E-08 Eh
 * total energy  :  -100.8252924 Eh     change       -0.1131621E-01 Eh
 * total energy  :  -100.8288849 Eh     change       -0.3592538E-02 Eh
 * total energy  :  -100.8300981 Eh     change       -0.1213164E-02 Eh
 * total energy  :  -100.8308588 Eh     change       -0.7607244E-03 Eh
 * total energy  :  -100.8313404 Eh     change       -0.4815756E-03 Eh
 * total energy  :  -100.8317285 Eh     change       -0.3880896E-03 Eh
 * total energy  :  -100.8319511 Eh     change       -0.2226301E-03 Eh
 * total energy  :  -100.8321391 Eh     change       -0.1880317E-03 Eh
 * total energy  :  -100.8322791 Eh     change       -0.1399628E-03 Eh
 * total energy  :  -100.8346134 Eh     change       -0.1312892E-04 Eh
 * total energy  :  -100.8346311 Eh     change       -0.1770925E-04 Eh
 * total energy  :  -100.8346484 Eh     change       -0.1730145E-04 Eh
 * total energy  :  -100.8346596 Eh     change       -0.1115142E-04 Eh
 * total energy  :  -100.8346710 Eh     change       -0.1145344E-04 Eh
 * total energy  :  -100.8346630 Eh     change        0.8000349E-05 Eh
 * total energy  :  -100.8346729 Eh     change       -0.9834056E-05 Eh
 * total energy  :  -100.8346721 Eh     change        0.7992779E-06 Eh
 * total energy  :  -100.8346768 Eh     change       -0.4700198E-05 Eh
   *** GEOMETRY OPTIMIZATION CONVERGED AFTER 48 ITERATIONS ***

 final structure:
================
60
 xtb: 6.3.3 (4ae9cef)
C        -1.99136542365562    3.35913038198017    1.48887085835640
C        -2.52524818323228    3.98565990483948    2.59963818429967
C        -2.12240775556820    3.60918375111160    3.87016806449547
C        -1.18499243208770    2.60300933551514    4.02065647617808
C        -0.65034626450428    1.97068612367292    2.90996715297556
C        -1.04830646893262    2.34605987163395    1.63315917636926
C        -0.56670086173159    1.64941754003801    0.37880309783670
C         0.76243417409335    0.87715398385715    0.51572620759054
C         1.59545670071646    0.97830930593310   -0.73987857348047
C         2.78527929924387    1.69357459552014   -0.73387991609121
C         3.56590451791733    1.76359891496657   -1.87372567319104
C         3.16063940796348    1.12479057809377   -3.03260837721443
C         1.96501741692844    0.42665875127947   -3.05129109784932
C         1.18519451877205    0.35483269668077   -1.91198794318862
N         0.32876224569244   -0.49765811748088    0.75960276756357
C         1.07583666919615   -1.61310609796602    0.51395657498882
C         2.53680606089307   -1.43680749261885    0.53158714973339
C         3.41136519190551   -2.00959239346968   -0.34439592204792
C         4.76563512127273   -1.69361702193807   -0.07965925236267
C         5.90186043018930   -2.16861759992497   -0.92150782065089
C         4.88711843411088   -0.90545863818407    1.02277939727843
S         3.37396003142424   -0.52288034671139    1.74002672064282
O         0.55758110516768   -2.69129074160334    0.29295390074346
C        -1.11045836304446   -0.60363076677297    0.67898382925345
C        -1.74252283763609   -0.73489018906601    2.07627041181756
O        -3.03251702276574   -0.40486613287824    2.03933928342529
O        -1.17328664704015   -1.12191695923751    3.05442692022164
N        -1.50882957456782    0.59827472320746    0.00609742528088
C        -2.57915377487346    0.82520717617212   -0.79725712539852
C        -3.41502794212889   -0.35905052709535   -1.09222378622123
C        -3.07409641073214   -1.53991215311780   -1.68340706608417
C        -4.17325637778920   -2.41768184750005   -1.85786577299942
C        -4.05150293842638   -3.77194378451995   -2.47263018669348
C        -5.32716938203965   -1.86872516248762   -1.39018872195044
S        -5.10807162228917   -0.28646074472374   -0.75609846717488
O        -2.81976807960131    1.92879408066972   -1.24298211741942
H        -2.31553954360591    3.64001885426932    0.49837087767740
H        -3.25791135133604    4.76849792868818    2.47262898324191
H        -2.53835118653982    4.09696292491503    4.73933301374995
H        -0.86689950124881    2.29934297931292    5.00691859469205
H         0.06878626603351    1.18031885517591    3.06140599265686
H        -0.52836577440973    2.37148192208697   -0.44336962623768
H         1.34015533316957    1.25911338099009    1.36226827570834
H         3.10553038792809    2.18839304820762    0.17154707311228
H         4.49462599491329    2.31399333543983   -1.85414957914831
H         3.77281299133779    1.17318827702512   -3.92074191302613
H         1.63924288332795   -0.06538012376306   -3.95551019819169
H         0.25537230016310   -0.19445362536657   -1.93289287026394
H         3.08902176948266   -2.62522879207413   -1.16459895900343
H         5.86045067715001   -3.25045901511473   -1.03469846176361
H         6.85346949142414   -1.89558640399574   -0.47349109008523
H         5.84044456815944   -1.72314287176715   -1.91410290122992
H         5.78586407774918   -0.52745984289615    1.46867652246870
H        -1.38300432513733   -1.51918339619653    0.13410563716141
H        -3.44198588213885   -0.50379417602648    2.91420483700085
H        -2.07920738521952   -1.78366049422720   -2.01536347629069
H        -3.69771585988305   -3.68910542824180   -3.49952484353908
H        -5.01177779113168   -4.28031328520918   -2.47301309484980
H        -3.33305509023692   -4.37354667978482   -1.91752012844419
H        -6.30578501277636   -2.30623436932802   -1.38190644441965

          :  Hamiltonian                  GFN2-xTB          :
         :: total energy            -100.834676775426 Eh    ::
         :: gradient norm              0.000178186487 Eh/a0 ::
         :: HOMO-LUMO gap              3.232782765820 eV    ::
         :: SCC energy              -102.289741296779 Eh    ::
         :: -> dispersion             -0.089295037193 Eh    ::
         :: repulsion energy           1.452611207517 Eh    ::

    * Orbital Energies and Occupations

         #    Occupation            Energy/Eh            Energy/eV
      -------------------------------------------------------------
         1        2.0000           -0.7671115             -20.8742
       ...           ...                  ...                  ...
        79        2.0000           -0.4269956             -11.6191
        80        2.0000           -0.4214515             -11.4683
        81        2.0000           -0.4190643             -11.4033
        82        2.0000           -0.4142961             -11.2736
        83        2.0000           -0.4106734             -11.1750
        84        2.0000           -0.4082709             -11.1096
        85        2.0000           -0.4073369             -11.0842
        86        2.0000           -0.4027890             -10.9604
        87        2.0000           -0.4017525             -10.9322
        88        2.0000           -0.4000509             -10.8859
        89        2.0000           -0.3957359             -10.7685
        90        2.0000           -0.3925446             -10.6817
        91        2.0000           -0.3884232             -10.5695 (HOMO)
        92                         -0.2696206              -7.3368 (LUMO)
        93                         -0.2590304              -7.0486
        94                         -0.2546100              -6.9283
        95                         -0.2421494              -6.5892
        96                         -0.2370570              -6.4507
        97                         -0.2335984              -6.3565
        98                         -0.2278915              -6.2012
        99                         -0.2186089              -5.9487
       100                         -0.2161398              -5.8815
       101                         -0.2027429              -5.5169
       102                         -0.1959042              -5.3308
       ...                                ...                  ...
       178                          0.6826505              18.5759
      -------------------------------------------------------------
                  HL-Gap            0.1188026 Eh            3.2328 eV

     #   Z          covCN         q      C6AA      Î±(0)
     1   6 C        2.925    -0.033    28.818     8.804
     2   6 C        2.919    -0.027    28.680     8.782
     3   6 C        2.919    -0.030    28.748     8.792
     4   6 C        2.920    -0.029    28.731     8.790
     5   6 C        2.921    -0.039    28.981     8.828
     6   6 C        2.971    -0.003    28.098     8.695
     7   6 C        3.843     0.040    19.877     6.342
     8   6 C        3.823     0.032    20.023     6.368
     9   6 C        2.973    -0.002    28.077     8.692
    10   6 C        2.924    -0.035    28.872     8.812
    11   6 C        2.920    -0.027    28.670     8.781
    12   6 C        2.920    -0.029    28.718     8.788
    13   6 C        2.920    -0.026    28.657     8.779
    14   6 C        2.924    -0.030    28.748     8.793
    15   7 N        2.766    -0.120    23.599     7.215
    16   6 C        2.782     0.275    22.344     7.742
    17   6 C        2.988    -0.012    28.299     8.726
    18   6 C        3.128    -0.043    28.851     8.794
    19   6 C        3.145     0.006    27.619     8.598
    20   6 C        3.755    -0.107    22.605     6.779
    21   6 C        2.949    -0.030    28.752     8.795
    22  16 S        2.312    -0.018   141.795    20.042
    23   8 O        0.859    -0.431    22.305     6.332
    24   6 C        3.785     0.092    19.082     6.222
    25   6 C        2.688     0.354    20.988     7.497
    26   8 O        1.660    -0.368    20.232     6.072
    27   8 O        0.856    -0.375    21.190     6.172
    28   7 N        2.771    -0.113    23.466     7.195
    29   6 C        2.788     0.274    22.362     7.746
    30   6 C        2.990    -0.017    28.431     8.747
    31   6 C        3.123    -0.056    29.203     8.850
    32   6 C        3.143     0.006    27.639     8.602
    33   6 C        3.755    -0.107    22.610     6.780
    34   6 C        2.949    -0.036    28.905     8.818
    35  16 S        2.323     0.017   140.360    19.940
    36   8 O        0.859    -0.424    22.173     6.313
    37   1 H        0.926     0.059     2.215     2.327
    38   1 H        0.926     0.039     2.460     2.453
    39   1 H        0.926     0.035     2.511     2.478
    40   1 H        0.926     0.038     2.477     2.461
    41   1 H        0.926     0.041     2.435     2.440
    42   1 H        0.924     0.076     2.024     2.225
    43   1 H        0.924     0.065     2.142     2.289
    44   1 H        0.926     0.036     2.500     2.472
    45   1 H        0.926     0.039     2.468     2.457
    46   1 H        0.926     0.038     2.479     2.462
    47   1 H        0.926     0.039     2.460     2.453
    48   1 H        0.926     0.030     2.584     2.514
    49   1 H        0.926     0.052     2.301     2.372
    50   1 H        0.925     0.055     2.254     2.348
    51   1 H        0.925     0.046     2.374     2.410
    52   1 H        0.925     0.052     2.297     2.370
    53   1 H        0.926     0.051     2.313     2.378
    54   1 H        0.923     0.099     1.793     2.094
    55   1 H        0.804     0.343     0.606     1.222
    56   1 H        0.926     0.038     2.475     2.460
    57   1 H        0.925     0.053     2.285     2.364
    58   1 H        0.925     0.045     2.388     2.417
    59   1 H        0.925     0.055     2.259     2.350
    60   1 H        0.926     0.050     2.322     2.383

Wiberg/Mayer (AO) data.
largest (>0.10) Wiberg bond orders for each atom

     #   Z sym  total        # sym  WBO       # sym  WBO       # sym  WBO
 ---------------------------------------------------------------------------
     1   6 C    3.988 --     2 C    1.450     6 C    1.407    37 H    0.965
                             4 C    0.113
     2   6 C    3.991 --     1 C    1.450     3 C    1.434    38 H    0.970
                             5 C    0.110
     3   6 C    3.991 --     4 C    1.444     2 C    1.434    39 H    0.971
                             6 C    0.109
     4   6 C    3.992 --     3 C    1.444     5 C    1.437    40 H    0.971
                             1 C    0.113
     5   6 C    3.991 --     4 C    1.437     6 C    1.419    41 H    0.964
                             2 C    0.110
     6   6 C    3.984 --     5 C    1.419     1 C    1.407     7 C    0.982
                             3 C    0.109
     7   6 C    3.961 --     6 C    0.982     8 C    0.962    42 H    0.953
                            28 N    0.951
     8   6 C    3.964 --     9 C    0.989     7 C    0.962    15 N    0.958
                            43 H    0.949
     9   6 C    3.986 --    10 C    1.413    14 C    1.410     8 C    0.989
                            12 C    0.109
    10   6 C    3.990 --    11 C    1.443     9 C    1.413    44 H    0.968
                            13 C    0.110
    11   6 C    3.992 --    10 C    1.443    12 C    1.440    45 H    0.970
                            14 C    0.111
    12   6 C    3.990 --    11 C    1.440    13 C    1.436    46 H    0.971
                             9 C    0.109
    13   6 C    3.992 --    14 C    1.448    12 C    1.436    47 H    0.971
                            10 C    0.110
    14   6 C    3.992 --    13 C    1.448     9 C    1.410    48 H    0.968
                            11 C    0.111
    15   7 N    3.444 --    16 C    1.190    24 C    0.985     8 C    0.958
                            23 O    0.179
    16   6 C    3.951 --    23 O    1.666    15 N    1.190    17 C    1.012
    17   6 C    3.948 --    18 C    1.572    22 S    1.146    16 C    1.012
                            21 C    0.109
    18   6 C    3.986 --    17 C    1.572    19 C    1.256    49 H    0.963
    19   6 C    3.986 --    21 C    1.588    18 C    1.256    20 C    1.023
    20   6 C    3.995 --    19 C    1.023    51 H    0.985    50 H    0.973
                            52 H    0.970
    21   6 C    3.943 --    19 C    1.588    22 S    1.191    53 H    0.969
                            17 C    0.109
    22  16 S    2.633 --    21 C    1.191    17 C    1.146
    23   8 O    2.014 --    16 C    1.666    15 N    0.179
    24   6 C    3.968 --    28 N    0.991    15 N    0.985    54 H    0.916
                            25 C    0.914
    25   6 C    3.919 --    27 O    1.789    26 O    1.146    24 C    0.914
    26   8 O    2.212 --    25 C    1.146    55 H    0.857    27 O    0.181
    27   8 O    2.071 --    25 C    1.789    26 O    0.181
    28   7 N    3.473 --    29 C    1.202    24 C    0.991     7 C    0.951
                            36 O    0.188
    29   6 C    3.950 --    36 O    1.674    28 N    1.202    30 C    0.992
    30   6 C    3.950 --    31 C    1.575    35 S    1.163    29 C    0.992
                            34 C    0.110
    31   6 C    3.984 --    30 C    1.575    32 C    1.253    56 H    0.961
                            35 S    0.100
    32   6 C    3.986 --    34 C    1.589    31 C    1.253    33 C    1.023
    33   6 C    3.995 --    32 C    1.023    58 H    0.985    59 H    0.972
                            57 H    0.971
    34   6 C    3.942 --    32 C    1.589    35 S    1.198    60 H    0.969
                            30 C    0.110
    35  16 S    2.648 --    34 C    1.198    30 C    1.163    31 C    0.100
    36   8 O    2.013 --    29 C    1.674    28 N    0.188
    37   1 H    0.997 --     1 C    0.965
    38   1 H    0.998 --     2 C    0.970
    39   1 H    0.998 --     3 C    0.971
    40   1 H    0.998 --     4 C    0.971
    41   1 H    0.998 --     5 C    0.964
    42   1 H    0.994 --     7 C    0.953
    43   1 H    0.995 --     8 C    0.949
    44   1 H    0.999 --    10 C    0.968
    45   1 H    0.998 --    11 C    0.970
    46   1 H    0.998 --    12 C    0.971
    47   1 H    0.998 --    13 C    0.971
    48   1 H    0.999 --    14 C    0.968
    49   1 H    0.997 --    18 C    0.963
    50   1 H    0.997 --    20 C    0.973
    51   1 H    0.997 --    20 C    0.985
    52   1 H    0.997 --    20 C    0.970
    53   1 H    0.997 --    21 C    0.969
    54   1 H    0.990 --    24 C    0.916
    55   1 H    0.882 --    26 O    0.857
    56   1 H    0.999 --    31 C    0.961
    57   1 H    0.997 --    33 C    0.971
    58   1 H    0.998 --    33 C    0.985
    59   1 H    0.997 --    33 C    0.972
    60   1 H    0.997 --    34 C    0.969
 ---------------------------------------------------------------------------

molecular dipole:
                 x           y           z       tot (Debye)
 q only:        0.774       0.407      -0.029
   full:        0.924      -0.013      -0.263       2.441

           -------------------------------------------------
          | TOTAL ENERGY             -100.834676775426 Eh   |
          | GRADIENT NORM               0.000178186487 Eh/Î± |
          | HOMO-LUMO GAP               3.232782765820 eV   |
           -------------------------------------------------

 * finished run on 2022/03/17 at 00:49:58.445
