   * xtb version 6.3.3 (4ae9cef) compiled by 'conda@95abc7406d43' on 2020-10-14
          program call               : xtb acid_89.xyz --opt --chrg 0 --uhf 0 --gfn 2
          number of atoms            :                    80
          number of electrons        :                   238
          charge                     :                     0
          spin                       :                   0.0

   ID    Z sym.   atoms
    1    6 C      1-22, 24-29, 31, 32, 34, 35, 39-42, 44-47
    2    7 N      23, 38
    3    8 O      30, 33, 36, 37, 43, 48
    4    1 H      49-80

          :  Hamiltonian                  GFN2-xTB          :
 * total energy  :  -132.2481612 Eh     change       -0.4543551E-08 Eh
 * total energy  :  -132.2643028 Eh     change       -0.1614160E-01 Eh
 * total energy  :  -132.2691575 Eh     change       -0.4854716E-02 Eh
 * total energy  :  -132.2705580 Eh     change       -0.1400469E-02 Eh
 * total energy  :  -132.2716746 Eh     change       -0.1116667E-02 Eh
 * total energy  :  -132.2722949 Eh     change       -0.6203141E-03 Eh
 * total energy  :  -132.2728080 Eh     change       -0.5130206E-03 Eh
 * total energy  :  -132.2731011 Eh     change       -0.2931801E-03 Eh
 * total energy  :  -132.2733039 Eh     change       -0.2027383E-03 Eh
 * total energy  :  -132.2734158 Eh     change       -0.1118855E-03 Eh
 * total energy  :  -132.2756418 Eh     change       -0.4560834E-04 Eh
 * total energy  :  -132.2756738 Eh     change       -0.3208501E-04 Eh
 * total energy  :  -132.2756922 Eh     change       -0.1834116E-04 Eh
 * total energy  :  -132.2757072 Eh     change       -0.1502585E-04 Eh
 * total energy  :  -132.2757260 Eh     change       -0.1880910E-04 Eh
 * total energy  :  -132.2757423 Eh     change       -0.1630497E-04 Eh
 * total energy  :  -132.2757479 Eh     change       -0.5547914E-05 Eh
 * total energy  :  -132.2757538 Eh     change       -0.5894433E-05 Eh
 * total energy  :  -132.2757569 Eh     change       -0.3179176E-05 Eh
   *** GEOMETRY OPTIMIZATION CONVERGED AFTER 46 ITERATIONS ***

 final structure:
================
80
 xtb: 6.3.3 (4ae9cef)
C         1.97583266568888   -2.00130046758972    1.33219382362580
C         2.72411321094194   -1.94681833425457    2.47238621797922
C         2.61357622511468   -0.85657661136112    3.35933007198361
C         3.40756513400841   -0.74389808775641    4.51849061287099
C         3.28243492859189    0.33535753202197    5.34726594429242
C         2.35181751346528    1.34616990450346    5.05991781426061
C         1.56354166118158    1.26346948575872    3.94699968232512
C         1.67652620602253    0.16797768967827    3.06604524313969
C         0.91213372571528    0.07704299125631    1.88713562227045
C         1.07376156727138   -0.96868773778106    1.01606652057842
C         0.32376415696916   -1.01132985788786   -0.29286826806095
C        -1.18801596920998   -1.25219862515330   -0.08238776551510
C        -1.85810348391249   -2.17683210830535   -1.07313633288711
C        -1.36928412876703   -2.42837708476620   -2.32803559095035
C        -2.07920696570190   -3.24171779663658   -3.23652108186817
C        -1.59352925684066   -3.49826446684349   -4.53560414392336
C        -2.29929651929397   -4.28829977923782   -5.39930328950870
C        -3.51972744870416   -4.85802478080711   -5.00340526729472
C        -4.01860299647085   -4.62315901919201   -3.75239755934229
C        -3.31686857174528   -3.80964979096259   -2.83937677226109
C        -3.80123655358098   -3.53139529752535   -1.54361477741722
C        -3.09496098717114   -2.73723124217754   -0.68788208545902
N        -1.75347939683783    0.08743141422734   -0.20899012473490
C        -2.75317645365523    0.54034540594192    0.58792865745554
C        -3.10666839269919    1.98027163737755    0.38984379033635
C        -4.24096489398471    2.32042860321929   -0.33753277823764
C        -4.57278649693174    3.65307414130811   -0.48643352925880
C        -3.80034917739386    4.65067192983334    0.08567870876784
C        -2.67291423436951    4.31330356982238    0.82747399498049
O        -1.84818229221474    5.19826923862045    1.44528650257162
C        -2.12404295385601    6.57327028067970    1.32641380478360
C        -2.33076363452980    2.96779101049202    0.97079984693731
O        -3.30893956665727   -0.18136350637759    1.38869922233170
C        -0.95987348649921    0.81769355174701   -1.15299285899693
C        -1.44220240826138    0.62035833227155   -2.60154212273899
O        -2.76133240650826    0.77514359067461   -2.69404524200381
O        -0.72860859218502    0.38399058074246   -3.53288935924202
N         0.36910022990389    0.27609034349809   -0.98013557211593
C         1.45264037902545    1.09351413547757   -1.10469968143026
C         2.75407231414871    0.43526502502456   -0.78579163476192
C         3.49211389837931    0.90560508854635    0.28472831438888
C         4.66043067341070    0.25398819275260    0.67752164543169
O         5.26795359229500    0.75169041751909    1.78672071402920
C         6.38725473268047    0.07246599254511    2.30069321044529
C         5.11009325278560   -0.83632812234689   -0.05969441391410
C         4.39604391502275   -1.26022621125242   -1.16906584646794
C         3.21424407913245   -0.64504483386940   -1.53153158535241
O         1.33475281366766    2.25402885160909   -1.43645301000090
H         2.08147132467366   -2.83206546288459    0.64971093993190
H         3.42340778276766   -2.73797453095624    2.70345113521745
H         4.12011786234185   -1.52664236070577    4.73860047040205
H         3.89843106454556    0.41881639543664    6.23081126205246
H         2.26636712840261    2.19158424796848    5.72667782813903
H         0.84825292021659    2.04130548196898    3.72104758299212
H         0.21524291139792    0.87204532455615    1.66209582715804
H         0.75404676600163   -1.79864057057240   -0.91910218747628
H        -1.39656843393939   -1.60453879723490    0.93372391676863
H        -0.43613141479828   -2.00454825738812   -2.66790252556433
H        -0.65607396739267   -3.05229393080483   -4.83522708013248
H        -1.92309605232095   -4.48078190286127   -6.39337515909952
H        -4.06215699844113   -5.48267104415632   -5.69804191673278
H        -4.95922296164349   -5.05720735694638   -3.44444680445869
H        -4.74607870054146   -3.95772722785490   -1.23887966285952
H        -3.47818976330451   -2.51261360227087    0.29605699536008
H        -4.84633054162343    1.54505942093652   -0.77873626485256
H        -5.44976193205758    3.92759271935454   -1.05362800950543
H        -4.08890270976824    5.68118191415827   -0.04782766078925
H        -3.09642234907514    6.82673009069580    1.76101299151690
H        -1.33790323595689    7.07992671462303    1.88372744729512
H        -2.09385859013118    6.89995847696939    0.28226842657293
H        -1.45716408252070    2.72468805422445    1.55621549688924
H        -0.95770284744836    1.90194425318101   -0.96471068893170
H        -3.05533957826538    0.66390729549625   -3.61312195907105
H         3.15779511379577    1.75772014882870    0.85431990725789
H         7.23263908206891    0.10157543296285    1.60533288247705
H         6.65595816218671    0.59844496536626    3.21525151043450
H         6.14681412167786   -0.96837185431963    2.53931455463311
H         6.01434176413693   -1.35718113211952    0.21263013650796
H         4.76769348012031   -2.09416591196462   -1.74631855207543
H         2.65767306749544   -0.98303916870713   -2.39221511207676

          :  Hamiltonian                  GFN2-xTB          :
         :: total energy            -132.275756946933 Eh    ::
         :: gradient norm              0.000468461778 Eh/a0 ::
         :: HOMO-LUMO gap              3.154649275579 eV    ::
         :: SCC energy              -134.315516700276 Eh    ::
         :: -> dispersion             -0.117946262400 Eh    ::
         :: repulsion energy           2.036356699374 Eh    ::

    * Orbital Energies and Occupations

         #    Occupation            Energy/Eh            Energy/eV
      -------------------------------------------------------------
         1        2.0000           -0.7647383             -20.8096
       ...           ...                  ...                  ...
       107        2.0000           -0.4175291             -11.3615
       108        2.0000           -0.4131577             -11.2426
       109        2.0000           -0.4125008             -11.2247
       110        2.0000           -0.4058652             -11.0442
       111        2.0000           -0.4029663             -10.9653
       112        2.0000           -0.4017913             -10.9333
       113        2.0000           -0.3967477             -10.7961
       114        2.0000           -0.3924189             -10.6783
       115        2.0000           -0.3905674             -10.6279
       116        2.0000           -0.3852912             -10.4843
       117        2.0000           -0.3850031             -10.4765
       118        2.0000           -0.3829238             -10.4199
       119        2.0000           -0.3820205             -10.3953 (HOMO)
       120                         -0.2660893              -7.2407 (LUMO)
       121                         -0.2640883              -7.1862
       122                         -0.2531004              -6.8872
       123                         -0.2418430              -6.5809
       124                         -0.2357275              -6.4145
       125                         -0.2349533              -6.3934
       126                         -0.2324851              -6.3262
       127                         -0.2231917              -6.0734
       128                         -0.2218869              -6.0378
       129                         -0.2110847              -5.7439
       130                         -0.1995159              -5.4291
       ...                                ...                  ...
       224                          0.6936484              18.8751
      -------------------------------------------------------------
                  HL-Gap            0.1159312 Eh            3.1546 eV

     #   Z          covCN         q      C6AA      Î±(0)
     1   6 C        2.919    -0.038    28.951     8.823
     2   6 C        2.918    -0.034    28.840     8.806
     3   6 C        2.988     0.015    27.660     8.627
     4   6 C        2.918    -0.032    28.789     8.799
     5   6 C        2.916    -0.027    28.676     8.781
     6   6 C        2.916    -0.026    28.660     8.779
     7   6 C        2.919    -0.030    28.756     8.794
     8   6 C        2.987     0.017    27.613     8.620
     9   6 C        2.923    -0.036    28.894     8.815
    10   6 C        2.969    -0.005    28.147     8.702
    11   6 C        3.821     0.033    20.006     6.365
    12   6 C        3.840     0.038    19.910     6.348
    13   6 C        2.968    -0.004    28.109     8.696
    14   6 C        2.921    -0.046    29.146     8.853
    15   6 C        2.987     0.013    27.727     8.638
    16   6 C        2.919    -0.035    28.864     8.810
    17   6 C        2.916    -0.030    28.743     8.792
    18   6 C        2.916    -0.030    28.741     8.791
    19   6 C        2.918    -0.035    28.872     8.811
    20   6 C        2.987     0.012    27.746     8.640
    21   6 C        2.916    -0.035    28.859     8.809
    22   6 C        2.921    -0.036    28.893     8.815
    23   7 N        2.770    -0.109    23.388     7.183
    24   6 C        2.760     0.276    22.338     7.740
    25   6 C        2.977    -0.015    28.370     8.737
    26   6 C        2.921    -0.036    28.896     8.815
    27   6 C        2.921    -0.028    28.706     8.786
    28   6 C        2.917    -0.066    29.640     8.928
    29   6 C        2.866     0.148    24.778     8.159
    30   8 O        1.706    -0.262    18.349     5.784
    31   6 C        3.645     0.036    20.303     6.476
    32   6 C        2.924    -0.054    29.336     8.882
    33   8 O        0.859    -0.421    22.112     6.305
    34   6 C        3.781     0.092    19.080     6.223
    35   6 C        2.688     0.355    20.975     7.495
    36   8 O        1.659    -0.367    20.215     6.069
    37   8 O        0.856    -0.377    21.230     6.178
    38   7 N        2.768    -0.117    23.552     7.208
    39   6 C        2.766     0.277    22.322     7.737
    40   6 C        2.978    -0.011    28.276     8.722
    41   6 C        2.926    -0.047    29.157     8.855
    42   6 C        2.867     0.147    24.800     8.163
    43   8 O        1.706    -0.265    18.399     5.791
    44   6 C        3.645     0.038    20.270     6.471
    45   6 C        2.918    -0.066    29.646     8.929
    46   6 C        2.921    -0.030    28.743     8.792
    47   6 C        2.920    -0.042    29.041     8.837
    48   8 O        0.859    -0.423    22.154     6.311
    49   1 H        0.926     0.030     2.589     2.516
    50   1 H        0.926     0.034     2.532     2.488
    51   1 H        0.926     0.030     2.586     2.515
    52   1 H        0.926     0.033     2.550     2.497
    53   1 H        0.926     0.035     2.513     2.479
    54   1 H        0.926     0.037     2.489     2.467
    55   1 H        0.926     0.032     2.558     2.501
    56   1 H        0.924     0.058     2.224     2.332
    57   1 H        0.924     0.077     2.011     2.218
    58   1 H        0.926     0.040     2.449     2.447
    59   1 H        0.926     0.038     2.479     2.462
    60   1 H        0.926     0.033     2.550     2.497
    61   1 H        0.926     0.032     2.562     2.503
    62   1 H        0.926     0.033     2.542     2.493
    63   1 H        0.926     0.039     2.467     2.456
    64   1 H        0.926     0.056     2.246     2.344
    65   1 H        0.926     0.044     2.390     2.418
    66   1 H        0.926     0.041     2.434     2.440
    67   1 H        0.926     0.041     2.440     2.443
    68   1 H        0.924     0.042     2.426     2.436
    69   1 H        0.925     0.065     2.139     2.287
    70   1 H        0.924     0.043     2.406     2.426
    71   1 H        0.926     0.046     2.368     2.406
    72   1 H        0.923     0.095     1.831     2.116
    73   1 H        0.804     0.342     0.608     1.224
    74   1 H        0.926     0.057     2.238     2.340
    75   1 H        0.924     0.043     2.413     2.429
    76   1 H        0.925     0.064     2.154     2.295
    77   1 H        0.924     0.040     2.446     2.446
    78   1 H        0.926     0.040     2.454     2.450
    79   1 H        0.926     0.040     2.442     2.444
    80   1 H        0.926     0.040     2.451     2.448

Wiberg/Mayer (AO) data.
largest (>0.10) Wiberg bond orders for each atom

     #   Z sym  total        # sym  WBO       # sym  WBO       # sym  WBO
 ---------------------------------------------------------------------------
     1   6 C    3.990 --     2 C    1.560    10 C    1.297    49 H    0.968
     2   6 C    3.991 --     1 C    1.560     3 C    1.278    50 H    0.968
                             9 C    0.115
     3   6 C    3.990 --     4 C    1.282     2 C    1.278     8 C    1.248
     4   6 C    3.992 --     5 C    1.556     3 C    1.282    51 H    0.968
                             7 C    0.118
     5   6 C    3.989 --     4 C    1.556     6 C    1.320    52 H    0.971
     6   6 C    3.992 --     7 C    1.558     5 C    1.320    53 H    0.971
     7   6 C    3.990 --     6 C    1.558     8 C    1.278    54 H    0.968
                             4 C    0.118
     8   6 C    3.990 --     9 C    1.285     7 C    1.278     3 C    1.248
     9   6 C    3.991 --    10 C    1.521     8 C    1.285    55 H    0.964
                             2 C    0.115
    10   6 C    3.986 --     9 C    1.521     1 C    1.297    11 C    0.988
    11   6 C    3.965 --    10 C    0.988    38 N    0.961    12 C    0.961
                            56 H    0.951
    12   6 C    3.958 --    13 C    0.984    11 C    0.961    57 H    0.952
                            23 N    0.951
    13   6 C    3.984 --    14 C    1.532    22 C    1.288    12 C    0.984
    14   6 C    3.990 --    13 C    1.532    15 C    1.276    58 H    0.961
                            21 C    0.113
    15   6 C    3.990 --    16 C    1.280    14 C    1.276    20 C    1.253
    16   6 C    3.990 --    17 C    1.556    15 C    1.280    59 H    0.968
                            19 C    0.118
    17   6 C    3.992 --    16 C    1.556    18 C    1.322    60 H    0.971
    18   6 C    3.990 --    19 C    1.555    17 C    1.322    61 H    0.971
    19   6 C    3.992 --    18 C    1.555    20 C    1.282    62 H    0.968
                            16 C    0.118
    20   6 C    3.990 --    19 C    1.282    21 C    1.274    15 C    1.253
    21   6 C    3.991 --    22 C    1.568    20 C    1.274    63 H    0.967
                            14 C    0.113
    22   6 C    3.988 --    21 C    1.568    13 C    1.288    64 H    0.965
    23   7 N    3.474 --    24 C    1.211    34 C    0.993    12 C    0.951
                            33 O    0.190
    24   6 C    3.944 --    33 O    1.692    23 N    1.211    25 C    0.957
    25   6 C    3.986 --    32 C    1.433    26 C    1.387    24 C    0.957
                            28 C    0.102
    26   6 C    3.990 --    27 C    1.447    25 C    1.387    65 H    0.970
    27   6 C    3.991 --    26 C    1.447    28 C    1.438    66 H    0.970
                            32 C    0.108
    28   6 C    3.988 --    27 C    1.438    29 C    1.372    67 H    0.966
                            25 C    0.102
    29   6 C    3.938 --    28 C    1.372    32 C    1.347    30 O    1.072
    30   8 O    2.242 --    29 C    1.072    31 C    0.983
    31   6 C    3.944 --    30 O    0.983    69 H    0.979    70 H    0.977
                            68 H    0.977
    32   6 C    3.986 --    25 C    1.433    29 C    1.347    71 H    0.965
                            27 C    0.108
    33   8 O    2.017 --    24 C    1.692    23 N    0.190
    34   6 C    3.969 --    23 N    0.993    38 N    0.983    72 H    0.921
                            35 C    0.914
    35   6 C    3.919 --    37 O    1.787    36 O    1.148    34 C    0.914
    36   8 O    2.213 --    35 C    1.148    73 H    0.857    37 O    0.181
    37   8 O    2.067 --    35 C    1.787    36 O    0.181
    38   7 N    3.453 --    39 C    1.198    34 C    0.983    11 C    0.961
                            48 O    0.187
    39   6 C    3.944 --    48 O    1.696    38 N    1.198    40 C    0.967
    40   6 C    3.987 --    41 C    1.434    47 C    1.380    39 C    0.967
    41   6 C    3.987 --    40 C    1.434    42 C    1.349    74 H    0.966
                            46 C    0.107
    42   6 C    3.937 --    45 C    1.372    41 C    1.349    43 O    1.068
    43   8 O    2.238 --    42 C    1.068    44 C    0.984
    44   6 C    3.945 --    43 O    0.984    76 H    0.980    77 H    0.977
                            75 H    0.976
    45   6 C    3.987 --    46 C    1.433    42 C    1.372    78 H    0.966
    46   6 C    3.991 --    47 C    1.451    45 C    1.433    79 H    0.970
                            41 C    0.107
    47   6 C    3.989 --    46 C    1.451    40 C    1.380    80 H    0.969
    48   8 O    2.019 --    39 C    1.696    38 N    0.187
    49   1 H    0.999 --     1 C    0.968
    50   1 H    0.998 --     2 C    0.968
    51   1 H    0.999 --     4 C    0.968
    52   1 H    0.998 --     5 C    0.971
    53   1 H    0.998 --     6 C    0.971
    54   1 H    0.998 --     7 C    0.968
    55   1 H    0.998 --     9 C    0.964
    56   1 H    0.996 --    11 C    0.951
    57   1 H    0.993 --    12 C    0.952
    58   1 H    0.998 --    14 C    0.961
    59   1 H    0.998 --    16 C    0.968
    60   1 H    0.998 --    17 C    0.971
    61   1 H    0.999 --    18 C    0.971
    62   1 H    0.998 --    19 C    0.968
    63   1 H    0.998 --    21 C    0.967
    64   1 H    0.996 --    22 C    0.965
    65   1 H    0.998 --    26 C    0.970
    66   1 H    0.998 --    27 C    0.970
    67   1 H    0.998 --    28 C    0.966
    68   1 H    0.998 --    31 C    0.977
    69   1 H    0.995 --    31 C    0.979
    70   1 H    0.998 --    31 C    0.977
    71   1 H    0.998 --    32 C    0.965
    72   1 H    0.991 --    34 C    0.921
    73   1 H    0.883 --    36 O    0.857
    74   1 H    0.997 --    41 C    0.966
    75   1 H    0.998 --    44 C    0.976
    76   1 H    0.995 --    44 C    0.980
    77   1 H    0.998 --    44 C    0.977
    78   1 H    0.998 --    45 C    0.966
    79   1 H    0.998 --    46 C    0.970
    80   1 H    0.998 --    47 C    0.969
 ---------------------------------------------------------------------------

molecular dipole:
                 x           y           z       tot (Debye)
 q only:        0.350      -0.609       0.217
   full:        0.345      -0.486       0.002       1.515

           -------------------------------------------------
          | TOTAL ENERGY             -132.275756946933 Eh   |
          | GRADIENT NORM               0.000468461778 Eh/Î± |
          | HOMO-LUMO GAP               3.154649275579 eV   |
           -------------------------------------------------

 * finished run on 2022/03/17 at 02:12:31.056
