   * xtb version 6.3.3 (4ae9cef) compiled by 'conda@95abc7406d43' on 2020-10-14
          program call               : xtb acid_331.xyz --opt --chrg 0 --uhf 0 --gfn 2
          number of atoms            :                    66
          number of electrons        :                   206
          charge                     :                     0
          spin                       :                   0.0

   ID    Z sym.   atoms
    1    6 C      1-14, 16-18, 20-25, 27, 28, 32-34, 36-41
    2    7 N      15, 31
    3    8 O      19, 26, 29, 30, 35, 42
    4    1 H      43-66

          :  Hamiltonian                  GFN2-xTB          :
 * total energy  :  -115.3237265 Eh     change       -0.2711872E-08 Eh
 * total energy  :  -115.3372997 Eh     change       -0.1357322E-01 Eh
 * total energy  :  -115.3414862 Eh     change       -0.4186488E-02 Eh
 * total energy  :  -115.3427741 Eh     change       -0.1287882E-02 Eh
 * total energy  :  -115.3435636 Eh     change       -0.7895219E-03 Eh
 * total energy  :  -115.3439190 Eh     change       -0.3553817E-03 Eh
 * total energy  :  -115.3441848 Eh     change       -0.2658117E-03 Eh
 * total energy  :  -115.3444533 Eh     change       -0.2685317E-03 Eh
 * total energy  :  -115.3447293 Eh     change       -0.2759771E-03 Eh
 * total energy  :  -115.3449716 Eh     change       -0.2423188E-03 Eh
 * total energy  :  -115.3494911 Eh     change       -0.7324691E-05 Eh
 * total energy  :  -115.3494978 Eh     change       -0.6611366E-05 Eh
 * total energy  :  -115.3495057 Eh     change       -0.7925036E-05 Eh
 * total energy  :  -115.3495169 Eh     change       -0.1118051E-04 Eh
 * total energy  :  -115.3495311 Eh     change       -0.1421884E-04 Eh
 * total energy  :  -115.3495449 Eh     change       -0.1379952E-04 Eh
 * total energy  :  -115.3495553 Eh     change       -0.1038095E-04 Eh
 * total energy  :  -115.3495627 Eh     change       -0.7434584E-05 Eh
 * total energy  :  -115.3495671 Eh     change       -0.4390746E-05 Eh
   *** GEOMETRY OPTIMIZATION CONVERGED AFTER 77 ITERATIONS ***

 final structure:
================
66
 xtb: 6.3.3 (4ae9cef)
C        -2.62136698464347    1.78666953035829   -0.71051717852634
C        -3.70243432970368    2.61385249997572   -0.46178864283288
C        -3.91961358397742    3.10824936546133    0.81239821223251
C        -3.04566938477200    2.78164898241959    1.83642347434924
C        -1.96421433663269    1.95649602307672    1.58987788365161
C        -1.75256748200669    1.44301632838128    0.31544009247821
C        -0.57336412755785    0.55268135982705    0.04026723283566
C         0.75958757324845    1.32299907358935    0.18074868695856
C         1.18190131317887    1.93675171005851   -1.12527658155761
C         0.98158627982469    3.29042032815380   -1.35243289695817
C         1.32719412568166    3.85210178391332   -2.56843869765423
C         1.87730263148821    3.06591115604392   -3.56600513425680
C         2.07614383759672    1.71370027591539   -3.34549182487805
C         1.72281720887031    1.15013448533516   -2.13342919319772
N         1.68308849539460    0.29841262478664    0.64574416185628
C         3.00501775906209    0.60233137417495    0.82602476771861
C         3.83731190448773   -0.52013301021645    1.30059382832783
C         4.74907051277600   -0.47144620056659    2.30967872004995
O         5.37066975335870   -1.64622030866412    2.50571374013939
C         4.87740570479999   -2.50411546329689    1.58331654637687
C         3.91227915689196   -1.85938099684409    0.78445507215411
C         3.31258993424340   -2.55439457077325   -0.26382834110522
C         3.66711740184767   -3.87126867326992   -0.46045297513770
C         4.60697536390900   -4.50223865648168    0.35618165830087
C         5.23286723178619   -3.82949792217676    1.38563000112036
O         3.44765738880314    1.70290439616684    0.57171863838593
C         0.97267646536807   -0.74991034442344    1.33838493495719
C         1.16971310288059   -0.65929558695846    2.86581152213850
O         0.61558064427521    0.44999517768968    3.36842032856992
O         1.86846009368759   -1.39932448705449    3.49631450683171
N        -0.41496372640741   -0.54459250592181    0.98112251916651
C        -1.33700447893272   -1.12746045606295    1.78589186360522
C        -2.74208476384610   -1.00833815474532    1.36738874195612
C        -3.79535023199437   -0.69306357834307    2.16949307817314
O        -4.95900531758830   -0.63668825560405    1.49785909074411
C        -4.67951105849012   -0.95648519018238    0.21095492143959
C        -3.30244514618651   -1.21278436409271    0.05987552924731
C        -2.81046108751138   -1.62123153610772   -1.17735077217129
C        -3.69485500443557   -1.71446785706146   -2.23008349866355
C        -5.05061513398530   -1.42190162674683   -2.07209186763781
C        -5.56838663891638   -1.04719788406889   -0.84875286277098
O        -0.97858190409283   -1.74176911635946    2.77861204297863
H        -2.45613578356708    1.39870671740883   -1.70508999257738
H        -4.37789974882550    2.86737956759185   -1.26486540192916
H        -4.76728931793678    3.74748725253190    1.00824566665386
H        -3.20812356238194    3.17070258114854    2.83059382387845
H        -1.28956382194477    1.69356243279783    2.39172008046975
H        -0.64616307839366    0.15286540408184   -0.98080915277500
H         0.66088028253432    2.11036894586111    0.94081843835423
H         0.55743693263386    3.90511456575625   -0.57199346362193
H         1.17255477700821    4.90776667426325   -2.73499524376997
H         2.15521828394335    3.50629922621493   -4.51201567262865
H         2.50892510169398    1.09659699489513   -4.11911555106934
H         1.88458828880003    0.09580051095067   -1.96155201241345
H         5.01383953094615    0.33713639702631    2.96323580829332
H         2.60001528183955   -2.06909541960199   -0.91423476640071
H         3.21031200981641   -4.43186255340039   -1.26257148487385
H         4.85241941195447   -5.53695833671428    0.17208939377801
H         5.97028874259190   -4.30380966954141    2.01246535622106
H         1.30916341721596   -1.75317489751230    1.03667724061494
H         0.76219393587689    0.48335175918647    4.32705378675035
H        -3.82236747792512   -0.46407567685853    3.21718369488474
H        -1.76933754005014   -1.87634256940229   -1.30027631029520
H        -3.33713641037463   -2.02645861343540   -3.20013336672088
H        -5.70896317830755   -1.50468351962380   -2.92343733444125
H        -6.61737423893007   -0.84174950291502   -0.71050786576293

          :  Hamiltonian                  GFN2-xTB          :
         :: total energy            -115.349567087839 Eh    ::
         :: gradient norm              0.000831316353 Eh/a0 ::
         :: HOMO-LUMO gap              3.303439321163 eV    ::
         :: SCC energy              -117.084043657523 Eh    ::
         :: -> dispersion             -0.099932413421 Eh    ::
         :: repulsion energy           1.731315718330 Eh    ::

    * Orbital Energies and Occupations

         #    Occupation            Energy/Eh            Energy/eV
      -------------------------------------------------------------
         1        2.0000           -0.7566475             -20.5894
       ...           ...                  ...                  ...
        91        2.0000           -0.4292387             -11.6802
        92        2.0000           -0.4244035             -11.5486
        93        2.0000           -0.4217172             -11.4755
        94        2.0000           -0.4180892             -11.3768
        95        2.0000           -0.4154623             -11.3053
        96        2.0000           -0.4124954             -11.2246
        97        2.0000           -0.4101947             -11.1620
        98        2.0000           -0.4090059             -11.1296
        99        2.0000           -0.4052644             -11.0278
       100        2.0000           -0.4019842             -10.9385
       101        2.0000           -0.3989722             -10.8566
       102        2.0000           -0.3936386             -10.7115
       103        2.0000           -0.3908050             -10.6343 (HOMO)
       104                         -0.2694058              -7.3309 (LUMO)
       105                         -0.2563404              -6.9754
       106                         -0.2498731              -6.7994
       107                         -0.2430095              -6.6126
       108                         -0.2424725              -6.5980
       109                         -0.2371595              -6.4534
       110                         -0.2307719              -6.2796
       111                         -0.2302470              -6.2653
       112                         -0.2286226              -6.2211
       113                         -0.2268006              -6.1716
       114                         -0.2185873              -5.9481
       ...                                ...                  ...
       192                          0.7096334              19.3101
      -------------------------------------------------------------
                  HL-Gap            0.1213992 Eh            3.3034 eV

     #   Z          covCN         q      C6AA      Î±(0)
     1   6 C        2.924    -0.034    28.853     8.809
     2   6 C        2.920    -0.027    28.677     8.782
     3   6 C        2.920    -0.028    28.690     8.784
     4   6 C        2.920    -0.028    28.696     8.784
     5   6 C        2.923    -0.037    28.926     8.820
     6   6 C        2.973     0.001    28.006     8.681
     7   6 C        3.821     0.039    19.907     6.349
     8   6 C        3.833     0.050    19.719     6.318
     9   6 C        2.974     0.013    27.712     8.635
    10   6 C        2.924    -0.029    28.727     8.790
    11   6 C        2.920    -0.025    28.632     8.775
    12   6 C        2.921    -0.028    28.705     8.786
    13   6 C        2.920    -0.026    28.664     8.780
    14   6 C        2.924    -0.029    28.721     8.789
    15   7 N        2.764    -0.123    23.666     7.225
    16   6 C        2.760     0.274    22.367     7.745
    17   6 C        3.038    -0.059    29.433     8.899
    18   6 C        3.068     0.097    25.780     8.326
    19   8 O        1.721    -0.177    16.978     5.563
    20   6 C        3.129     0.129    25.001     8.186
    21   6 C        3.090    -0.012    28.204     8.705
    22   6 C        2.912    -0.037    28.918     8.818
    23   6 C        2.921    -0.035    28.880     8.813
    24   6 C        2.927    -0.032    28.802     8.801
    25   6 C        2.908    -0.045    29.127     8.850
    26   8 O        0.859    -0.419    22.060     6.297
    27   6 C        3.774     0.094    19.052     6.219
    28   6 C        2.688     0.365    20.802     7.464
    29   8 O        1.659    -0.373    20.330     6.087
    30   8 O        0.856    -0.390    21.484     6.214
    31   7 N        2.765    -0.109    23.378     7.181
    32   6 C        2.770     0.275    22.344     7.742
    33   6 C        3.038    -0.051    29.224     8.867
    34   6 C        3.062     0.094    25.862     8.339
    35   8 O        1.721    -0.185    17.099     5.583
    36   6 C        3.126     0.124    25.109     8.205
    37   6 C        3.088    -0.013    28.233     8.710
    38   6 C        2.912    -0.035    28.865     8.810
    39   6 C        2.921    -0.035    28.881     8.813
    40   6 C        2.927    -0.032    28.808     8.802
    41   6 C        2.908    -0.048    29.183     8.858
    42   8 O        0.861    -0.430    22.294     6.331
    43   1 H        0.926     0.032     2.560     2.502
    44   1 H        0.926     0.039     2.458     2.452
    45   1 H        0.926     0.041     2.440     2.443
    46   1 H        0.926     0.040     2.446     2.446
    47   1 H        0.926     0.047     2.363     2.404
    48   1 H        0.923     0.051     2.308     2.376
    49   1 H        0.923     0.055     2.254     2.348
    50   1 H        0.926     0.034     2.531     2.488
    51   1 H        0.926     0.039     2.468     2.457
    52   1 H        0.926     0.037     2.483     2.464
    53   1 H        0.926     0.037     2.487     2.466
    54   1 H        0.926     0.030     2.583     2.513
    55   1 H        0.926     0.065     2.142     2.288
    56   1 H        0.926     0.030     2.580     2.512
    57   1 H        0.926     0.040     2.452     2.449
    58   1 H        0.926     0.045     2.390     2.417
    59   1 H        0.926     0.054     2.273     2.358
    60   1 H        0.923     0.074     2.038     2.232
    61   1 H        0.804     0.340     0.612     1.229
    62   1 H        0.926     0.068     2.113     2.273
    63   1 H        0.926     0.038     2.481     2.463
    64   1 H        0.926     0.043     2.409     2.427
    65   1 H        0.926     0.046     2.365     2.405
    66   1 H        0.926     0.054     2.276     2.359

Wiberg/Mayer (AO) data.
largest (>0.10) Wiberg bond orders for each atom

     #   Z sym  total        # sym  WBO       # sym  WBO       # sym  WBO
 ---------------------------------------------------------------------------
     1   6 C    3.991 --     2 C    1.440     6 C    1.416    43 H    0.968
                             4 C    0.109
     2   6 C    3.992 --     3 C    1.442     1 C    1.440    44 H    0.970
                             5 C    0.112
     3   6 C    3.990 --     2 C    1.442     4 C    1.434    45 H    0.971
                             6 C    0.109
     4   6 C    3.991 --     5 C    1.450     3 C    1.434    46 H    0.970
                             1 C    0.109
     5   6 C    3.990 --     4 C    1.450     6 C    1.406    47 H    0.964
                             2 C    0.112
     6   6 C    3.986 --     1 C    1.416     5 C    1.406     7 C    0.994
                             3 C    0.109
     7   6 C    3.964 --     6 C    0.994    31 N    0.959    48 H    0.951
                             8 C    0.947
     8   6 C    3.965 --     9 C    0.992    15 N    0.960    49 H    0.951
                             7 C    0.947
     9   6 C    3.984 --    10 C    1.414    14 C    1.410     8 C    0.992
                            12 C    0.109
    10   6 C    3.990 --    11 C    1.443     9 C    1.414    50 H    0.969
                            13 C    0.111
    11   6 C    3.992 --    10 C    1.443    12 C    1.440    51 H    0.971
                            14 C    0.111
    12   6 C    3.991 --    11 C    1.440    13 C    1.437    52 H    0.971
                             9 C    0.109
    13   6 C    3.992 --    14 C    1.447    12 C    1.437    53 H    0.971
                            10 C    0.111
    14   6 C    3.991 --    13 C    1.447     9 C    1.410    54 H    0.967
                            11 C    0.111
    15   7 N    3.435 --    16 C    1.178    27 C    0.982     8 C    0.960
                            26 O    0.180
    16   6 C    3.949 --    26 O    1.693    15 N    1.178    17 C    0.996
    17   6 C    3.976 --    18 C    1.600    21 C    1.164    16 C    0.996
    18   6 C    3.922 --    17 C    1.600    19 O    1.136    55 H    0.964
    19   8 O    2.433 --    18 C    1.136    20 C    1.082
    20   6 C    3.921 --    25 C    1.354    21 C    1.279    19 O    1.082
    21   6 C    3.985 --    22 C    1.335    20 C    1.279    17 C    1.164
    22   6 C    3.991 --    23 C    1.496    21 C    1.335    56 H    0.966
                            25 C    0.115
    23   6 C    3.990 --    22 C    1.496    24 C    1.384    57 H    0.971
    24   6 C    3.990 --    25 C    1.483    23 C    1.384    58 H    0.971
    25   6 C    3.987 --    24 C    1.483    20 C    1.354    59 H    0.967
                            22 C    0.115
    26   8 O    2.020 --    16 C    1.693    15 N    0.180
    27   6 C    3.964 --    15 N    0.982    31 N    0.979    60 H    0.940
                            28 C    0.909
    28   6 C    3.922 --    30 O    1.774    29 O    1.130    27 C    0.909
    29   8 O    2.195 --    28 C    1.130    61 H    0.860    30 O    0.169
    30   8 O    2.060 --    28 C    1.774    29 O    0.169
    31   7 N    3.466 --    32 C    1.220    27 C    0.979     7 C    0.959
                            42 O    0.183
    32   6 C    3.948 --    42 O    1.638    31 N    1.220    33 C    1.003
    33   6 C    3.978 --    34 C    1.599    37 C    1.161    32 C    1.003
    34   6 C    3.919 --    33 C    1.599    35 O    1.133    62 H    0.964
    35   8 O    2.425 --    34 C    1.133    36 C    1.077
    36   6 C    3.919 --    41 C    1.355    37 C    1.281    35 O    1.077
    37   6 C    3.984 --    38 C    1.338    36 C    1.281    33 C    1.161
    38   6 C    3.991 --    39 C    1.496    37 C    1.338    63 H    0.967
                            41 C    0.116
    39   6 C    3.990 --    38 C    1.496    40 C    1.385    64 H    0.970
    40   6 C    3.989 --    41 C    1.482    39 C    1.385    65 H    0.971
    41   6 C    3.987 --    40 C    1.482    36 C    1.355    66 H    0.967
                            38 C    0.116
    42   8 O    2.039 --    32 C    1.638    31 N    0.183
    43   1 H    0.999 --     1 C    0.968
    44   1 H    0.998 --     2 C    0.970
    45   1 H    0.998 --     3 C    0.971
    46   1 H    0.998 --     4 C    0.970
    47   1 H    0.998 --     5 C    0.964
    48   1 H    0.997 --     7 C    0.951
    49   1 H    0.996 --     8 C    0.951
    50   1 H    0.999 --    10 C    0.969
    51   1 H    0.998 --    11 C    0.971
    52   1 H    0.998 --    12 C    0.971
    53   1 H    0.998 --    13 C    0.971
    54   1 H    0.999 --    14 C    0.967
    55   1 H    0.995 --    18 C    0.964
    56   1 H    0.999 --    22 C    0.966
    57   1 H    0.998 --    23 C    0.971
    58   1 H    0.998 --    24 C    0.971
    59   1 H    0.996 --    25 C    0.967
    60   1 H    0.993 --    27 C    0.940
    61   1 H    0.884 --    29 O    0.860
    62   1 H    0.995 --    34 C    0.964
    63   1 H    0.999 --    38 C    0.967
    64   1 H    0.998 --    39 C    0.970
    65   1 H    0.997 --    40 C    0.971
    66   1 H    0.997 --    41 C    0.967
 ---------------------------------------------------------------------------

molecular dipole:
                 x           y           z       tot (Debye)
 q only:       -1.606       0.532      -1.593
   full:       -1.704       0.536      -1.235       5.519

           -------------------------------------------------
          | TOTAL ENERGY             -115.349567087839 Eh   |
          | GRADIENT NORM               0.000831316353 Eh/Î± |
          | HOMO-LUMO GAP               3.303439321163 eV   |
           -------------------------------------------------

 * finished run on 2022/03/16 at 23:54:34.261
