   * xtb version 6.3.3 (4ae9cef) compiled by 'conda@95abc7406d43' on 2020-10-14
          program call               : xtb sub_8.xyz --opt --chrg 0 --uhf 0 --gfn 2
          number of atoms            :                    28
          number of electrons        :                    84
          charge                     :                     0
          spin                       :                   0.0

   ID    Z sym.   atoms
    1   53 I      1
    2    6 C      2-5, 7-9, 11-17
    3    7 N      6, 10
    4    1 H      18-28

          :  Hamiltonian                  GFN2-xTB          :
 * total energy  :   -45.2582704 Eh     change       -0.3738094E-09 Eh
 * total energy  :   -45.2653837 Eh     change       -0.7113289E-02 Eh
 * total energy  :   -45.2666890 Eh     change       -0.1305272E-02 Eh
 * total energy  :   -45.2668468 Eh     change       -0.1577895E-03 Eh
 * total energy  :   -45.2669247 Eh     change       -0.7789313E-04 Eh
 * total energy  :   -45.2669370 Eh     change       -0.1230145E-04 Eh
 * total energy  :   -45.2669734 Eh     change       -0.3638617E-04 Eh
 * total energy  :   -45.2669966 Eh     change       -0.2324944E-04 Eh
 * total energy  :   -45.2670016 Eh     change       -0.4935476E-05 Eh
   *** GEOMETRY OPTIMIZATION CONVERGED AFTER 9 ITERATIONS ***

 final structure:
================
28
 xtb: 6.3.3 (4ae9cef)
I        -6.01067768270825    2.25383516256418   -0.29619995414464
C        -4.14058025320443    1.25544112786623   -0.19951140632072
C        -4.11738093893202   -0.11328451144868   -0.07647055783100
C        -2.87218746154400   -0.73306006055157   -0.01616483614104
C        -1.68265003594500    0.03160286829539   -0.08025003354372
N        -0.61240435202519   -0.84215924851958    0.00199618031081
C        -1.12617170092604   -2.11782240233837    0.11453937908739
C        -2.48081345546691   -2.09719382550418    0.10772103197583
C         0.73678630294775   -0.51108822856928   -0.02187513743997
N         1.03081881678888    0.77934112814061   -0.12747506246399
C         2.29425199547409    1.15575520158078   -0.15423160607409
C         3.37049115366236    0.28169773597801   -0.07868019053125
C         4.78480103557064    0.76284584478135   -0.13516067095728
C         3.05858281446589   -1.07092091247033    0.03268958900700
C         1.74177364763772   -1.48185150213077    0.06272505722865
C        -1.73460824516410    1.41398866116869   -0.20501166476908
C        -2.97488390127155    2.01579822604530   -0.26373339967227
H        -5.02389058031039   -0.69615431759569   -0.02749991462889
H        -0.48562648307540   -2.97285619062442    0.19415104009546
H        -3.13462217622000   -2.94299761786910    0.18138099772124
H         2.45048540656504    2.22378767886758   -0.23957704251320
H         4.86729912671450    1.76917952832948    0.26851831875330
H         5.44067146930732    0.09947241415574    0.42429950616616
H         5.12978660839807    0.78472674408374   -1.16950792054050
H         3.85088573961266   -1.80333239658947    0.09781992504079
H         1.51323930388395   -2.53054956379004    0.15094453152222
H        -0.83199961188693    1.99742674343772   -0.25397454682481
H        -3.04137754234870    3.08836971270677   -0.36048261251248

          :  Hamiltonian                  GFN2-xTB          :
         :: total energy             -45.267001551678 Eh    ::
         :: gradient norm              0.000680654738 Eh/a0 ::
         :: HOMO-LUMO gap              3.104307722915 eV    ::
         :: SCC energy               -46.009112606311 Eh    ::
         :: -> dispersion             -0.032533072306 Eh    ::
         :: repulsion energy           0.742338859266 Eh    ::

    * Orbital Energies and Occupations

         #    Occupation            Energy/Eh            Energy/eV
      -------------------------------------------------------------
         1        2.0000           -0.7241908             -19.7062
       ...           ...                  ...                  ...
        30        2.0000           -0.4772651             -12.9870
        31        2.0000           -0.4707075             -12.8086
        32        2.0000           -0.4568981             -12.4328
        33        2.0000           -0.4443424             -12.0912
        34        2.0000           -0.4429915             -12.0544
        35        2.0000           -0.4396693             -11.9640
        36        2.0000           -0.4312868             -11.7359
        37        2.0000           -0.4256858             -11.5835
        38        2.0000           -0.4067227             -11.0675
        39        2.0000           -0.3973231             -10.8117
        40        2.0000           -0.3865510             -10.5186
        41        2.0000           -0.3811101             -10.3705
        42        2.0000           -0.3765552             -10.2466 (HOMO)
        43                         -0.2624740              -7.1423 (LUMO)
        44                         -0.2536437              -6.9020
        45                         -0.2397570              -6.5241
        46                         -0.2128701              -5.7925
        47                         -0.2084072              -5.6710
        48                         -0.1695365              -4.6133
        49                         -0.1125566              -3.0628
        50                         -0.0859232              -2.3381
        51                          0.0050192               0.1366
        52                          0.0356863               0.9711
        53                          0.0376513               1.0245
       ...                                ...                  ...
        84                          0.7133933              19.4124
      -------------------------------------------------------------
                  HL-Gap            0.1140812 Eh            3.1043 eV

     #   Z          covCN         q      C6AA      Î±(0)
     1  53 I        1.226    -0.152   383.227    33.793
     2   6 C        2.959     0.051    26.860     8.501
     3   6 C        3.046    -0.041    28.976     8.829
     4   6 C        3.121    -0.007    28.006     8.667
     5   6 C        3.085     0.043    26.933     8.507
     6   7 N        2.824    -0.012    21.479     6.883
     7   6 C        3.041    -0.004    28.075     8.691
     8   6 C        2.998    -0.065    29.617     8.927
     9   6 C        2.895     0.142    24.909     8.183
    10   7 N        1.845    -0.246    27.267     7.739
    11   6 C        2.910     0.052    26.835     8.494
    12   6 C        2.960     0.002    27.991     8.678
    13   6 C        3.757    -0.110    22.664     6.788
    14   6 C        2.935    -0.022    28.554     8.764
    15   6 C        2.914    -0.059    29.470     8.902
    16   6 C        2.912    -0.045    29.112     8.847
    17   6 C        3.053    -0.040    28.943     8.823
    18   1 H        0.926     0.047     2.352     2.398
    19   1 H        0.926     0.040     2.452     2.449
    20   1 H        0.926     0.040     2.446     2.446
    21   1 H        0.925     0.041     2.431     2.438
    22   1 H        0.925     0.048     2.345     2.394
    23   1 H        0.925     0.048     2.344     2.394
    24   1 H        0.924     0.053     2.281     2.362
    25   1 H        0.926     0.038     2.470     2.458
    26   1 H        0.926     0.039     2.467     2.456
    27   1 H        0.926     0.070     2.091     2.261
    28   1 H        0.926     0.049     2.338     2.391

Wiberg/Mayer (AO) data.
largest (>0.10) Wiberg bond orders for each atom

     #   Z sym  total        # sym  WBO       # sym  WBO       # sym  WBO
 ---------------------------------------------------------------------------
     1  53 I    1.058 --     2 C    0.957
     2   6 C    3.941 --     3 C    1.476    17 C    1.370     1 I    0.957
     3   6 C    3.989 --     2 C    1.476     4 C    1.334    18 H    0.968
                            16 C    0.108
     4   6 C    3.982 --     3 C    1.334     5 C    1.258     8 C    1.200
     5   6 C    3.957 --    16 C    1.356     4 C    1.258     6 N    1.123
     6   7 N    3.633 --     7 C    1.155     5 C    1.123     9 C    1.088
     7   6 C    3.952 --     8 C    1.641     6 N    1.155    19 H    0.964
     8   6 C    3.967 --     7 C    1.641     4 C    1.200    20 H    0.972
     9   6 C    3.968 --    10 N    1.369    15 C    1.334     6 N    1.088
    10   7 N    3.067 --    11 C    1.440     9 C    1.369
    11   6 C    3.981 --    10 N    1.440    12 C    1.399    21 H    0.962
                            15 C    0.109
    12   6 C    3.972 --    11 C    1.399    14 C    1.388    13 C    1.028
    13   6 C    3.995 --    12 C    1.028    22 H    0.981    23 H    0.981
                            24 H    0.965
    14   6 C    3.990 --    15 C    1.477    12 C    1.388    25 H    0.968
    15   6 C    3.986 --    14 C    1.477     9 C    1.334    26 H    0.963
                            11 C    0.109
    16   6 C    3.987 --    17 C    1.475     5 C    1.356    27 H    0.957
                             3 C    0.108
    17   6 C    3.986 --    16 C    1.475     2 C    1.370    28 H    0.970
    18   1 H    0.997 --     3 C    0.968
    19   1 H    0.997 --     7 C    0.964
    20   1 H    0.997 --     8 C    0.972
    21   1 H    0.998 --    11 C    0.962
    22   1 H    0.997 --    13 C    0.981
    23   1 H    0.997 --    13 C    0.981
    24   1 H    0.995 --    13 C    0.965
    25   1 H    0.998 --    14 C    0.968
    26   1 H    0.998 --    15 C    0.963
    27   1 H    0.995 --    16 C    0.957
    28   1 H    0.997 --    17 C    0.970
 ---------------------------------------------------------------------------

molecular dipole:
                 x           y           z       tot (Debye)
 q only:        1.796      -0.676       0.051
   full:        2.766      -1.293       0.098       7.764

           -------------------------------------------------
          | TOTAL ENERGY              -45.267001551678 Eh   |
          | GRADIENT NORM               0.000680654738 Eh/Î± |
          | HOMO-LUMO GAP               3.104307722915 eV   |
           -------------------------------------------------

 * finished run on 2022/03/17 at 02:20:39.046
