   * xtb version 6.3.3 (4ae9cef) compiled by 'conda@95abc7406d43' on 2020-10-14
          program call               : xtb acid_67.xyz --opt --chrg 0 --uhf 0 --gfn 2
          number of atoms            :                    68
          number of electrons        :                   214
          charge                     :                     0
          spin                       :                   0.0

   ID    Z sym.   atoms
    1    6 C      1, 3-16, 18, 20-22, 24-27, 29, 30, 34-40
    2    8 O      2, 17, 28, 31, 32, 42
    3    7 N      19, 33
    4   17 Cl     23, 41
    5    1 H      43-68

          :  Hamiltonian                  GFN2-xTB          :
 * total energy  :  -121.1633286 Eh     change       -0.8163468E-08 Eh
 * total energy  :  -121.1779837 Eh     change       -0.1465510E-01 Eh
 * total energy  :  -121.1827477 Eh     change       -0.4764054E-02 Eh
 * total energy  :  -121.1841097 Eh     change       -0.1362020E-02 Eh
 * total energy  :  -121.1849662 Eh     change       -0.8564675E-03 Eh
 * total energy  :  -121.1854010 Eh     change       -0.4348256E-03 Eh
 * total energy  :  -121.1857263 Eh     change       -0.3253074E-03 Eh
 * total energy  :  -121.1861078 Eh     change       -0.3814755E-03 Eh
 * total energy  :  -121.1865362 Eh     change       -0.4283528E-03 Eh
 * total energy  :  -121.1869726 Eh     change       -0.4364783E-03 Eh
 * total energy  :  -121.1931295 Eh     change       -0.2883226E-04 Eh
 * total energy  :  -121.1931449 Eh     change       -0.1539803E-04 Eh
 * total energy  :  -121.1931532 Eh     change       -0.8361608E-05 Eh
 * total energy  :  -121.1931593 Eh     change       -0.6100078E-05 Eh
 * total energy  :  -121.1931663 Eh     change       -0.6949527E-05 Eh
 * total energy  :  -121.1931714 Eh     change       -0.5171364E-05 Eh
 * total energy  :  -121.1931772 Eh     change       -0.5771440E-05 Eh
 * total energy  :  -121.1931828 Eh     change       -0.5544870E-05 Eh
 * total energy  :  -121.1931876 Eh     change       -0.4847471E-05 Eh
   *** GEOMETRY OPTIMIZATION CONVERGED AFTER 49 ITERATIONS ***

 final structure:
================
68
 xtb: 6.3.3 (4ae9cef)
C        -0.67690544168844   -2.70424291286704    0.84535907694592
O        -0.31994730157263   -1.83240442346741    1.83543886978140
C        -0.71108516063419   -2.11224347150501    3.15716681612969
C        -1.36581235730623   -3.89046151342991    1.06109837850317
C        -1.69646314614020   -4.70926234245132   -0.00559794350334
C        -1.34584964232919   -4.35660604171462   -1.29392725716640
C        -0.65312150102904   -3.17813110871639   -1.51198935252897
C        -0.31196623892572   -2.34614566686816   -0.46125117920664
C         0.41508453504406   -1.05261664683839   -0.72191450886448
C        -0.47066597580046    0.17380307987816   -0.41468729203570
C        -0.89233990054673    0.89532757912099   -1.66791291125065
C         0.05485035970999    1.50196086020844   -2.47700855124368
C        -0.32165392009367    2.17699811035263   -3.62449732035948
C        -1.65900683087223    2.23888322557965   -3.96821304582555
C        -2.61874311110855    1.63098126190129   -3.17744415178662
C        -2.24743722619363    0.95210138147164   -2.02280218131673
O        -3.11952857000233    0.33285194431334   -1.17953639657817
C        -4.49601866359446    0.39673715916466   -1.46329815779549
N         0.36442068954422    1.00203836029495    0.43467065827452
C         0.22459119382792    2.31337049460344    0.70249472524927
C        -1.07394699551517    2.93131128957179    0.28964687279748
C        -2.26891257493579    2.56599469154629    0.90051407153130
Cl       -2.26617941097523    1.37767801439101    2.15128316090576
C        -3.46480292421015    3.16346921711337    0.53746831824340
C        -3.46800184667904    4.13564356878550   -0.44683282356374
C        -2.28116437142579    4.53035743819330   -1.04285310185961
C        -1.08969933113413    3.94121831794727   -0.66453654755434
O         1.10844934297841    2.94190418489787    1.25800004186899
C         1.54232113334327    0.32026524520370    0.91451887067807
C         2.79106662641545    1.20891352717975    0.72757625125799
O         2.89561341197091    1.63927204955346   -0.52888368805940
O         3.61153647284659    1.40207200837700    1.57731433371927
N         1.58368058889505   -0.88737790479748    0.13333162005282
C         2.52276040227514   -1.85959361240299    0.19581431214509
C         3.60717811017031   -1.62339890430349    1.20498374646698
C         3.38335164376703   -1.90129825383681    2.54645820890377
C         4.39776623195074   -1.74078636046273    3.47247571738923
C         5.64632522243306   -1.30456669042260    3.06289770643639
C         5.88773543684738   -1.02822252310082    1.72925271964525
C         4.86680173104413   -1.19298452195124    0.80975751654397
Cl        5.13885171407553   -0.82192723717120   -0.85387825593099
O         2.48205794492469   -2.85041562410989   -0.50206878016721
H        -0.35707638300395   -1.27198362766544    3.75371632196720
H        -0.25620552899572   -3.03704660910876    3.52737381342097
H        -1.79962583731017   -2.18083615193705    3.24799664871640
H        -1.64818575722674   -4.18879529467205    2.05833796506146
H        -2.23011222283237   -5.62920019044599    0.18174803635302
H        -1.60207109886155   -4.99627107869360   -2.12405766913377
H        -0.36474241695766   -2.89871405200486   -2.51403832484166
H         0.74283655500424   -1.04178771793046   -1.76906788230575
H        -1.36321570785724   -0.14633610942860    0.13322542891851
H         1.09493422187796    1.45697922179610   -2.18975937570754
H         0.42358327766939    2.64999418389239   -4.24481442874218
H        -1.96660276424346    2.76282250631706   -4.86070719423882
H        -3.65474495646176    1.69265853082092   -3.46936137104306
H        -4.73428804696997   -0.09796236004655   -2.40982886246808
H        -4.85071728824123    1.43189625964159   -1.48881582195457
H        -4.98553050958590   -0.13399711262910   -0.64833973692686
H        -4.37915114395810    2.86673340115733    1.02754403599127
H        -4.40029810845749    4.59663536268669   -0.73710214182979
H        -2.28418937998297    5.30084410377146   -1.79798867673389
H        -0.15701886226292    4.24570259457559   -1.11294384096829
H         1.46048760822842    0.10978484945404    1.99472436036608
H         3.69327000953180    2.18335712030813   -0.62938873866215
H         2.40731402616728   -2.24681510437006    2.85322150480863
H         4.21356095038918   -1.95331381534148    4.51460904629415
H         6.43804171987935   -1.17378441279874    3.78452933876696
H         6.85456129510810   -0.68103274658396    1.40080001801755

          :  Hamiltonian                  GFN2-xTB          :
         :: total energy            -121.193187607727 Eh    ::
         :: gradient norm              0.000510475298 Eh/a0 ::
         :: HOMO-LUMO gap              3.317239283401 eV    ::
         :: SCC energy              -122.829773997266 Eh    ::
         :: -> dispersion             -0.108949769404 Eh    ::
         :: repulsion energy           1.631969262072 Eh    ::

    * Orbital Energies and Occupations

         #    Occupation            Energy/Eh            Energy/eV
      -------------------------------------------------------------
         1        2.0000           -1.0638065             -28.9476
       ...           ...                  ...                  ...
        95        2.0000           -0.4278969             -11.6437
        96        2.0000           -0.4174928             -11.3606
        97        2.0000           -0.4169750             -11.3465
        98        2.0000           -0.4147626             -11.2863
        99        2.0000           -0.4107310             -11.1766
       100        2.0000           -0.4086464             -11.1198
       101        2.0000           -0.4046757             -11.0118
       102        2.0000           -0.4033971             -10.9770
       103        2.0000           -0.3961698             -10.7803
       104        2.0000           -0.3944571             -10.7337
       105        2.0000           -0.3924243             -10.6784
       106        2.0000           -0.3892077             -10.5909
       107        2.0000           -0.3823266             -10.4036 (HOMO)
       108                         -0.2604203              -7.0864 (LUMO)
       109                         -0.2500214              -6.8034
       110                         -0.2467957              -6.7157
       111                         -0.2418558              -6.5812
       112                         -0.2355138              -6.4087
       113                         -0.2350185              -6.3952
       114                         -0.2296137              -6.2481
       115                         -0.2277150              -6.1964
       116                         -0.2184040              -5.9431
       117                         -0.2147035              -5.8424
       118                         -0.2082903              -5.6679
       ...                                ...                  ...
       204                          0.6621252              18.0173
      -------------------------------------------------------------
                  HL-Gap            0.1219063 Eh            3.3172 eV

     #   Z          covCN         q      C6AA      Î±(0)
     1   6 C        2.867     0.142    24.911     8.181
     2   8 O        1.705    -0.279    18.626     5.827
     3   6 C        3.642     0.043    20.190     6.460
     4   6 C        2.917    -0.065    29.606     8.923
     5   6 C        2.921    -0.030    28.749     8.793
     6   6 C        2.918    -0.037    28.927     8.820
     7   6 C        2.925    -0.027    28.671     8.781
     8   6 C        2.972    -0.010    28.267     8.721
     9   6 C        3.824     0.052    19.693     6.315
    10   6 C        3.815     0.037    19.945     6.356
    11   6 C        2.973    -0.025    28.634     8.777
    12   6 C        2.924    -0.038    28.949     8.823
    13   6 C        2.917    -0.041    29.012     8.833
    14   6 C        2.921    -0.032    28.795     8.800
    15   6 C        2.918    -0.067    29.674     8.933
    16   6 C        2.867     0.136    25.023     8.200
    17   8 O        1.705    -0.274    18.546     5.814
    18   6 C        3.644     0.037    20.293     6.476
    19   7 N        2.768    -0.088    22.964     7.117
    20   6 C        2.770     0.277    22.310     7.736
    21   6 C        3.009    -0.018    28.433     8.747
    22   6 C        2.891     0.100    25.789     8.326
    23  17 Cl       0.968    -0.164   104.288    15.623
    24   6 C        2.957    -0.037    28.917     8.820
    25   6 C        2.922    -0.027    28.678     8.782
    26   6 C        2.918    -0.031    28.764     8.795
    27   6 C        2.926    -0.020    28.498     8.754
    28   8 O        0.860    -0.427    22.232     6.322
    29   6 C        3.761     0.096    19.041     6.221
    30   6 C        2.687     0.368    20.760     7.457
    31   8 O        1.659    -0.361    20.104     6.053
    32   8 O        0.856    -0.386    21.398     6.202
    33   7 N        2.763    -0.099    23.187     7.152
    34   6 C        2.764     0.279    22.279     7.730
    35   6 C        3.015    -0.026    28.624     8.776
    36   6 C        2.926    -0.024    28.598     8.770
    37   6 C        2.918    -0.027    28.674     8.781
    38   6 C        2.923    -0.021    28.528     8.759
    39   6 C        2.954    -0.032    28.786     8.800
    40   6 C        2.893     0.103    25.719     8.315
    41  17 Cl       0.971    -0.172   104.560    15.644
    42   8 O        0.859    -0.417    22.021     6.292
    43   1 H        0.925     0.060     2.204     2.322
    44   1 H        0.924     0.039     2.462     2.454
    45   1 H        0.924     0.042     2.422     2.434
    46   1 H        0.926     0.039     2.456     2.451
    47   1 H        0.926     0.039     2.456     2.451
    48   1 H        0.926     0.041     2.432     2.439
    49   1 H        0.926     0.044     2.397     2.421
    50   1 H        0.924     0.064     2.154     2.295
    51   1 H        0.924     0.079     1.986     2.204
    52   1 H        0.926     0.058     2.223     2.332
    53   1 H        0.926     0.043     2.409     2.427
    54   1 H        0.926     0.042     2.427     2.436
    55   1 H        0.926     0.041     2.436     2.441
    56   1 H        0.924     0.045     2.380     2.413
    57   1 H        0.924     0.042     2.422     2.434
    58   1 H        0.925     0.066     2.128     2.281
    59   1 H        0.926     0.061     2.186     2.312
    60   1 H        0.926     0.049     2.328     2.386
    61   1 H        0.926     0.051     2.306     2.374
    62   1 H        0.926     0.057     2.229     2.335
    63   1 H        0.923     0.071     2.070     2.250
    64   1 H        0.804     0.344     0.603     1.220
    65   1 H        0.926     0.046     2.369     2.407
    66   1 H        0.926     0.049     2.329     2.387
    67   1 H        0.926     0.053     2.280     2.361
    68   1 H        0.926     0.064     2.156     2.296

Wiberg/Mayer (AO) data.
largest (>0.10) Wiberg bond orders for each atom

     #   Z sym  total        # sym  WBO       # sym  WBO       # sym  WBO
 ---------------------------------------------------------------------------
     1   6 C    3.934 --     4 C    1.386     8 C    1.325     2 O    1.053
     2   8 O    2.223 --     1 C    1.053     3 C    0.984
     3   6 C    3.946 --     2 O    0.984    43 H    0.979    45 H    0.976
                            44 H    0.976
     4   6 C    3.988 --     5 C    1.432     1 C    1.386    46 H    0.965
                             7 C    0.103
     5   6 C    3.990 --     6 C    1.446     4 C    1.432    47 H    0.971
                             8 C    0.107
     6   6 C    3.991 --     5 C    1.446     7 C    1.425    48 H    0.970
     7   6 C    3.989 --     8 C    1.438     6 C    1.425    49 H    0.967
                             4 C    0.103
     8   6 C    3.983 --     7 C    1.438     1 C    1.325     9 C    0.991
                             5 C    0.107
     9   6 C    3.965 --     8 C    0.991    33 N    0.954    50 H    0.954
                            10 C    0.953
    10   6 C    3.962 --    11 C    0.992    19 N    0.960     9 C    0.953
                            51 H    0.945
    11   6 C    3.982 --    12 C    1.431    16 C    1.326    10 C    0.992
                            14 C    0.106
    12   6 C    3.988 --    11 C    1.431    13 C    1.431    52 H    0.964
                            15 C    0.103
    13   6 C    3.991 --    14 C    1.439    12 C    1.431    53 H    0.970
    14   6 C    3.990 --    13 C    1.439    15 C    1.438    54 H    0.971
                            11 C    0.106
    15   6 C    3.987 --    14 C    1.438    16 C    1.377    55 H    0.965
                            12 C    0.103
    16   6 C    3.935 --    15 C    1.377    11 C    1.326    17 O    1.062
    17   8 O    2.233 --    16 C    1.062    18 C    0.981
    18   6 C    3.942 --    17 O    0.981    58 H    0.979    56 H    0.976
                            57 H    0.975
    19   7 N    3.498 --    20 C    1.249    29 C    0.979    10 C    0.960
                            28 O    0.195
    20   6 C    3.950 --    28 O    1.651    19 N    1.249    21 C    0.961
    21   6 C    3.987 --    27 C    1.400    22 C    1.374    20 C    0.961
                            25 C    0.106
    22   6 C    3.922 --    24 C    1.404    21 C    1.374    23 Cl   0.979
    23  17 Cl   1.125 --    22 C    0.979
    24   6 C    3.988 --    25 C    1.442    22 C    1.404    59 H    0.966
                            27 C    0.109
    25   6 C    3.991 --    24 C    1.442    26 C    1.430    60 H    0.969
                            21 C    0.106
    26   6 C    3.991 --    27 C    1.446    25 C    1.430    61 H    0.969
    27   6 C    3.988 --    26 C    1.446    21 C    1.400    62 H    0.967
                            24 C    0.109
    28   8 O    2.037 --    20 C    1.651    19 N    0.195
    29   6 C    3.964 --    33 N    0.986    19 N    0.979    63 H    0.940
                            30 C    0.908
    30   6 C    3.925 --    32 O    1.778    31 O    1.146    29 C    0.908
    31   8 O    2.213 --    30 C    1.146    64 H    0.856    32 O    0.175
    32   8 O    2.064 --    30 C    1.778    31 O    0.175
    33   7 N    3.480 --    34 C    1.223    29 C    0.986     9 C    0.954
                            42 O    0.196
    34   6 C    3.950 --    42 O    1.691    33 N    1.223    35 C    0.951
    35   6 C    3.987 --    36 C    1.405    40 C    1.379    34 C    0.951
                            38 C    0.108
    36   6 C    3.990 --    37 C    1.441    35 C    1.405    65 H    0.967
                            39 C    0.109
    37   6 C    3.991 --    36 C    1.441    38 C    1.434    66 H    0.969
                            40 C    0.101
    38   6 C    3.990 --    39 C    1.440    37 C    1.434    67 H    0.969
                            35 C    0.108
    39   6 C    3.987 --    38 C    1.440    40 C    1.406    68 H    0.966
                            36 C    0.109
    40   6 C    3.920 --    39 C    1.406    35 C    1.379    41 Cl   0.974
                            37 C    0.101
    41  17 Cl   1.113 --    40 C    0.974
    42   8 O    2.025 --    34 C    1.691    33 N    0.196
    43   1 H    0.996 --     3 C    0.979
    44   1 H    0.998 --     3 C    0.976
    45   1 H    0.998 --     3 C    0.976
    46   1 H    0.998 --     4 C    0.965
    47   1 H    0.998 --     5 C    0.971
    48   1 H    0.998 --     6 C    0.970
    49   1 H    0.997 --     7 C    0.967
    50   1 H    0.995 --     9 C    0.954
    51   1 H    0.993 --    10 C    0.945
    52   1 H    0.996 --    12 C    0.964
    53   1 H    0.998 --    13 C    0.970
    54   1 H    0.998 --    14 C    0.971
    55   1 H    0.998 --    15 C    0.965
    56   1 H    0.998 --    18 C    0.976
    57   1 H    0.998 --    18 C    0.975
    58   1 H    0.995 --    18 C    0.979
    59   1 H    0.996 --    24 C    0.966
    60   1 H    0.997 --    25 C    0.969
    61   1 H    0.996 --    26 C    0.969
    62   1 H    0.997 --    27 C    0.967
    63   1 H    0.994 --    29 C    0.940
    64   1 H    0.882 --    31 O    0.856
    65   1 H    0.998 --    36 C    0.967
    66   1 H    0.996 --    37 C    0.969
    67   1 H    0.997 --    38 C    0.969
    68   1 H    0.996 --    39 C    0.966
 ---------------------------------------------------------------------------

molecular dipole:
                 x           y           z       tot (Debye)
 q only:       -2.484       0.401      -0.571
   full:       -2.656       0.391      -0.489       6.935

           -------------------------------------------------
          | TOTAL ENERGY             -121.193187607727 Eh   |
          | GRADIENT NORM               0.000510475298 Eh/Î± |
          | HOMO-LUMO GAP               3.317239283401 eV   |
           -------------------------------------------------

 * finished run on 2022/03/17 at 01:58:54.470
