   * xtb version 6.3.3 (4ae9cef) compiled by 'conda@95abc7406d43' on 2020-10-14
          program call               : xtb acid_135.xyz --opt --chrg 0 --uhf 0 --gfn 2
          number of atoms            :                    62
          number of electrons        :                   194
          charge                     :                     0
          spin                       :                   0.0

   ID    Z sym.   atoms
    1    6 C      1, 3-16, 18, 20-24, 27, 28, 32-36
    2    8 O      2, 17, 26, 29, 30, 38
    3    7 N      19, 31
    4   16 S      25, 37
    5    1 H      39-62

          :  Hamiltonian                  GFN2-xTB          :
 * total energy  :  -108.9273589 Eh     change       -0.2428393E-08 Eh
 * total energy  :  -108.9405733 Eh     change       -0.1321449E-01 Eh
 * total energy  :  -108.9447013 Eh     change       -0.4127916E-02 Eh
 * total energy  :  -108.9457046 Eh     change       -0.1003385E-02 Eh
 * total energy  :  -108.9463652 Eh     change       -0.6605455E-03 Eh
 * total energy  :  -108.9469752 Eh     change       -0.6099800E-03 Eh
 * total energy  :  -108.9476744 Eh     change       -0.6991940E-03 Eh
 * total energy  :  -108.9484882 Eh     change       -0.8138159E-03 Eh
 * total energy  :  -108.9493139 Eh     change       -0.8257180E-03 Eh
 * total energy  :  -108.9500130 Eh     change       -0.6991062E-03 Eh
 * total energy  :  -108.9548838 Eh     change       -0.7143108E-05 Eh
 * total energy  :  -108.9548916 Eh     change       -0.7801516E-05 Eh
 * total energy  :  -108.9548999 Eh     change       -0.8342163E-05 Eh
 * total energy  :  -108.9549080 Eh     change       -0.8058212E-05 Eh
 * total energy  :  -108.9549168 Eh     change       -0.8855534E-05 Eh
 * total energy  :  -108.9549264 Eh     change       -0.9551383E-05 Eh
 * total energy  :  -108.9549344 Eh     change       -0.8045430E-05 Eh
 * total energy  :  -108.9549398 Eh     change       -0.5360487E-05 Eh
 * total energy  :  -108.9549437 Eh     change       -0.3909387E-05 Eh
   *** GEOMETRY OPTIMIZATION CONVERGED AFTER 66 ITERATIONS ***

 final structure:
================
62
 xtb: 6.3.3 (4ae9cef)
C        -1.38429707484921   -0.57444131073876   -2.86523388025893
O        -2.45903899056648   -0.86730364165209   -2.09009013324447
C        -3.74284320214008   -0.85420547575426   -2.66025210281743
C        -1.44733489332523   -0.24533736827470   -4.21309626641621
C        -0.28610721094492    0.04471925996846   -4.91160013799858
C         0.93902408046746    0.00939902498205   -4.27637955126528
C         1.00818564448093   -0.31523286762356   -2.92986113759348
C        -0.13714750434037   -0.61081957468648   -2.21246612729872
C        -0.15890902754915   -0.93045219462438   -0.73767546538684
C         1.20128391768643   -0.94188689510544   -0.02732027557887
C         1.10042742711366   -1.74339227767391    1.24804876966937
C         0.95180080460424   -1.15692778051760    2.48993866081022
C         0.82093605174171   -1.93195029376438    3.63103441314676
C         0.83837147384694   -3.30789351052451    3.52454996338061
C         0.98585803105685   -3.91621224541152    2.28845169887582
C         1.11231820616923   -3.14275485397837    1.14308766058583
O         1.24719141674329   -3.63641352259921   -0.12002940899587
C         1.28458550998672   -5.03160588904498   -0.29779112505661
N         1.42278634605288    0.47512023873211    0.23813968162433
C         2.68562283658886    0.99059023661096    0.22663410274573
C         2.81946944542109    2.41002736497614    0.59908966069233
C         2.21366697259591    3.12700387069728    1.59370445851287
C         2.70056432257154    4.44500161165287    1.69103975372662
C         3.66899628816108    4.70643386049022    0.77258859200400
S         4.01871791680543    3.34822507774664   -0.21183325464104
O         3.65106934084912    0.29530436706071   -0.02086458406143
C         0.17345217152210    1.19975741859915    0.09006614783205
C         0.19383163693468    2.08798990792643   -1.17064597837317
O        -1.03927875449516    2.37694595006365   -1.57314500843249
O         1.18425042037860    2.50532128212356   -1.69859772922644
N        -0.81798293769990    0.16854921704298   -0.03115203636158
C        -1.83727723744713   -0.09036553402909    0.83930727430686
C        -2.36541289033983    1.04509478269652    1.61696120896973
C        -2.93271962946597    0.92415255210468    2.85601787874612
C        -3.43505137872286    2.14010861167649    3.35772476921590
C        -3.26687264538453    3.16835877547081    2.48534003060500
S        -2.47983762842023    2.67788614558037    1.03975059180797
O        -2.32812613245705   -1.19507991385520    0.95282708018139
H        -4.41827854224844   -1.12429804249355   -1.85021595834019
H        -3.83390046045839   -1.58683878318825   -3.46879261213273
H        -4.00605802638324    0.13988848368528   -3.03637815204971
H        -2.39528446602573   -0.21283135682954   -4.72673708226428
H        -0.34916739617362    0.30033274625604   -5.95901969676627
H         1.84280464786601    0.23921284559589   -4.81791941486872
H         1.97296310869829   -0.32148085200527   -2.44893621568906
H        -0.73592636474880   -1.84050824337723   -0.55859053854336
H         2.01043269387523   -1.34738589571665   -0.63777851207310
H         0.94954656073856   -0.07997957526709    2.57196241811327
H         0.70517604519505   -1.45937982440406    4.59439296250517
H         0.73595431998094   -3.92242350866863    4.40649439811722
H         0.99494985102624   -4.99304208808253    2.23068914765985
H         1.40695045575552   -5.18558847649924   -1.36883354056567
H         0.35310719247225   -5.50291711671457    0.03125063763363
H         2.12973325689678   -5.48305998341515    0.23119677251276
H         1.47608537253071    2.72418568277349    2.26595006836782
H         2.34572965245857    5.15972191404146    2.41208382275179
H         4.20023557399481    5.62466315727130    0.61919023019329
H        -0.03442201549216    1.85738954919013    0.94245410104382
H        -1.01850188052502    2.93978327805319   -2.36454566308233
H        -2.97050023162404   -0.01480196954346    3.37769764360903
H        -3.90535307937921    2.24253403518915    4.31891020210939
H        -3.56044939209367    4.19310861783526    2.59920478731166

          :  Hamiltonian                  GFN2-xTB          :
         :: total energy            -108.954943716675 Eh    ::
         :: gradient norm              0.000433348702 Eh/a0 ::
         :: HOMO-LUMO gap              2.770958689921 eV    ::
         :: SCC energy              -110.409104702313 Eh    ::
         :: -> dispersion             -0.092731136506 Eh    ::
         :: repulsion energy           1.450735252501 Eh    ::

    * Orbital Energies and Occupations

         #    Occupation            Energy/Eh            Energy/eV
      -------------------------------------------------------------
         1        2.0000           -0.7711970             -20.9853
       ...           ...                  ...                  ...
        85        2.0000           -0.4251957             -11.5702
        86        2.0000           -0.4152735             -11.3002
        87        2.0000           -0.4110758             -11.1859
        88        2.0000           -0.4088515             -11.1254
        89        2.0000           -0.4055979             -11.0369
        90        2.0000           -0.4012062             -10.9174
        91        2.0000           -0.3996655             -10.8755
        92        2.0000           -0.3971433             -10.8068
        93        2.0000           -0.3958842             -10.7726
        94        2.0000           -0.3926012             -10.6832
        95        2.0000           -0.3873554             -10.5405
        96        2.0000           -0.3815318             -10.3820
        97        2.0000           -0.3766937             -10.2504 (HOMO)
        98                         -0.2748628              -7.4794 (LUMO)
        99                         -0.2617787              -7.1234
       100                         -0.2588629              -7.0440
       101                         -0.2291586              -6.2357
       102                         -0.2225347              -6.0555
       103                         -0.2200164              -5.9870
       104                         -0.2171533              -5.9090
       105                         -0.2129709              -5.7952
       106                         -0.2050120              -5.5787
       107                         -0.2039569              -5.5499
       108                         -0.1891347              -5.1466
       ...                                ...                  ...
       186                          0.6996771              19.0392
      -------------------------------------------------------------
                  HL-Gap            0.1018309 Eh            2.7710 eV

     #   Z          covCN         q      C6AA      Î±(0)
     1   6 C        2.870     0.140    24.939     8.186
     2   8 O        1.706    -0.261    18.317     5.778
     3   6 C        3.643     0.038    20.273     6.472
     4   6 C        2.916    -0.071    29.766     8.947
     5   6 C        2.920    -0.034    28.843     8.807
     6   6 C        2.918    -0.041    29.016     8.833
     7   6 C        2.921    -0.035    28.869     8.811
     8   6 C        2.972    -0.025    28.619     8.775
     9   6 C        3.867     0.040    19.864     6.338
    10   6 C        3.843     0.043    19.831     6.335
    11   6 C        2.975    -0.015    28.392     8.740
    12   6 C        2.923    -0.031    28.768     8.796
    13   6 C        2.918    -0.040    28.990     8.829
    14   6 C        2.921    -0.031    28.763     8.795
    15   6 C        2.917    -0.063    29.579     8.918
    16   6 C        2.870     0.140    24.937     8.186
    17   8 O        1.705    -0.272    18.508     5.809
    18   6 C        3.644     0.036    20.299     6.476
    19   7 N        2.768    -0.128    23.764     7.240
    20   6 C        2.797     0.276    22.332     7.742
    21   6 C        2.995    -0.014    28.353     8.735
    22   6 C        3.120    -0.051    29.084     8.833
    23   6 C        3.113    -0.047    29.000     8.822
    24   6 C        2.945    -0.028    28.701     8.787
    25  16 S        2.346     0.065   138.427    19.802
    26   8 O        0.859    -0.423    22.155     6.311
    27   6 C        3.792     0.090    19.095     6.223
    28   6 C        2.688     0.353    21.006     7.501
    29   8 O        1.660    -0.356    20.007     6.038
    30   8 O        0.856    -0.383    21.353     6.195
    31   7 N        2.777    -0.109    23.383     7.182
    32   6 C        2.773     0.275    22.356     7.744
    33   6 C        2.990    -0.016    28.400     8.742
    34   6 C        3.119    -0.032    28.614     8.761
    35   6 C        3.107    -0.042    28.895     8.807
    36   6 C        2.943    -0.019    28.474     8.752
    37  16 S        2.312    -0.015   141.672    20.033
    38   8 O        0.860    -0.415    21.981     6.286
    39   1 H        0.925     0.069     2.096     2.264
    40   1 H        0.924     0.042     2.426     2.436
    41   1 H        0.924     0.039     2.468     2.457
    42   1 H        0.926     0.037     2.487     2.466
    43   1 H        0.926     0.037     2.488     2.467
    44   1 H        0.926     0.043     2.406     2.426
    45   1 H        0.926     0.054     2.271     2.357
    46   1 H        0.924     0.099     1.792     2.093
    47   1 H        0.924     0.092     1.862     2.134
    48   1 H        0.926     0.026     2.645     2.543
    49   1 H        0.926     0.035     2.517     2.481
    50   1 H        0.926     0.038     2.474     2.459
    51   1 H        0.926     0.040     2.442     2.444
    52   1 H        0.925     0.063     2.162     2.299
    53   1 H        0.924     0.044     2.401     2.423
    54   1 H        0.924     0.044     2.402     2.423
    55   1 H        0.926     0.025     2.655     2.548
    56   1 H        0.926     0.040     2.443     2.444
    57   1 H        0.926     0.053     2.280     2.361
    58   1 H        0.924     0.073     2.056     2.243
    59   1 H        0.804     0.344     0.603     1.220
    60   1 H        0.926     0.060     2.194     2.316
    61   1 H        0.926     0.048     2.346     2.395
    62   1 H        0.926     0.053     2.282     2.362

Wiberg/Mayer (AO) data.
largest (>0.10) Wiberg bond orders for each atom

     #   Z sym  total        # sym  WBO       # sym  WBO       # sym  WBO
 ---------------------------------------------------------------------------
     1   6 C    3.935 --     4 C    1.384     8 C    1.308     2 O    1.074
     2   8 O    2.251 --     1 C    1.074     3 C    0.983
     3   6 C    3.944 --     2 O    0.983    39 H    0.979    41 H    0.976
                            40 H    0.976
     4   6 C    3.986 --     5 C    1.428     1 C    1.384    42 H    0.966
                             7 C    0.101
     5   6 C    3.991 --     6 C    1.451     4 C    1.428    43 H    0.971
                             8 C    0.105
     6   6 C    3.991 --     5 C    1.451     7 C    1.415    44 H    0.970
     7   6 C    3.989 --     8 C    1.446     6 C    1.415    45 H    0.962
                             4 C    0.101
     8   6 C    3.981 --     7 C    1.446     1 C    1.308     9 C    0.989
                             5 C    0.105
     9   6 C    3.958 --     8 C    0.989    10 C    0.961    31 N    0.948
                            46 H    0.942
    10   6 C    3.960 --    11 C    0.988    19 N    0.962     9 C    0.961
                            47 H    0.939
    11   6 C    3.983 --    12 C    1.447    16 C    1.316    10 C    0.988
                            14 C    0.106
    12   6 C    3.991 --    11 C    1.447    13 C    1.416    48 H    0.967
                            15 C    0.101
    13   6 C    3.991 --    14 C    1.451    12 C    1.416    49 H    0.971
    14   6 C    3.991 --    13 C    1.451    15 C    1.428    50 H    0.971
                            11 C    0.106
    15   6 C    3.987 --    14 C    1.428    16 C    1.388    51 H    0.965
                            12 C    0.101
    16   6 C    3.935 --    15 C    1.388    11 C    1.316    17 O    1.062
    17   8 O    2.233 --    16 C    1.062    18 C    0.983
    18   6 C    3.944 --    17 O    0.983    52 H    0.979    54 H    0.977
                            53 H    0.976
    19   7 N    3.442 --    20 C    1.185    27 C    0.977    10 C    0.962
                            26 O    0.180
    20   6 C    3.952 --    26 O    1.673    19 N    1.185    21 C    1.013
    21   6 C    3.953 --    22 C    1.549    25 S    1.175    20 C    1.013
                            24 C    0.107
    22   6 C    3.986 --    21 C    1.549    23 C    1.296    55 H    0.962
    23   6 C    3.987 --    24 C    1.598    22 C    1.296    56 H    0.966
    24   6 C    3.952 --    23 C    1.598    25 S    1.230    57 H    0.970
                            21 C    0.107
    25  16 S    2.682 --    24 C    1.230    21 C    1.175
    26   8 O    2.013 --    20 C    1.673    19 N    0.180
    27   6 C    3.976 --    31 N    0.999    19 N    0.977    58 H    0.924
                            28 C    0.914
    28   6 C    3.920 --    30 O    1.779    29 O    1.154    27 C    0.914
    29   8 O    2.226 --    28 C    1.154    59 H    0.856    30 O    0.179
    30   8 O    2.069 --    28 C    1.779    29 O    0.179
    31   7 N    3.450 --    32 C    1.182    27 C    0.999     9 C    0.948
                            38 O    0.179
    32   6 C    3.953 --    38 O    1.674    31 N    1.182    33 C    1.017
    33   6 C    3.943 --    34 C    1.556    37 S    1.147    32 C    1.017
                            36 C    0.112
    34   6 C    3.986 --    33 C    1.556    35 C    1.294    60 H    0.962
    35   6 C    3.987 --    36 C    1.608    34 C    1.294    61 H    0.964
    36   6 C    3.950 --    35 C    1.608    37 S    1.211    62 H    0.969
                            33 C    0.112
    37  16 S    2.664 --    36 C    1.211    33 C    1.147
    38   8 O    2.027 --    32 C    1.674    31 N    0.179
    39   1 H    0.995 --     3 C    0.979
    40   1 H    0.998 --     3 C    0.976
    41   1 H    0.998 --     3 C    0.976
    42   1 H    0.998 --     4 C    0.966
    43   1 H    0.998 --     5 C    0.971
    44   1 H    0.998 --     6 C    0.970
    45   1 H    0.996 --     7 C    0.962
    46   1 H    0.989 --     9 C    0.942
    47   1 H    0.991 --    10 C    0.939
    48   1 H    0.999 --    12 C    0.967
    49   1 H    0.998 --    13 C    0.971
    50   1 H    0.998 --    14 C    0.971
    51   1 H    0.998 --    15 C    0.965
    52   1 H    0.996 --    18 C    0.979
    53   1 H    0.998 --    18 C    0.976
    54   1 H    0.998 --    18 C    0.977
    55   1 H    0.999 --    22 C    0.962
    56   1 H    0.998 --    23 C    0.966
    57   1 H    0.997 --    24 C    0.970
    58   1 H    0.995 --    27 C    0.924
    59   1 H    0.881 --    29 O    0.856
    60   1 H    0.996 --    34 C    0.962
    61   1 H    0.997 --    35 C    0.964
    62   1 H    0.997 --    36 C    0.969
 ---------------------------------------------------------------------------

molecular dipole:
                 x           y           z       tot (Debye)
 q only:       -1.431       0.662      -0.340
   full:       -1.995       0.729      -0.094       5.405

           -------------------------------------------------
          | TOTAL ENERGY             -108.954943716675 Eh   |
          | GRADIENT NORM               0.000433348702 Eh/Î± |
          | HOMO-LUMO GAP               2.770958689921 eV   |
           -------------------------------------------------

 * finished run on 2022/03/16 at 21:44:48.630
