   * xtb version 6.3.3 (4ae9cef) compiled by 'conda@95abc7406d43' on 2020-10-14
          program call               : xtb acid_10.xyz --opt --chrg 0 --uhf 0 --gfn 2
          number of atoms            :                    84
          number of electrons        :                   226
          charge                     :                     0
          spin                       :                   0.0

   ID    Z sym.   atoms
    1    6 C      1-14, 16-26, 28, 29, 33-43
    2    7 N      15, 32
    3    8 O      27, 30, 31, 44
    4    1 H      45-84

          :  Hamiltonian                  GFN2-xTB          :
 * total energy  :  -123.9102475 Eh     change       -0.1516895E-08 Eh
 * total energy  :  -123.9245522 Eh     change       -0.1430480E-01 Eh
 * total energy  :  -123.9291922 Eh     change       -0.4639992E-02 Eh
 * total energy  :  -123.9310908 Eh     change       -0.1898541E-02 Eh
 * total energy  :  -123.9328380 Eh     change       -0.1747226E-02 Eh
 * total energy  :  -123.9342463 Eh     change       -0.1408310E-02 Eh
 * total energy  :  -123.9354720 Eh     change       -0.1225654E-02 Eh
 * total energy  :  -123.9365007 Eh     change       -0.1028676E-02 Eh
 * total energy  :  -123.9371305 Eh     change       -0.6298051E-03 Eh
 * total energy  :  -123.9378636 Eh     change       -0.7331594E-03 Eh
 * total energy  :  -123.9515733 Eh     change       -0.1382615E-04 Eh
 * total energy  :  -123.9515846 Eh     change       -0.1136657E-04 Eh
 * total energy  :  -123.9515961 Eh     change       -0.1149813E-04 Eh
 * total energy  :  -123.9516061 Eh     change       -0.9949028E-05 Eh
 * total energy  :  -123.9516060 Eh     change        0.6057267E-07 Eh
 * total energy  :  -123.9516156 Eh     change       -0.9572084E-05 Eh
 * total energy  :  -123.9516245 Eh     change       -0.8876614E-05 Eh
 * total energy  :  -123.9516308 Eh     change       -0.6312396E-05 Eh
 * total energy  :  -123.9516332 Eh     change       -0.2366070E-05 Eh
   *** GEOMETRY OPTIMIZATION CONVERGED AFTER 101 ITERATIONS ***

 final structure:
================
84
 xtb: 6.3.3 (4ae9cef)
C        -2.07781563231987   -3.37938416233888   -2.19633327265737
C        -2.28150359286138   -4.27000342876448   -3.23660803762819
C        -1.23491961402838   -5.04123094230921   -3.70965153160118
C         0.01487084486875   -4.93189908744518   -3.12296955693105
C         0.22015877279358   -4.04074329357993   -2.08561250071353
C        -0.82015624429006   -3.24122990491761   -1.62532194235972
C        -0.57385916302870   -2.27217001606755   -0.49281905867278
C         0.67066999080567   -1.36205644785665   -0.72427264589521
C         1.60668121263915   -1.39148926518220    0.45592483666593
C         1.19858172264687   -0.88072394681166    1.68233727554650
C         2.05266919856266   -0.90837919295644    2.76851408599238
C         3.31904314428588   -1.45429425140659    2.64365404574735
C         3.72491569946920   -1.97839026397460    1.42921652421300
C         2.87288035112065   -1.94695555052792    0.34041347433327
N         0.08503712194791   -0.04611721266562   -0.92963854918639
C         0.68642398542949    1.16688937681018   -0.81682284769691
C         2.17044324663599    1.13374490031895   -0.70184041975588
C         2.95625293662630    0.59587221822072   -1.71270272093247
C         4.33138523905245    0.59317671274224   -1.59337412697934
C         4.96753930276234    1.11454323342551   -0.46880340100673
C         6.48450244127441    1.06945788245687   -0.37974802126062
C         6.94788660634157   -0.39170960416211   -0.45911736439382
C         7.01695284504014    1.66586494150178    0.92567496664349
C         7.07585156977993    1.86917477530351   -1.54955701585525
C         4.16852924407038    1.67075324499939    0.52288386837534
C         2.79132024601507    1.69470699424116    0.40397772649550
O         0.03650952851788    2.19479237566760   -0.82504297885729
C        -1.34992789910788   -0.14813315061987   -1.05172579898169
C        -1.76925000924650   -0.30538970941023   -2.52580092406885
O        -0.72622671283856   -0.44811333521614   -3.33647597783544
O        -2.90645719394808   -0.30271496149166   -2.90621865203403
N        -1.67169913465001   -1.33720881679974   -0.30833282888323
C        -2.43602579525759   -1.40580066261526    0.83117820445830
C        -3.40869980939940   -0.30767809909945    1.04621642685017
C        -4.21873448475375    0.19950418638578    0.03731940499192
C        -5.13928368492368    1.19472971552989    0.31600306890218
C        -5.28123605692444    1.71686133851014    1.59634127314818
C        -6.27432761650657    2.81615216595158    1.93539816566906
C        -5.51059420886619    4.02090675057495    2.50329882281031
C        -7.07175030057734    3.28796555138661    0.71655879206206
C        -7.26534942819800    2.28662391839018    2.98172967287856
C        -4.47305198037912    1.18741075894933    2.60169167012300
C        -3.56118447970495    0.18708548372164    2.33880935168529
O        -2.31842297752600   -2.33902548317720    1.59996952340299
H        -2.90565594222639   -2.79608046510218   -1.82371068068557
H        -3.26451177406847   -4.36089287477938   -3.67392823188608
H        -1.39389124415161   -5.73370590045238   -4.52275852450337
H         0.83217648965751   -5.54561042107161   -3.47208205750473
H         1.19259154000643   -3.97621683442817   -1.61912331900020
H        -0.46974358850854   -2.84306006634915    0.43957591691533
H         1.19935902444304   -1.67724847392674   -1.63092451431203
H         0.21143959752764   -0.45333839716374    1.78487323479674
H         1.72846524541554   -0.50456688602708    3.71595940804821
H         3.98611822933135   -1.47439697904898    3.49259299463310
H         4.70723274399521   -2.41561690422459    1.32786507522384
H         3.19783371906294   -2.34739631013446   -0.60916752542011
H         2.48907239965927    0.19299392702069   -2.59998382365159
H         4.91556242334530    0.17237432335284   -2.39808622218770
H         8.03260846597830   -0.44412292850442   -0.39406025483489
H         6.64038543805330   -0.85737955027221   -1.39110541774955
H         6.52350448462851   -0.96106064358426    0.36461003661262
H         6.63209284186350    1.12544918289931    1.78740411605073
H         6.75037693785722    2.71633540268246    1.01390003475959
H         8.10272974422822    1.59378241895326    0.94027466748068
H         8.16207642195742    1.87210062118301   -1.48987622735537
H         6.72499827978542    2.89828982966157   -1.51549539863875
H         6.78854973861718    1.44327326140941   -2.50672312666263
H         4.60964364000791    2.10122883070998    1.40643857810527
H         2.18733049854117    2.13926613914744    1.18069442271267
H        -1.83647468592081    0.75064440852925   -0.65141337001586
H        -1.01844243280320   -0.53373602683033   -4.25901340980975
H        -4.14986474033494   -0.18927492128130   -0.96681944023989
H        -5.74816513245523    1.55617840119412   -0.49586841193728
H        -6.20314089259858    4.82890565070427    2.72955440916947
H        -4.78403416484552    4.38153842846116    1.77825513403984
H        -4.98140212421360    3.76202621650463    3.41610448325464
H        -7.75935105976344    4.07588456453609    1.01731401293029
H        -7.65796957521007    2.47576911572348    0.29318305374641
H        -6.41348791575089    3.69123739191843   -0.04930637653531
H        -6.75897059792127    1.99729964164787    3.89830806869300
H        -7.99726531134290    3.05408006732297    3.22471515055596
H        -7.79237853242861    1.41701813707762    2.59454843997543
H        -4.55591502439728    1.55444810703211    3.61338607741073
H        -2.95211339624299   -0.22179422025770    3.13156801096283

          :  Hamiltonian                  GFN2-xTB          :
         :: total energy            -123.951633159691 Eh    ::
         :: gradient norm              0.000996681053 Eh/a0 ::
         :: HOMO-LUMO gap              3.522784797506 eV    ::
         :: SCC energy              -125.889722874534 Eh    ::
         :: -> dispersion             -0.113748104532 Eh    ::
         :: repulsion energy           1.935141332681 Eh    ::

    * Orbital Energies and Occupations

         #    Occupation            Energy/Eh            Energy/eV
      -------------------------------------------------------------
         1        2.0000           -0.7684868             -20.9116
       ...           ...                  ...                  ...
       101        2.0000           -0.4190969             -11.4042
       102        2.0000           -0.4162501             -11.3267
       103        2.0000           -0.4128377             -11.2339
       104        2.0000           -0.4120441             -11.2123
       105        2.0000           -0.4082567             -11.1092
       106        2.0000           -0.4077834             -11.0964
       107        2.0000           -0.4050181             -11.0211
       108        2.0000           -0.4043402             -11.0027
       109        2.0000           -0.3996461             -10.8749
       110        2.0000           -0.3974988             -10.8165
       111        2.0000           -0.3960845             -10.7780
       112        2.0000           -0.3921548             -10.6711
       113        2.0000           -0.3887881             -10.5795 (HOMO)
       114                         -0.2593281              -7.0567 (LUMO)
       115                         -0.2501262              -6.8063
       116                         -0.2449531              -6.6655
       117                         -0.2370815              -6.4513
       118                         -0.2327251              -6.3328
       119                         -0.2311359              -6.2895
       120                         -0.2301995              -6.2640
       121                         -0.2265087              -6.1636
       122                         -0.2216817              -6.0323
       123                         -0.1993013              -5.4233
       124                         -0.1897825              -5.1642
       ...                                ...                  ...
       216                          0.6649510              18.0942
      -------------------------------------------------------------
                  HL-Gap            0.1294600 Eh            3.5228 eV

     #   Z          covCN         q      C6AA      Î±(0)
     1   6 C        2.923    -0.033    28.811     8.802
     2   6 C        2.920    -0.027    28.680     8.782
     3   6 C        2.920    -0.031    28.781     8.797
     4   6 C        2.920    -0.029    28.715     8.787
     5   6 C        2.924    -0.038    28.950     8.824
     6   6 C        2.971     0.002    27.978     8.676
     7   6 C        3.846     0.037    19.919     6.349
     8   6 C        3.819     0.034    19.988     6.363
     9   6 C        2.973     0.000    28.021     8.683
    10   6 C        2.924    -0.028    28.694     8.784
    11   6 C        2.920    -0.025    28.638     8.776
    12   6 C        2.921    -0.029    28.724     8.789
    13   6 C        2.920    -0.027    28.668     8.780
    14   6 C        2.924    -0.034    28.853     8.809
    15   7 N        2.767    -0.116    23.529     7.204
    16   6 C        2.764     0.271    22.414     7.753
    17   6 C        2.977    -0.017    28.436     8.747
    18   6 C        2.921    -0.032    28.789     8.799
    19   6 C        2.927    -0.034    28.848     8.808
    20   6 C        2.974     0.012    27.732     8.638
    21   6 C        3.903     0.026    20.088     6.371
    22   6 C        3.762    -0.106    22.571     6.772
    23   6 C        3.761    -0.109    22.633     6.782
    24   6 C        3.762    -0.107    22.584     6.774
    25   6 C        2.925    -0.037    28.929     8.820
    26   6 C        2.923    -0.023    28.588     8.768
    27   8 O        0.859    -0.439    22.479     6.357
    28   6 C        3.788     0.093    19.063     6.218
    29   6 C        2.689     0.357    20.935     7.488
    30   8 O        1.659    -0.357    20.029     6.042
    31   8 O        0.856    -0.388    21.451     6.210
    32   7 N        2.763    -0.124    23.689     7.229
    33   6 C        2.765     0.271    22.417     7.754
    34   6 C        2.974    -0.025    28.617     8.775
    35   6 C        2.919    -0.038    28.934     8.821
    36   6 C        2.925    -0.036    28.893     8.815
    37   6 C        2.973     0.016    27.651     8.625
    38   6 C        3.903     0.026    20.084     6.370
    39   6 C        3.762    -0.107    22.583     6.774
    40   6 C        3.761    -0.109    22.639     6.783
    41   6 C        3.762    -0.106    22.577     6.773
    42   6 C        2.926    -0.033    28.820     8.804
    43   6 C        2.924    -0.022    28.562     8.764
    44   8 O        0.859    -0.424    22.167     6.312
    45   1 H        0.926     0.041     2.433     2.439
    46   1 H        0.926     0.039     2.459     2.452
    47   1 H        0.926     0.035     2.510     2.478
    48   1 H        0.926     0.035     2.515     2.480
    49   1 H        0.926     0.031     2.579     2.511
    50   1 H        0.923     0.086     1.918     2.166
    51   1 H        0.924     0.054     2.266     2.354
    52   1 H        0.926     0.034     2.532     2.489
    53   1 H        0.926     0.040     2.446     2.446
    54   1 H        0.926     0.037     2.488     2.467
    55   1 H        0.926     0.035     2.514     2.480
    56   1 H        0.926     0.030     2.592     2.517
    57   1 H        0.926     0.031     2.567     2.506
    58   1 H        0.926     0.035     2.510     2.478
    59   1 H        0.925     0.040     2.452     2.449
    60   1 H        0.925     0.036     2.500     2.473
    61   1 H        0.925     0.034     2.526     2.485
    62   1 H        0.925     0.036     2.497     2.471
    63   1 H        0.925     0.038     2.475     2.460
    64   1 H        0.925     0.039     2.464     2.455
    65   1 H        0.925     0.040     2.451     2.448
    66   1 H        0.925     0.036     2.498     2.472
    67   1 H        0.925     0.037     2.483     2.464
    68   1 H        0.926     0.044     2.394     2.419
    69   1 H        0.926     0.040     2.449     2.447
    70   1 H        0.924     0.097     1.816     2.108
    71   1 H        0.804     0.341     0.611     1.227
    72   1 H        0.926     0.053     2.286     2.365
    73   1 H        0.926     0.047     2.357     2.401
    74   1 H        0.925     0.039     2.460     2.453
    75   1 H        0.925     0.037     2.489     2.467
    76   1 H        0.925     0.037     2.483     2.464
    77   1 H        0.925     0.038     2.476     2.461
    78   1 H        0.925     0.037     2.483     2.464
    79   1 H        0.925     0.039     2.468     2.457
    80   1 H        0.925     0.038     2.479     2.462
    81   1 H        0.925     0.039     2.459     2.452
    82   1 H        0.925     0.035     2.510     2.478
    83   1 H        0.926     0.037     2.487     2.466
    84   1 H        0.926     0.045     2.388     2.417

Wiberg/Mayer (AO) data.
largest (>0.10) Wiberg bond orders for each atom

     #   Z sym  total        # sym  WBO       # sym  WBO       # sym  WBO
 ---------------------------------------------------------------------------
     1   6 C    3.990 --     2 C    1.438     6 C    1.417    45 H    0.966
                             4 C    0.110
     2   6 C    3.992 --     3 C    1.444     1 C    1.438    46 H    0.971
                             5 C    0.112
     3   6 C    3.992 --     2 C    1.444     4 C    1.433    47 H    0.971
                             6 C    0.109
     4   6 C    3.991 --     5 C    1.450     3 C    1.433    48 H    0.971
                             1 C    0.110
     5   6 C    3.991 --     4 C    1.450     6 C    1.405    49 H    0.967
                             2 C    0.112
     6   6 C    3.985 --     1 C    1.417     5 C    1.405     7 C    0.990
                             3 C    0.109
     7   6 C    3.964 --     6 C    0.990    32 N    0.972     8 C    0.946
                            50 H    0.938
     8   6 C    3.967 --     9 C    0.993    15 N    0.964    51 H    0.952
                             7 C    0.946
     9   6 C    3.987 --    14 C    1.414    10 C    1.407     8 C    0.993
                            12 C    0.109
    10   6 C    3.992 --    11 C    1.450     9 C    1.407    52 H    0.969
                            13 C    0.111
    11   6 C    3.992 --    10 C    1.450    12 C    1.435    53 H    0.971
                            14 C    0.110
    12   6 C    3.990 --    13 C    1.441    11 C    1.435    54 H    0.971
                             9 C    0.109
    13   6 C    3.992 --    14 C    1.442    12 C    1.441    55 H    0.969
                            10 C    0.111
    14   6 C    3.990 --    13 C    1.442     9 C    1.414    56 H    0.968
                            11 C    0.110
    15   7 N    3.467 --    16 C    1.208    28 C    0.981     8 C    0.964
                            27 O    0.188
    16   6 C    3.944 --    27 O    1.677    15 N    1.208    17 C    0.973
    17   6 C    3.986 --    26 C    1.405    18 C    1.390    16 C    0.973
                            20 C    0.107
    18   6 C    3.991 --    19 C    1.459    17 C    1.390    57 H    0.969
                            25 C    0.106
    19   6 C    3.992 --    18 C    1.459    20 C    1.400    58 H    0.964
                            26 C    0.108
    20   6 C    3.986 --    25 C    1.416    19 C    1.400    21 C    0.985
                            17 C    0.107
    21   6 C    3.992 --    23 C    1.000    22 C    0.987    24 C    0.986
                            20 C    0.985
    22   6 C    3.995 --    21 C    0.987    61 H    0.985    59 H    0.984
                            60 H    0.984
    23   6 C    3.996 --    21 C    1.000    62 H    0.985    63 H    0.984
                            64 H    0.984
    24   6 C    3.995 --    66 H    0.987    21 C    0.986    65 H    0.984
                            67 H    0.984
    25   6 C    3.991 --    26 C    1.443    20 C    1.416    68 H    0.964
                            18 C    0.106
    26   6 C    3.990 --    25 C    1.443    17 C    1.405    69 H    0.969
                            19 C    0.108
    27   8 O    2.003 --    16 C    1.677    15 N    0.188
    28   6 C    3.968 --    32 N    0.986    15 N    0.981    70 H    0.931
                            29 C    0.916
    29   6 C    3.916 --    31 O    1.774    30 O    1.159    28 C    0.916
    30   8 O    2.225 --    29 C    1.159    71 H    0.858    31 O    0.181
    31   8 O    2.061 --    29 C    1.774    30 O    0.181
    32   7 N    3.439 --    33 C    1.165    28 C    0.986     7 C    0.972
                            44 O    0.175
    33   6 C    3.939 --    44 O    1.691    32 N    1.165    34 C    0.997
    34   6 C    3.986 --    35 C    1.394    43 C    1.381    33 C    0.997
                            37 C    0.103
    35   6 C    3.989 --    36 C    1.444    34 C    1.394    72 H    0.963
                            42 C    0.106
    36   6 C    3.991 --    35 C    1.444    37 C    1.416    73 H    0.964
                            43 C    0.105
    37   6 C    3.985 --    36 C    1.416    42 C    1.396    38 C    0.986
                            34 C    0.103
    38   6 C    3.991 --    40 C    1.000    39 C    0.986    37 C    0.986
                            41 C    0.986
    39   6 C    3.995 --    75 H    0.987    38 C    0.986    74 H    0.984
                            76 H    0.983
    40   6 C    3.996 --    38 C    1.000    79 H    0.985    78 H    0.984
                            77 H    0.984
    41   6 C    3.995 --    82 H    0.987    38 C    0.986    81 H    0.984
                            80 H    0.984
    42   6 C    3.991 --    43 C    1.466    37 C    1.396    83 H    0.964
                            35 C    0.106
    43   6 C    3.989 --    42 C    1.466    34 C    1.381    84 H    0.968
                            36 C    0.105
    44   8 O    2.020 --    33 C    1.691    32 N    0.175
    45   1 H    0.998 --     1 C    0.966
    46   1 H    0.998 --     2 C    0.971
    47   1 H    0.998 --     3 C    0.971
    48   1 H    0.998 --     4 C    0.971
    49   1 H    0.999 --     5 C    0.967
    50   1 H    0.992 --     7 C    0.938
    51   1 H    0.997 --     8 C    0.952
    52   1 H    0.999 --    10 C    0.969
    53   1 H    0.998 --    11 C    0.971
    54   1 H    0.998 --    12 C    0.971
    55   1 H    0.998 --    13 C    0.969
    56   1 H    0.999 --    14 C    0.968
    57   1 H    0.999 --    18 C    0.969
    58   1 H    0.998 --    19 C    0.964
    59   1 H    0.998 --    22 C    0.984
    60   1 H    0.999 --    22 C    0.984
    61   1 H    0.999 --    22 C    0.985
    62   1 H    0.999 --    23 C    0.985
    63   1 H    0.999 --    23 C    0.984
    64   1 H    0.998 --    23 C    0.984
    65   1 H    0.997 --    24 C    0.984
    66   1 H    0.999 --    24 C    0.987
    67   1 H    0.999 --    24 C    0.984
    68   1 H    0.998 --    25 C    0.964
    69   1 H    0.998 --    26 C    0.969
    70   1 H    0.990 --    28 C    0.931
    71   1 H    0.883 --    30 O    0.858
    72   1 H    0.997 --    35 C    0.963
    73   1 H    0.997 --    36 C    0.964
    74   1 H    0.997 --    39 C    0.984
    75   1 H    0.999 --    39 C    0.987
    76   1 H    0.999 --    39 C    0.983
    77   1 H    0.998 --    40 C    0.984
    78   1 H    0.999 --    40 C    0.984
    79   1 H    0.999 --    40 C    0.985
    80   1 H    0.999 --    41 C    0.984
    81   1 H    0.997 --    41 C    0.984
    82   1 H    0.999 --    41 C    0.987
    83   1 H    0.998 --    42 C    0.964
    84   1 H    0.998 --    43 C    0.968
 ---------------------------------------------------------------------------

molecular dipole:
                 x           y           z       tot (Debye)
 q only:        1.438      -0.273      -0.527
   full:        1.502      -0.220      -0.701       4.250

           -------------------------------------------------
          | TOTAL ENERGY             -123.951633159691 Eh   |
          | GRADIENT NORM               0.000996681053 Eh/Î± |
          | HOMO-LUMO GAP               3.522784797506 eV   |
           -------------------------------------------------

 * finished run on 2022/03/16 at 21:18:50.735
