   * xtb version 6.3.3 (4ae9cef) compiled by 'conda@95abc7406d43' on 2020-10-14
          program call               : xtb acid_164.xyz --opt --chrg 0 --uhf 0 --gfn 2
          number of atoms            :                    66
          number of electrons        :                   218
          charge                     :                     0
          spin                       :                   0.0

   ID    Z sym.   atoms
    1    6 C      1-22, 24-26, 28, 30, 32, 33, 37-39, 41, 43
    2    7 N      23, 36
    3    8 O      27, 31, 34, 35, 40, 44
    4   35 Br     29, 42
    5    1 H      45-66

          :  Hamiltonian                  GFN2-xTB          :
 * total energy  :  -122.4291853 Eh     change       -0.2794266E-08 Eh
 * total energy  :  -122.4480122 Eh     change       -0.1882693E-01 Eh
 * total energy  :  -122.4548574 Eh     change       -0.6845204E-02 Eh
 * total energy  :  -122.4571329 Eh     change       -0.2275463E-02 Eh
 * total energy  :  -122.4586121 Eh     change       -0.1479154E-02 Eh
 * total energy  :  -122.4595010 Eh     change       -0.8889219E-03 Eh
 * total energy  :  -122.4602587 Eh     change       -0.7577457E-03 Eh
 * total energy  :  -122.4609969 Eh     change       -0.7381918E-03 Eh
 * total energy  :  -122.4615975 Eh     change       -0.6005512E-03 Eh
 * total energy  :  -122.4623752 Eh     change       -0.7777385E-03 Eh
 * total energy  :  -122.4668698 Eh     change       -0.2375894E-04 Eh
 * total energy  :  -122.4669258 Eh     change       -0.5602826E-04 Eh
 * total energy  :  -122.4669571 Eh     change       -0.3125296E-04 Eh
 * total energy  :  -122.4669710 Eh     change       -0.1395004E-04 Eh
 * total energy  :  -122.4670024 Eh     change       -0.3139389E-04 Eh
 * total energy  :  -122.4670115 Eh     change       -0.9062378E-05 Eh
 * total energy  :  -122.4670227 Eh     change       -0.1121467E-04 Eh
 * total energy  :  -122.4670288 Eh     change       -0.6112367E-05 Eh
 * total energy  :  -122.4670333 Eh     change       -0.4473228E-05 Eh
   *** GEOMETRY OPTIMIZATION CONVERGED AFTER 41 ITERATIONS ***

 final structure:
================
66
 xtb: 6.3.3 (4ae9cef)
C         5.45897466913877   -0.61724520040900   -1.39329958061878
C         5.69711612167173    0.71891027383088   -1.24127286976672
C         4.63476344678091    1.58530439412314   -0.95099110042476
C         3.36196257167469    1.10590067156215   -0.80504573345446
C         3.08170830645032   -0.27164826874536   -0.93882057016044
C         4.15837533732202   -1.14377515071691   -1.25206945461724
C         3.91170047973740   -2.52169255988801   -1.42418444367789
C         2.64802285330226   -3.01774250624897   -1.29928977118255
C         1.58177542312344   -2.16744379553549   -0.97267772433063
C         1.78020507126597   -0.82701334186488   -0.77279745061204
C         0.64183713836523    0.10174839631617   -0.45107616059397
C        -0.76913842616970   -0.49031289201750   -0.25690060779346
C        -1.50811893759987   -0.81420747920561   -1.52812916465628
C        -1.70860953484271    0.19382745770547   -2.43893461548262
C        -2.34421175618764   -0.03395874910020   -3.66442353855682
C        -2.77490452009503   -1.28903618294648   -3.98182406840930
C        -2.62262818691115   -2.35004219516813   -3.06696836292472
C        -2.00233812400714   -2.11899356296156   -1.80631964016854
C        -1.93615296528610   -3.20415472252246   -0.90364694975808
C        -2.41446990091680   -4.44001840751874   -1.23892121811072
C        -2.98836757646807   -4.66982755488368   -2.49673916315351
C        -3.09608441889608   -3.64044034058172   -3.38629109476446
N        -1.43643881834383    0.57650507193166    0.51487665363178
C        -2.55875756492780    0.23726271240170    1.21125542667175
C        -3.07862240652948    1.22125258555582    2.18814357010087
C        -3.69920840492655    0.85820762793994    3.35429834781213
O        -4.10369555356269    1.93588851525252    4.03773003932994
C        -3.76592285268139    3.00534632837325    3.30090524828633
Br       -4.20271765328343    4.68831372071656    3.97145815829467
C        -3.12770823642727    2.64475267440588    2.15408496228679
O        -3.10722441083751   -0.83200182631758    1.04688374721544
C        -0.45546616920860    1.56587174291581    0.91801651987767
C        -0.41609312117860    2.81859270929568    0.02008090176871
O        -1.56659032378646    3.06720662163809   -0.59079636582549
O         0.55798891636841    3.50931863790821   -0.08216180749041
N         0.80469545930827    0.87640403729087    0.78737399744597
C         1.51836644435316    0.41346391199716    1.86470863395905
C         1.50479728608952    1.32977652194959    3.02796916728170
C         1.59743418893451    0.95175598027578    4.33976403099884
O         1.61041720604687    2.02376355214861    5.14282003123906
C         1.55013461672260    3.10378182459025    4.34490248912387
Br        1.54852456751488    4.77387183981219    5.16863080172072
C         1.47968680749102    2.75623127064599    3.03129996261221
O         2.15577017114123   -0.61318426610570    1.86378297451808
H         6.26666521713820   -1.29700802536759   -1.62506011609612
H         6.69632922250019    1.11525551237319   -1.34692215509193
H         4.82611239864238    2.64285814325283   -0.84211623526547
H         2.56982490812174    1.80300228759550   -0.58135143769289
H         4.74154379760241   -3.17191064730065   -1.66093908512835
H         2.45154387427276   -4.06985164086680   -1.44201123525817
H         0.59843527389999   -2.59884364426526   -0.88768927060994
H         0.59003122265868    0.84632375344400   -1.26069952308594
H        -0.70501310846655   -1.36504300857581    0.39610513625699
H        -1.37805626146578    1.19584817116875   -2.21189908799937
H        -2.47941545290433    0.78701889481425   -4.35292452316495
H        -3.25077992841004   -1.48659687291716   -4.93145118921950
H        -1.53766140422289   -3.06525461375200    0.08840763450300
H        -2.35763429744346   -5.24962498148478   -0.52633242228848
H        -3.35476474328147   -5.65451870388357   -2.74635696764496
H        -3.55531524697057   -3.79345340172324   -4.35258413349719
H        -3.88704402344907   -0.10746907018851    3.77823967868733
H        -2.79267552991458    3.29898345005547    1.37913537934690
H        -0.63312234941169    1.90941515629708    1.94439504925756
H        -1.50873363522292    3.86714928101607   -1.14137751602389
H         1.64544141355748   -0.01731692431168    4.79369006912145
H         1.45349943303739    3.41051680676722    2.18433874325685

          :  Hamiltonian                  GFN2-xTB          :
         :: total energy            -122.467033275465 Eh    ::
         :: gradient norm              0.000929940986 Eh/a0 ::
         :: HOMO-LUMO gap              2.561294304483 eV    ::
         :: SCC energy              -124.171313729127 Eh    ::
         :: -> dispersion             -0.101050036173 Eh    ::
         :: repulsion energy           1.701127228830 Eh    ::

    * Orbital Energies and Occupations

         #    Occupation            Energy/Eh            Energy/eV
      -------------------------------------------------------------
         1        2.0000           -0.8631166             -23.4866
       ...           ...                  ...                  ...
        97        2.0000           -0.4291950             -11.6790
        98        2.0000           -0.4257750             -11.5859
        99        2.0000           -0.4219947             -11.4831
       100        2.0000           -0.4179269             -11.3724
       101        2.0000           -0.4175607             -11.3624
       102        2.0000           -0.4166138             -11.3366
       103        2.0000           -0.4152193             -11.2987
       104        2.0000           -0.4142471             -11.2722
       105        2.0000           -0.4116948             -11.2028
       106        2.0000           -0.4076330             -11.0923
       107        2.0000           -0.4015896             -10.9278
       108        2.0000           -0.3850520             -10.4778
       109        2.0000           -0.3789994             -10.3131 (HOMO)
       110                         -0.2848735              -7.7518 (LUMO)
       111                         -0.2782885              -7.5726
       112                         -0.2723805              -7.4119
       113                         -0.2684475              -7.3048
       114                         -0.2621443              -7.1333
       115                         -0.2500620              -6.8045
       116                         -0.2483787              -6.7587
       117                         -0.2359814              -6.4214
       118                         -0.2295134              -6.2454
       119                         -0.2269572              -6.1758
       120                         -0.2240745              -6.0974
       ...                                ...                  ...
       208                          0.6912283              18.8093
      -------------------------------------------------------------
                  HL-Gap            0.0941258 Eh            2.5613 eV

     #   Z          covCN         q      C6AA      Î±(0)
     1   6 C        2.921    -0.033    28.821     8.804
     2   6 C        2.915    -0.029    28.728     8.789
     3   6 C        2.917    -0.028    28.711     8.787
     4   6 C        2.917    -0.038    28.940     8.822
     5   6 C        2.986     0.014    27.683     8.631
     6   6 C        2.988     0.018    27.590     8.616
     7   6 C        2.919    -0.033    28.826     8.804
     8   6 C        2.915    -0.028    28.694     8.784
     9   6 C        2.920    -0.035    28.871     8.811
    10   6 C        2.965     0.009    27.823     8.652
    11   6 C        3.870     0.047    19.746     6.319
    12   6 C        3.835     0.043    19.830     6.336
    13   6 C        2.965     0.003    27.962     8.674
    14   6 C        2.925    -0.036    28.903     8.816
    15   6 C        2.913    -0.031    28.782     8.797
    16   6 C        2.922    -0.034    28.849     8.808
    17   6 C        2.989     0.016    27.646     8.625
    18   6 C        2.982     0.017    27.634     8.623
    19   6 C        2.917    -0.028    28.696     8.784
    20   6 C        2.917    -0.027    28.666     8.780
    21   6 C        2.915    -0.028    28.691     8.784
    22   6 C        2.922    -0.033    28.828     8.805
    23   7 N        2.762    -0.129    23.799     7.245
    24   6 C        2.762     0.273    22.380     7.747
    25   6 C        3.081    -0.048    29.091     8.842
    26   6 C        3.088     0.081    26.094     8.373
    27   8 O        1.762    -0.160    16.707     5.519
    28   6 C        3.092     0.182    24.020     8.033
    29  35 Br       0.990    -0.102   187.794    22.095
    30   6 C        3.045    -0.080    29.945     8.975
    31   8 O        0.860    -0.412    21.925     6.278
    32   6 C        3.806     0.091    19.076     6.218
    33   6 C        2.689     0.354    20.995     7.499
    34   8 O        1.659    -0.352    19.948     6.029
    35   8 O        0.856    -0.383    21.342     6.194
    36   7 N        2.770    -0.127    23.750     7.238
    37   6 C        2.756     0.281    22.248     7.724
    38   6 C        3.088    -0.048    29.096     8.842
    39   6 C        3.075     0.081    26.125     8.380
    40   8 O        1.764    -0.162    16.734     5.524
    41   6 C        3.089     0.182    24.017     8.033
    42  35 Br       0.991    -0.100   187.744    22.092
    43   6 C        3.039    -0.079    29.935     8.974
    44   8 O        0.858    -0.394    21.564     6.226
    45   1 H        0.926     0.035     2.520     2.483
    46   1 H        0.926     0.033     2.546     2.495
    47   1 H        0.926     0.034     2.535     2.490
    48   1 H        0.926     0.035     2.515     2.480
    49   1 H        0.926     0.038     2.481     2.463
    50   1 H        0.926     0.036     2.497     2.471
    51   1 H        0.926     0.038     2.476     2.461
    52   1 H        0.923     0.050     2.320     2.382
    53   1 H        0.924     0.062     2.178     2.308
    54   1 H        0.926     0.026     2.639     2.540
    55   1 H        0.926     0.034     2.537     2.491
    56   1 H        0.926     0.038     2.479     2.462
    57   1 H        0.926     0.040     2.446     2.446
    58   1 H        0.926     0.036     2.502     2.474
    59   1 H        0.926     0.035     2.521     2.483
    60   1 H        0.926     0.035     2.516     2.480
    61   1 H        0.926     0.083     1.947     2.182
    62   1 H        0.927     0.064     2.154     2.295
    63   1 H        0.924     0.069     2.100     2.266
    64   1 H        0.804     0.348     0.593     1.210
    65   1 H        0.926     0.081     1.964     2.192
    66   1 H        0.926     0.078     2.002     2.212

Wiberg/Mayer (AO) data.
largest (>0.10) Wiberg bond orders for each atom

     #   Z sym  total        # sym  WBO       # sym  WBO       # sym  WBO
 ---------------------------------------------------------------------------
     1   6 C    3.991 --     2 C    1.554     6 C    1.282    45 H    0.968
                             4 C    0.118
     2   6 C    3.992 --     1 C    1.554     3 C    1.326    46 H    0.971
     3   6 C    3.992 --     4 C    1.551     2 C    1.326    47 H    0.971
     4   6 C    3.992 --     3 C    1.551     5 C    1.288    48 H    0.965
                             1 C    0.118
     5   6 C    3.989 --     4 C    1.288     6 C    1.258    10 C    1.241
     6   6 C    3.990 --     1 C    1.282     7 C    1.273     5 C    1.258
     7   6 C    3.991 --     8 C    1.561     6 C    1.273    49 H    0.968
                            10 C    0.114
     8   6 C    3.992 --     7 C    1.561     9 C    1.317    50 H    0.970
     9   6 C    3.989 --    10 C    1.533     8 C    1.317    51 H    0.962
    10   6 C    3.982 --     9 C    1.533     5 C    1.241    11 C    0.996
                             7 C    0.114
    11   6 C    3.957 --    10 C    0.996    12 C    0.961    36 N    0.946
                            52 H    0.939
    12   6 C    3.956 --    13 C    0.994    11 C    0.961    53 H    0.946
                            23 N    0.939
    13   6 C    3.983 --    14 C    1.521    18 C    1.253    12 C    0.994
                            16 C    0.115
    14   6 C    3.991 --    13 C    1.521    15 C    1.329    54 H    0.964
    15   6 C    3.992 --    16 C    1.550    14 C    1.329    55 H    0.970
    16   6 C    3.990 --    15 C    1.550    17 C    1.281    56 H    0.968
                            13 C    0.115
    17   6 C    3.990 --    16 C    1.281    22 C    1.279    18 C    1.251
    18   6 C    3.988 --    19 C    1.282    13 C    1.253    17 C    1.251
    19   6 C    3.992 --    20 C    1.554    18 C    1.282    57 H    0.957
                            22 C    0.118
    20   6 C    3.990 --    19 C    1.554    21 C    1.322    58 H    0.971
    21   6 C    3.992 --    22 C    1.558    20 C    1.322    59 H    0.971
    22   6 C    3.991 --    21 C    1.558    17 C    1.279    60 H    0.968
                            19 C    0.118
    23   7 N    3.440 --    24 C    1.197    32 C    0.978    12 C    0.939
                            31 O    0.187
    24   6 C    3.953 --    31 O    1.688    23 N    1.197    25 C    0.994
    25   6 C    3.977 --    26 C    1.551    30 C    1.246    24 C    0.994
    26   6 C    3.903 --    25 C    1.551    27 O    1.143    61 H    0.961
                            28 C    0.130
    27   8 O    2.466 --    26 C    1.143    28 C    1.124
    28   6 C    3.880 --    30 C    1.564    27 O    1.124    29 Br   1.017
                            26 C    0.130
    29  35 Br   1.168 --    28 C    1.017
    30   6 C    3.976 --    28 C    1.564    25 C    1.246    62 H    0.968
    31   8 O    2.022 --    24 C    1.688    23 N    0.187
    32   6 C    3.974 --    36 N    0.988    23 N    0.978    63 H    0.928
                            33 C    0.918
    33   6 C    3.922 --    35 O    1.776    34 O    1.162    32 C    0.918
    34   8 O    2.235 --    33 C    1.162    64 H    0.852    35 O    0.184
    35   8 O    2.063 --    33 C    1.776    34 O    0.184
    36   7 N    3.419 --    37 C    1.166    32 C    0.988    11 C    0.946
                            44 O    0.177
    37   6 C    3.949 --    44 O    1.716    36 N    1.166    38 C    0.993
    38   6 C    3.977 --    39 C    1.553    43 C    1.241    37 C    0.993
    39   6 C    3.904 --    38 C    1.553    40 O    1.143    65 H    0.962
                            41 C    0.128
    40   8 O    2.463 --    39 C    1.143    41 C    1.120
    41   6 C    3.880 --    43 C    1.569    40 O    1.120    42 Br   1.017
                            39 C    0.128
    42  35 Br   1.168 --    41 C    1.017
    43   6 C    3.976 --    41 C    1.569    38 C    1.241    66 H    0.967
    44   8 O    2.049 --    37 C    1.716    36 N    0.177
    45   1 H    0.998 --     1 C    0.968
    46   1 H    0.998 --     2 C    0.971
    47   1 H    0.998 --     3 C    0.971
    48   1 H    0.998 --     4 C    0.965
    49   1 H    0.998 --     7 C    0.968
    50   1 H    0.998 --     8 C    0.970
    51   1 H    0.998 --     9 C    0.962
    52   1 H    0.997 --    11 C    0.939
    53   1 H    0.996 --    12 C    0.946
    54   1 H    0.999 --    14 C    0.964
    55   1 H    0.998 --    15 C    0.970
    56   1 H    0.998 --    16 C    0.968
    57   1 H    0.998 --    19 C    0.957
    58   1 H    0.998 --    20 C    0.971
    59   1 H    0.998 --    21 C    0.971
    60   1 H    0.998 --    22 C    0.968
    61   1 H    0.993 --    26 C    0.961
    62   1 H    0.996 --    30 C    0.968
    63   1 H    0.994 --    32 C    0.928
    64   1 H    0.878 --    34 O    0.852
    65   1 H    0.993 --    39 C    0.962
    66   1 H    0.994 --    43 C    0.967
 ---------------------------------------------------------------------------

molecular dipole:
                 x           y           z       tot (Debye)
 q only:       -0.130      -0.044      -1.531
   full:       -0.262      -0.586      -1.477       4.095

           -------------------------------------------------
          | TOTAL ENERGY             -122.467033275465 Eh   |
          | GRADIENT NORM               0.000929940986 Eh/Î± |
          | HOMO-LUMO GAP               2.561294304483 eV   |
           -------------------------------------------------

 * finished run on 2022/03/16 at 21:59:24.886
