   * xtb version 6.3.3 (4ae9cef) compiled by 'conda@95abc7406d43' on 2020-10-14
          program call               : xtb acid_395.xyz --opt --chrg 0 --uhf 0 --gfn 2
          number of atoms            :                    78
          number of electrons        :                   226
          charge                     :                     0
          spin                       :                   0.0

   ID    Z sym.   atoms
    1    6 C      1-22, 24-31, 33, 34, 38-45
    2    7 N      23, 37
    3    8 O      32, 35, 36, 46
    4    1 H      47-78

          :  Hamiltonian                  GFN2-xTB          :
 * total energy  :  -124.0885551 Eh     change       -0.5545502E-08 Eh
 * total energy  :  -124.1076509 Eh     change       -0.1909578E-01 Eh
 * total energy  :  -124.1139049 Eh     change       -0.6254021E-02 Eh
 * total energy  :  -124.1163153 Eh     change       -0.2410407E-02 Eh
 * total energy  :  -124.1180082 Eh     change       -0.1692951E-02 Eh
 * total energy  :  -124.1190895 Eh     change       -0.1081269E-02 Eh
 * total energy  :  -124.1200216 Eh     change       -0.9321112E-03 Eh
 * total energy  :  -124.1210542 Eh     change       -0.1032618E-02 Eh
 * total energy  :  -124.1221064 Eh     change       -0.1052169E-02 Eh
 * total energy  :  -124.1231018 Eh     change       -0.9954201E-03 Eh
 * total energy  :  -124.1442296 Eh     change       -0.1101962E-04 Eh
 * total energy  :  -124.1442351 Eh     change       -0.5482964E-05 Eh
 * total energy  :  -124.1442358 Eh     change       -0.6756359E-06 Eh
 * total energy  :  -124.1442316 Eh     change        0.4195638E-05 Eh
 * total energy  :  -124.1442399 Eh     change       -0.8295130E-05 Eh
 * total energy  :  -124.1442361 Eh     change        0.3823276E-05 Eh
 * total energy  :  -124.1442429 Eh     change       -0.6787660E-05 Eh
 * total energy  :  -124.1442403 Eh     change        0.2516926E-05 Eh
 * total energy  :  -124.1442453 Eh     change       -0.4963820E-05 Eh
   *** GEOMETRY OPTIMIZATION CONVERGED AFTER 120 ITERATIONS ***

 final structure:
================
78
 xtb: 6.3.3 (4ae9cef)
C         2.70193096332865    2.47034086118937    0.06260362315513
C         3.81969607060367    2.98671918895279   -0.52733360027456
C         4.43467163457795    2.33000119312431   -1.61308434331308
C         5.59443906634108    2.83130696609795   -2.23939016334863
C         6.16263176919000    2.16829443583313   -3.29083466926074
C         5.59720026564459    0.97376844680902   -3.76472125406349
C         4.47398876857535    0.46206560752981   -3.17858463309824
C         3.86409010696885    1.12147385622268   -2.09068067458088
C         2.70625368406552    0.61917707448864   -1.46650884121106
C         2.13672522640736    1.26982442563543   -0.40352368517639
C         0.88298635703008    0.74497499997612    0.24074734108634
C        -0.35424945353880    0.95665440136599   -0.65362305300849
C        -1.06194622649164    2.24314296407197   -0.33081248801576
C        -1.68156656544051    2.42000761766042    0.87897096162517
C        -2.32403520406236    3.63093440457554    1.19922387170128
C        -2.98668134489878    3.82508017337676    2.42959789504682
C        -3.60104954424087    5.01268282060739    2.71108016960361
C        -3.57981609507967    6.06125090715141    1.77763372803065
C        -2.94521102758944    5.90406826631841    0.57743046100923
C        -2.30346117806014    4.69047245177055    0.25521789408692
C        -1.64160327705039    4.48998712337483   -0.97340459359810
C        -1.03966487525760    3.29851238978754   -1.25984087010071
N        -1.16145650098624   -0.22690057213907   -0.37927599438956
C        -2.47265352226742   -0.31826023634356   -0.74129089475163
C        -3.11743573001376   -1.62578477517544   -0.39708748716605
C        -3.55635457498284   -1.88421930072210    0.90252576635643
C        -3.40425032588863   -0.85214544575935    1.98046604766561
C        -4.15557951625705   -3.10799153363744    1.16654947952737
C        -4.32815341100540   -4.04913791596800    0.16704376696453
C        -3.92231724203222   -3.76973089085134   -1.12545821319183
C        -3.32343319768833   -2.55558108865084   -1.40619299733244
O        -3.05595003023323    0.59104897136464   -1.28912265669377
C        -0.33597608647768   -1.32634837570493    0.05945286260037
C        -0.13413672799910   -2.36935926711343   -1.05983290768304
O         0.50279368572688   -1.86037938294731   -2.11148510892071
O        -0.53469109274769   -3.49770072455105   -1.00706178761907
N         0.90430321521239   -0.69761477913278    0.44319962100245
C         1.96255600364637   -1.32724748306826    1.02303271819159
C         1.86216057618516   -2.82150987890379    0.98486054456765
C         2.55461695207125   -3.47024550944353   -0.03232614328133
C         2.49516042498294   -4.84532369092922   -0.14965978815535
C         1.74577034953411   -5.57697624714360    0.75623752484148
C         1.08110449664482   -4.93462519234211    1.78280753206639
C         1.13261131868767   -3.55236182397607    1.91835294265360
C         0.42074379251010   -2.88754464193197    3.05954948003270
O         2.91365024521780   -0.71860146799142    1.46071954074078
H         2.24033936391344    2.97846019249887    0.89664658276648
H         4.25314899751853    3.90752017800763   -0.16435680034995
H         6.02665810569876    3.75064343859433   -1.87055683395560
H         7.05154132097290    2.55729012506661   -3.76559406784223
H         6.05976866642689    0.46326205159720   -4.59702274603334
H         4.03570595278072   -0.45788693609966   -3.53988072956931
H         2.27409849707736   -0.29942948160052   -1.83673608268511
H         0.73870541734263    1.24295828315778    1.20975595705413
H        -0.05166265426835    0.95484644304222   -1.71005480661110
H        -1.69798121202859    1.62029175707252    1.60629570001881
H        -3.00217028066389    3.01526560016590    3.14573566195694
H        -4.10888189910141    5.15415519640709    3.65404446158809
H        -4.07110258624390    6.99289626091460    2.01757033666019
H        -2.92741997000919    6.70772478248681   -0.14496055705951
H        -1.62360260550133    5.29742466166783   -1.69118658068068
H        -0.54095121897353    3.15251868145821   -2.20672776168306
H        -4.01023972941921   -1.11098577975476    2.84555015001962
H        -3.71715924545360    0.12316219134435    1.61102909476375
H        -2.36581228845689   -0.77415321066754    2.30587885557499
H        -4.49793394446512   -3.32233077990878    2.16922137211101
H        -4.79276021750238   -4.99657214418007    0.39613206673727
H        -4.07094795513552   -4.49278248169343   -1.91241683858100
H        -3.01195987548808   -2.32037990358568   -2.41364438034723
H        -0.80578250798460   -1.86654074927577    0.89499461904187
H         0.60014053358709   -2.52746923757764   -2.81138317421508
H         3.14029186943843   -2.88264518182201   -0.72548896693846
H         3.02970304899520   -5.34449534524975   -0.94390108169701
H         1.68663063533005   -6.65115113958306    0.66582082058357
H         0.50864474947144   -5.50943603461806    2.49627843643057
H         0.76136402562480   -3.31049970862462    4.00371510046192
H         0.61537484610304   -1.81763469536366    3.07746708234727
H        -0.65416006245933   -3.06022235673901    2.99160718585114

          :  Hamiltonian                  GFN2-xTB          :
         :: total energy            -124.144245312458 Eh    ::
         :: gradient norm              0.000323314802 Eh/a0 ::
         :: HOMO-LUMO gap              2.880764730573 eV    ::
         :: SCC energy              -126.183546816660 Eh    ::
         :: -> dispersion             -0.113214764107 Eh    ::
         :: repulsion energy           2.035809630528 Eh    ::

    * Orbital Energies and Occupations

         #    Occupation            Energy/Eh            Energy/eV
      -------------------------------------------------------------
         1        2.0000           -0.7779927             -21.1703
       ...           ...                  ...                  ...
       101        2.0000           -0.4162859             -11.3277
       102        2.0000           -0.4135834             -11.2542
       103        2.0000           -0.4114689             -11.1966
       104        2.0000           -0.4094373             -11.1414
       105        2.0000           -0.4057321             -11.0405
       106        2.0000           -0.4047044             -11.0126
       107        2.0000           -0.4037833             -10.9875
       108        2.0000           -0.4022100             -10.9447
       109        2.0000           -0.3978330             -10.8256
       110        2.0000           -0.3930600             -10.6957
       111        2.0000           -0.3921291             -10.6704
       112        2.0000           -0.3802594             -10.3474
       113        2.0000           -0.3775749             -10.2743 (HOMO)
       114                         -0.2717087              -7.3936 (LUMO)
       115                         -0.2624696              -7.1422
       116                         -0.2609771              -7.1015
       117                         -0.2365084              -6.4357
       118                         -0.2345715              -6.3830
       119                         -0.2324700              -6.3258
       120                         -0.2304634              -6.2712
       121                         -0.2287134              -6.2236
       122                         -0.2283725              -6.2143
       123                         -0.2183534              -5.9417
       124                         -0.2141801              -5.8281
       ...                                ...                  ...
       216                          0.6964625              18.9517
      -------------------------------------------------------------
                  HL-Gap            0.1058662 Eh            2.8808 eV

     #   Z          covCN         q      C6AA      Î±(0)
     1   6 C        2.919    -0.030    28.751     8.793
     2   6 C        2.918    -0.032    28.788     8.798
     3   6 C        2.987     0.015    27.674     8.629
     4   6 C        2.918    -0.033    28.825     8.804
     5   6 C        2.916    -0.030    28.737     8.791
     6   6 C        2.916    -0.029    28.735     8.790
     7   6 C        2.918    -0.034    28.852     8.808
     8   6 C        2.987     0.016    27.650     8.626
     9   6 C        2.923    -0.039    28.968     8.826
    10   6 C        2.970     0.012    27.745     8.640
    11   6 C        3.825     0.048    19.760     6.325
    12   6 C        3.827     0.047    19.766     6.326
    13   6 C        2.970     0.014    27.689     8.631
    14   6 C        2.923    -0.037    28.918     8.819
    15   6 C        2.987     0.016    27.644     8.625
    16   6 C        2.918    -0.034    28.855     8.809
    17   6 C        2.916    -0.029    28.726     8.789
    18   6 C        2.916    -0.029    28.731     8.790
    19   6 C        2.918    -0.033    28.822     8.804
    20   6 C        2.988     0.015    27.665     8.628
    21   6 C        2.918    -0.031    28.772     8.796
    22   6 C        2.920    -0.029    28.728     8.789
    23   7 N        2.766    -0.118    23.558     7.209
    24   6 C        2.761     0.274    22.372     7.746
    25   6 C        2.981    -0.031    28.771     8.799
    26   6 C        2.968     0.016    27.648     8.625
    27   6 C        3.757    -0.106    22.582     6.775
    28   6 C        2.925    -0.037    28.927     8.820
    29   6 C        2.919    -0.027    28.667     8.780
    30   6 C        2.920    -0.026    28.640     8.776
    31   6 C        2.924    -0.021    28.530     8.759
    32   8 O        0.859    -0.415    21.972     6.285
    33   6 C        3.755     0.090    19.143     6.239
    34   6 C        2.687     0.349    21.074     7.513
    35   8 O        1.659    -0.355    20.003     6.038
    36   8 O        0.856    -0.388    21.446     6.209
    37   7 N        2.767    -0.119    23.584     7.213
    38   6 C        2.763     0.273    22.380     7.747
    39   6 C        2.982    -0.032    28.797     8.803
    40   6 C        2.926    -0.028    28.696     8.785
    41   6 C        2.919    -0.030    28.739     8.791
    42   6 C        2.919    -0.024    28.608     8.771
    43   6 C        2.926    -0.033    28.827     8.805
    44   6 C        2.967     0.018    27.604     8.618
    45   6 C        3.757    -0.107    22.601     6.778
    46   8 O        0.859    -0.416    21.999     6.288
    47   1 H        0.926     0.033     2.538     2.491
    48   1 H        0.926     0.039     2.468     2.457
    49   1 H        0.926     0.034     2.535     2.490
    50   1 H        0.926     0.032     2.562     2.503
    51   1 H        0.926     0.031     2.575     2.509
    52   1 H        0.926     0.028     2.610     2.527
    53   1 H        0.926     0.039     2.468     2.457
    54   1 H        0.923     0.051     2.305     2.374
    55   1 H        0.923     0.053     2.289     2.366
    56   1 H        0.926     0.030     2.585     2.514
    57   1 H        0.926     0.030     2.580     2.512
    58   1 H        0.926     0.032     2.563     2.504
    59   1 H        0.926     0.032     2.558     2.501
    60   1 H        0.926     0.034     2.533     2.489
    61   1 H        0.926     0.039     2.462     2.454
    62   1 H        0.926     0.034     2.528     2.486
    63   1 H        0.925     0.047     2.355     2.400
    64   1 H        0.925     0.054     2.268     2.355
    65   1 H        0.924     0.037     2.487     2.466
    66   1 H        0.926     0.037     2.493     2.469
    67   1 H        0.926     0.039     2.465     2.455
    68   1 H        0.926     0.041     2.436     2.441
    69   1 H        0.926     0.031     2.571     2.508
    70   1 H        0.923     0.067     2.121     2.277
    71   1 H        0.804     0.342     0.608     1.225
    72   1 H        0.926     0.034     2.534     2.489
    73   1 H        0.926     0.037     2.483     2.464
    74   1 H        0.926     0.040     2.444     2.445
    75   1 H        0.926     0.041     2.433     2.439
    76   1 H        0.925     0.057     2.231     2.336
    77   1 H        0.925     0.039     2.466     2.456
    78   1 H        0.924     0.046     2.372     2.409

Wiberg/Mayer (AO) data.
largest (>0.10) Wiberg bond orders for each atom

     #   Z sym  total        # sym  WBO       # sym  WBO       # sym  WBO
 ---------------------------------------------------------------------------
     1   6 C    3.990 --     2 C    1.561    10 C    1.297    47 H    0.968
     2   6 C    3.991 --     1 C    1.561     3 C    1.278    48 H    0.968
                             9 C    0.116
     3   6 C    3.990 --     4 C    1.281     2 C    1.278     8 C    1.249
     4   6 C    3.992 --     5 C    1.557     3 C    1.281    49 H    0.968
                             7 C    0.118
     5   6 C    3.990 --     4 C    1.557     6 C    1.320    50 H    0.971
     6   6 C    3.992 --     7 C    1.559     5 C    1.320    51 H    0.971
     7   6 C    3.990 --     6 C    1.559     8 C    1.278    52 H    0.969
                             4 C    0.118
     8   6 C    3.990 --     9 C    1.285     7 C    1.278     3 C    1.249
     9   6 C    3.990 --    10 C    1.522     8 C    1.285    53 H    0.962
                             2 C    0.116
    10   6 C    3.985 --     9 C    1.522     1 C    1.297    11 C    0.991
    11   6 C    3.960 --    10 C    0.991    37 N    0.953    54 H    0.953
                            12 C    0.952
    12   6 C    3.959 --    13 C    0.993    55 H    0.953    23 N    0.952
                            11 C    0.952
    13   6 C    3.984 --    14 C    1.520    22 C    1.298    12 C    0.993
    14   6 C    3.991 --    13 C    1.520    15 C    1.286    56 H    0.964
                            21 C    0.116
    15   6 C    3.990 --    14 C    1.286    16 C    1.278    20 C    1.249
    16   6 C    3.990 --    17 C    1.559    15 C    1.278    57 H    0.968
                            19 C    0.118
    17   6 C    3.992 --    16 C    1.559    18 C    1.320    58 H    0.971
    18   6 C    3.990 --    19 C    1.557    17 C    1.320    59 H    0.971
    19   6 C    3.992 --    18 C    1.557    20 C    1.281    60 H    0.968
                            16 C    0.118
    20   6 C    3.990 --    19 C    1.281    21 C    1.279    15 C    1.249
    21   6 C    3.991 --    22 C    1.560    20 C    1.279    61 H    0.968
                            14 C    0.116
    22   6 C    3.990 --    21 C    1.560    13 C    1.298    62 H    0.968
    23   7 N    3.452 --    24 C    1.194    33 C    0.986    12 C    0.952
                            32 O    0.187
    24   6 C    3.942 --    32 O    1.706    23 N    1.194    25 C    0.956
    25   6 C    3.985 --    31 C    1.415    26 C    1.375    24 C    0.956
                            29 C    0.109
    26   6 C    3.988 --    28 C    1.417    25 C    1.375    27 C    1.025
                            30 C    0.108
    27   6 C    3.996 --    26 C    1.025    63 H    0.984    64 H    0.974
                            65 H    0.967
    28   6 C    3.991 --    29 C    1.441    26 C    1.417    66 H    0.968
                            31 C    0.109
    29   6 C    3.992 --    28 C    1.441    30 C    1.439    67 H    0.971
                            25 C    0.109
    30   6 C    3.991 --    29 C    1.439    31 C    1.437    68 H    0.970
                            26 C    0.108
    31   6 C    3.991 --    30 C    1.437    25 C    1.415    69 H    0.970
                            28 C    0.109
    32   8 O    2.032 --    24 C    1.706    23 N    0.187
    33   6 C    3.972 --    37 N    0.987    23 N    0.986    70 H    0.940
                            34 C    0.907
    34   6 C    3.919 --    36 O    1.781    35 O    1.153    33 C    0.907
    35   8 O    2.224 --    34 C    1.153    71 H    0.857    36 O    0.181
    36   8 O    2.062 --    34 C    1.781    35 O    0.181
    37   7 N    3.455 --    38 C    1.198    33 C    0.987    11 C    0.953
                            46 O    0.191
    38   6 C    3.943 --    46 O    1.704    37 N    1.198    39 C    0.954
    39   6 C    3.986 --    40 C    1.396    44 C    1.389    38 C    0.954
                            42 C    0.106
    40   6 C    3.991 --    41 C    1.448    39 C    1.396    72 H    0.970
                            43 C    0.111
    41   6 C    3.992 --    40 C    1.448    42 C    1.428    73 H    0.970
                            44 C    0.108
    42   6 C    3.991 --    43 C    1.452    41 C    1.428    74 H    0.971
                            39 C    0.106
    43   6 C    3.991 --    42 C    1.452    44 C    1.407    75 H    0.969
                            40 C    0.111
    44   6 C    3.988 --    43 C    1.407    39 C    1.389    45 C    1.024
                            41 C    0.108
    45   6 C    3.996 --    44 C    1.024    77 H    0.983    76 H    0.971
                            78 H    0.970
    46   8 O    2.029 --    38 C    1.704    37 N    0.191
    47   1 H    0.998 --     1 C    0.968
    48   1 H    0.998 --     2 C    0.968
    49   1 H    0.998 --     4 C    0.968
    50   1 H    0.999 --     5 C    0.971
    51   1 H    0.999 --     6 C    0.971
    52   1 H    0.999 --     7 C    0.969
    53   1 H    0.998 --     9 C    0.962
    54   1 H    0.996 --    11 C    0.953
    55   1 H    0.997 --    12 C    0.953
    56   1 H    0.999 --    14 C    0.964
    57   1 H    0.999 --    16 C    0.968
    58   1 H    0.999 --    17 C    0.971
    59   1 H    0.999 --    18 C    0.971
    60   1 H    0.998 --    19 C    0.968
    61   1 H    0.998 --    21 C    0.968
    62   1 H    0.998 --    22 C    0.968
    63   1 H    0.997 --    27 C    0.984
    64   1 H    0.997 --    27 C    0.974
    65   1 H    0.999 --    27 C    0.967
    66   1 H    0.998 --    28 C    0.968
    67   1 H    0.998 --    29 C    0.971
    68   1 H    0.997 --    30 C    0.970
    69   1 H    0.999 --    31 C    0.970
    70   1 H    0.995 --    33 C    0.940
    71   1 H    0.883 --    35 O    0.857
    72   1 H    0.999 --    40 C    0.970
    73   1 H    0.998 --    41 C    0.970
    74   1 H    0.998 --    42 C    0.971
    75   1 H    0.998 --    43 C    0.969
    76   1 H    0.996 --    45 C    0.971
    77   1 H    0.998 --    45 C    0.983
    78   1 H    0.998 --    45 C    0.970
 ---------------------------------------------------------------------------

molecular dipole:
                 x           y           z       tot (Debye)
 q only:       -0.016      -0.211      -0.027
   full:       -0.059      -0.595      -0.140       1.561

           -------------------------------------------------
          | TOTAL ENERGY             -124.144245312458 Eh   |
          | GRADIENT NORM               0.000323314802 Eh/Î± |
          | HOMO-LUMO GAP               2.880764730573 eV   |
           -------------------------------------------------

 * finished run on 2022/03/17 at 00:41:44.456
