   * xtb version 6.3.3 (4ae9cef) compiled by 'conda@95abc7406d43' on 2020-10-14
          program call               : xtb acid_238.xyz --opt --chrg 0 --uhf 0 --gfn 2
          number of atoms            :                    72
          number of electrons        :                   226
          charge                     :                     0
          spin                       :                   0.0

   ID    Z sym.   atoms
    1    6 C      1-22, 24-29, 31, 33, 34, 38-41, 43-45
    2    7 N      23, 37
    3    9 F      30, 42
    4    8 O      32, 35, 36, 46
    5    1 H      47-72

          :  Hamiltonian                  GFN2-xTB          :
 * total energy  :  -126.2293402 Eh     change       -0.2470244E-08 Eh
 * total energy  :  -126.2463646 Eh     change       -0.1702442E-01 Eh
 * total energy  :  -126.2515737 Eh     change       -0.5209091E-02 Eh
 * total energy  :  -126.2528593 Eh     change       -0.1285636E-02 Eh
 * total energy  :  -126.2535789 Eh     change       -0.7195608E-03 Eh
 * total energy  :  -126.2538897 Eh     change       -0.3108248E-03 Eh
 * total energy  :  -126.2541997 Eh     change       -0.3099821E-03 Eh
 * total energy  :  -126.2545260 Eh     change       -0.3263096E-03 Eh
 * total energy  :  -126.2548792 Eh     change       -0.3531753E-03 Eh
 * total energy  :  -126.2551717 Eh     change       -0.2925770E-03 Eh
 * total energy  :  -126.2586539 Eh     change       -0.9092810E-05 Eh
 * total energy  :  -126.2586656 Eh     change       -0.1168818E-04 Eh
 * total energy  :  -126.2586760 Eh     change       -0.1040043E-04 Eh
 * total energy  :  -126.2586849 Eh     change       -0.8860309E-05 Eh
 * total energy  :  -126.2586945 Eh     change       -0.9604042E-05 Eh
 * total energy  :  -126.2587056 Eh     change       -0.1114298E-04 Eh
 * total energy  :  -126.2587155 Eh     change       -0.9882350E-05 Eh
 * total energy  :  -126.2587221 Eh     change       -0.6603780E-05 Eh
 * total energy  :  -126.2587254 Eh     change       -0.3286748E-05 Eh
   *** GEOMETRY OPTIMIZATION CONVERGED AFTER 56 ITERATIONS ***

 final structure:
================
72
 xtb: 6.3.3 (4ae9cef)
C        -4.80166669468814   -2.20248837961550   -2.44407624272627
C        -5.54543341408032   -1.86454033550194   -1.34996030997817
C        -4.90411400259571   -1.45584639812695   -0.17280243373530
C        -3.53957662795362   -1.38923730033709   -0.10413411199153
C        -2.73854630018394   -1.72567287382542   -1.21719509288876
C        -3.39320895293835   -2.14143580156753   -2.40896223816817
C        -2.62864156999620   -2.48350283257964   -3.54322702285645
C        -1.26725027013502   -2.41653267554661   -3.50389605081456
C        -0.61372432186568   -2.00250695574799   -2.33374770329168
C        -1.31510630762198   -1.66251757381707   -1.20387726084910
C        -0.61933498306833   -1.17392546539011    0.04662457953946
C         0.92071341903328   -1.23847913568773    0.03942618687896
C         1.42402628301593   -1.26579496279032    1.46631009811525
C         1.84367876913876   -0.11898465184112    2.08703007393153
C         2.27851175682456   -0.12607604712370    3.41921074096357
C         2.28886854108376   -1.29043429014612    4.12924456277550
C         1.85479014977547   -2.49383696121591    3.53586949717326
C         1.40465547889487   -2.49042722303754    2.18780715006589
C         0.95083859387879   -3.70851349038631    1.63520843884633
C         0.95826207553161   -4.86233693752367    2.36917810639611
C         1.41581155282488   -4.86411258405419    3.69423296615544
C         1.85226627942249   -3.70213262994587    4.26352767696848
N         1.27407612613625   -0.00197511031797   -0.65094617048328
C         2.51040452426609    0.18685088503730   -1.17720592014733
C         2.78070563614447    1.55288153195370   -1.73019585407045
C         2.74218507464400    2.68304960593960   -0.92034759455209
C         3.04844444352164    3.92819141381524   -1.44215928621294
C         3.39353077024942    4.06367271451721   -2.77542091482782
C         3.44722720859575    2.92656486667344   -3.56157479886420
F         3.78891569818845    3.04650777124297   -4.85947359972931
C         3.15901495824743    1.67156333249507   -3.06050947822822
O         3.34250471905257   -0.69469280020891   -1.18473181911785
C         0.12657114760046    0.88010872507623   -0.71288517413326
C        -0.50765964305828    0.98714398707390   -2.11614813050787
O         0.34240533139880    0.70943445757434   -3.09604437842969
O        -1.63622253642709    1.35193825569299   -2.28802021174879
N        -0.81678723804373    0.27166277031097    0.18626829161802
C        -1.23914056161496    0.80349236138757    1.37100127902956
C        -1.11298952117507    2.28463545199578    1.49522971050086
C        -1.58915869113671    3.13963210443464    0.50648670746796
C        -1.45780553573196    4.50240234764370    0.70037342044708
F        -1.90661331578016    5.34132721771596   -0.25339567562541
C        -0.86937049919215    5.03516938696528    1.83437428702425
C        -0.41200366047706    4.17036479086702    2.81428582846725
C        -0.53924593947134    2.80194652354876    2.65239310333275
O        -1.71488536682948    0.11515712054436    2.24879277383777
H        -5.27979547895706   -2.52143488497483   -3.35933892664212
H        -6.62394658277151   -1.91042455450828   -1.38378427171333
H        -5.49678003736270   -1.19172387364894    0.69043126614671
H        -3.08426862275776   -1.07206329543780    0.81900236736074
H        -3.14148597116618   -2.79621535644812   -4.44128444767304
H        -0.67571918271573   -2.67651902933977   -4.36944954978637
H         0.46386884290772   -1.95088461202215   -2.35859526425362
H        -1.02671201074811   -1.66367499013199    0.93458191755034
H         1.33658813834151   -2.08639530637701   -0.50702517470209
H         1.85564193143802    0.81770280029127    1.54868691404439
H         2.60521602550506    0.79897919093641    3.87133656972130
H         2.62421824182599   -1.30883730464641    5.15598262473197
H         0.58533861498001   -3.73713574769684    0.62034005655494
H         0.60763310522432   -5.78379066644458    1.92806428055298
H         1.41684888729008   -5.78579739068893    4.25698641364708
H         2.20254790282146   -3.68767485731851    5.28571291489786
H         2.50224203542180    2.59323523792722    0.12961004265203
H         3.01931448510140    4.79942811736436   -0.80581919638572
H         3.62878321657036    5.02498209312607   -3.20328172298698
H         3.22368248210759    0.80078752161438   -3.69239810381773
H         0.36835008286299    1.90658821125118   -0.40761646197864
H        -0.08764751313569    0.80099365240635   -3.96279669543569
H        -2.06358443413443    2.75954714686381   -0.38557106309991
H        -0.78540857519536    6.10514981968864    1.94049483201800
H         0.04093843250042    4.56824686631503    3.70926169297137
H        -0.19578359932450    2.11923600570691    3.41452998008360

          :  Hamiltonian                  GFN2-xTB          :
         :: total energy            -126.258725381657 Eh    ::
         :: gradient norm              0.000718706707 Eh/a0 ::
         :: HOMO-LUMO gap              2.961995076649 eV    ::
         :: SCC energy              -128.184509188250 Eh    ::
         :: -> dispersion             -0.109107474562 Eh    ::
         :: repulsion energy           1.921723126317 Eh    ::

    * Orbital Energies and Occupations

         #    Occupation            Energy/Eh            Energy/eV
      -------------------------------------------------------------
         1        2.0000           -0.8277703             -22.5248
       ...           ...                  ...                  ...
       101        2.0000           -0.4279440             -11.6449
       102        2.0000           -0.4272725             -11.6267
       103        2.0000           -0.4263115             -11.6005
       104        2.0000           -0.4242249             -11.5437
       105        2.0000           -0.4221436             -11.4871
       106        2.0000           -0.4206032             -11.4452
       107        2.0000           -0.4093311             -11.1385
       108        2.0000           -0.4079964             -11.1021
       109        2.0000           -0.4076081             -11.0916
       110        2.0000           -0.4069616             -11.0740
       111        2.0000           -0.4050573             -11.0222
       112        2.0000           -0.3860160             -10.5040
       113        2.0000           -0.3843151             -10.4577 (HOMO)
       114                         -0.2754638              -7.4958 (LUMO)
       115                         -0.2720600              -7.4031
       116                         -0.2671364              -7.2692
       117                         -0.2666813              -7.2568
       118                         -0.2651429              -7.2149
       119                         -0.2527324              -6.8772
       120                         -0.2523725              -6.8674
       121                         -0.2358704              -6.4184
       122                         -0.2353093              -6.4031
       123                         -0.2182615              -5.9392
       124                         -0.2163902              -5.8883
       ...                                ...                  ...
       210                          0.6872221              18.7003
      -------------------------------------------------------------
                  HL-Gap            0.1088513 Eh            2.9620 eV

     #   Z          covCN         q      C6AA      Î±(0)
     1   6 C        2.921    -0.033    28.831     8.805
     2   6 C        2.915    -0.027    28.667     8.780
     3   6 C        2.917    -0.025    28.631     8.774
     4   6 C        2.917    -0.038    28.945     8.822
     5   6 C        2.985     0.012    27.740     8.639
     6   6 C        2.988     0.017    27.633     8.623
     7   6 C        2.920    -0.034    28.855     8.809
     8   6 C        2.914    -0.035    28.876     8.812
     9   6 C        2.919    -0.043    29.061     8.840
    10   6 C        2.966    -0.010    28.273     8.722
    11   6 C        3.861     0.036    19.925     6.348
    12   6 C        3.838     0.040    19.880     6.343
    13   6 C        2.969    -0.001    28.056     8.688
    14   6 C        2.921    -0.030    28.759     8.794
    15   6 C        2.914    -0.029    28.728     8.789
    16   6 C        2.920    -0.033    28.833     8.806
    17   6 C        2.988     0.018    27.593     8.617
    18   6 C        2.986     0.010    27.783     8.646
    19   6 C        2.917    -0.036    28.904     8.816
    20   6 C        2.917    -0.027    28.672     8.781
    21   6 C        2.915    -0.028    28.690     8.783
    22   6 C        2.921    -0.032    28.798     8.800
    23   7 N        2.768    -0.117    23.538     7.206
    24   6 C        2.760     0.275    22.346     7.741
    25   6 C        2.978    -0.011    28.291     8.725
    26   6 C        2.921    -0.038    28.946     8.823
    27   6 C        2.923    -0.027    28.681     8.782
    28   6 C        2.917    -0.046    29.150     8.854
    29   6 C        2.787     0.174    24.252     8.067
    30   9 F        0.787    -0.219    11.430     3.994
    31   6 C        2.922    -0.039    28.971     8.827
    32   8 O        0.859    -0.414    21.962     6.283
    33   6 C        3.788     0.088    19.131     6.230
    34   6 C        2.688     0.352    21.019     7.503
    35   8 O        1.659    -0.360    20.082     6.050
    36   8 O        0.856    -0.385    21.377     6.199
    37   7 N        2.779    -0.113    23.463     7.194
    38   6 C        2.763     0.276    22.328     7.738
    39   6 C        2.980    -0.015    28.385     8.739
    40   6 C        2.917    -0.056    29.389     8.890
    41   6 C        2.787     0.173    24.268     8.069
    42   9 F        0.787    -0.219    11.437     3.995
    43   6 C        2.917    -0.046    29.149     8.853
    44   6 C        2.923    -0.026    28.658     8.779
    45   6 C        2.922    -0.027    28.678     8.782
    46   8 O        0.859    -0.413    21.939     6.280
    47   1 H        0.926     0.035     2.519     2.482
    48   1 H        0.926     0.035     2.519     2.482
    49   1 H        0.926     0.038     2.481     2.463
    50   1 H        0.926     0.055     2.263     2.353
    51   1 H        0.926     0.037     2.485     2.465
    52   1 H        0.926     0.034     2.532     2.489
    53   1 H        0.926     0.038     2.479     2.462
    54   1 H        0.924     0.087     1.908     2.160
    55   1 H        0.924     0.078     1.995     2.209
    56   1 H        0.926     0.014     2.828     2.630
    57   1 H        0.926     0.032     2.562     2.503
    58   1 H        0.926     0.038     2.474     2.460
    59   1 H        0.926     0.030     2.591     2.517
    60   1 H        0.926     0.035     2.520     2.482
    61   1 H        0.926     0.035     2.512     2.479
    62   1 H        0.926     0.037     2.494     2.470
    63   1 H        0.926     0.035     2.518     2.482
    64   1 H        0.926     0.052     2.298     2.371
    65   1 H        0.926     0.066     2.126     2.280
    66   1 H        0.926     0.075     2.032     2.229
    67   1 H        0.924     0.069     2.092     2.262
    68   1 H        0.804     0.348     0.592     1.209
    69   1 H        0.926     0.079     1.993     2.207
    70   1 H        0.926     0.065     2.139     2.287
    71   1 H        0.926     0.055     2.261     2.351
    72   1 H        0.926     0.061     2.183     2.310

Wiberg/Mayer (AO) data.
largest (>0.10) Wiberg bond orders for each atom

     #   Z sym  total        # sym  WBO       # sym  WBO       # sym  WBO
 ---------------------------------------------------------------------------
     1   6 C    3.991 --     2 C    1.555     6 C    1.281    47 H    0.968
                             4 C    0.119
     2   6 C    3.992 --     1 C    1.555     3 C    1.325    48 H    0.971
     3   6 C    3.992 --     4 C    1.551     2 C    1.325    49 H    0.971
     4   6 C    3.990 --     3 C    1.551     5 C    1.287    50 H    0.960
                             1 C    0.119
     5   6 C    3.988 --     4 C    1.287     6 C    1.255    10 C    1.245
     6   6 C    3.990 --     1 C    1.281     7 C    1.276     5 C    1.255
     7   6 C    3.990 --     8 C    1.558     6 C    1.276    51 H    0.968
                            10 C    0.113
     8   6 C    3.991 --     7 C    1.558     9 C    1.319    52 H    0.970
     9   6 C    3.990 --    10 C    1.527     8 C    1.319    53 H    0.963
    10   6 C    3.983 --     9 C    1.527     5 C    1.245    11 C    0.986
                             7 C    0.113
    11   6 C    3.955 --    10 C    0.986    12 C    0.958    37 N    0.946
                            54 H    0.945
    12   6 C    3.960 --    13 C    0.985    23 N    0.959    11 C    0.958
                            55 H    0.942
    13   6 C    3.985 --    14 C    1.531    18 C    1.247    12 C    0.985
                            16 C    0.114
    14   6 C    3.991 --    13 C    1.531    15 C    1.319    56 H    0.965
    15   6 C    3.992 --    16 C    1.559    14 C    1.319    57 H    0.971
    16   6 C    3.991 --    15 C    1.559    17 C    1.276    58 H    0.968
                            13 C    0.114
    17   6 C    3.990 --    22 C    1.281    16 C    1.276    18 C    1.256
    18   6 C    3.989 --    19 C    1.285    17 C    1.256    13 C    1.247
    19   6 C    3.992 --    20 C    1.553    18 C    1.285    59 H    0.966
                            22 C    0.118
    20   6 C    3.992 --    19 C    1.553    21 C    1.324    60 H    0.971
    21   6 C    3.992 --    22 C    1.556    20 C    1.324    61 H    0.971
    22   6 C    3.991 --    21 C    1.556    17 C    1.281    62 H    0.968
                            19 C    0.118
    23   7 N    3.467 --    24 C    1.211    33 C    0.980    12 C    0.959
                            32 O    0.193
    24   6 C    3.950 --    32 O    1.694    23 N    1.211    25 C    0.962
    25   6 C    3.987 --    31 C    1.408    26 C    1.403    24 C    0.962
                            28 C    0.109
    26   6 C    3.991 --    27 C    1.442    25 C    1.403    63 H    0.965
    27   6 C    3.990 --    26 C    1.442    28 C    1.439    64 H    0.969
                            31 C    0.110
    28   6 C    3.989 --    27 C    1.439    29 C    1.394    65 H    0.966
                            25 C    0.109
    29   6 C    3.890 --    31 C    1.401    28 C    1.394    30 F    0.964
    30   9 F    1.098 --    29 C    0.964
    31   6 C    3.987 --    25 C    1.408    29 C    1.401    66 H    0.964
                            27 C    0.110
    32   8 O    2.023 --    24 C    1.694    23 N    0.193
    33   6 C    3.975 --    37 N    0.996    23 N    0.980    67 H    0.923
                            34 C    0.914
    34   6 C    3.922 --    36 O    1.774    35 O    1.159    33 C    0.914
    35   8 O    2.222 --    34 C    1.159    68 H    0.852    36 O    0.181
    36   8 O    2.063 --    34 C    1.774    35 O    0.181
    37   7 N    3.450 --    38 C    1.190    33 C    0.996    11 C    0.946
                            46 O    0.184
    38   6 C    3.945 --    46 O    1.694    37 N    1.190    39 C    0.977
    39   6 C    3.987 --    45 C    1.400    40 C    1.396    38 C    0.977
                            43 C    0.106
    40   6 C    3.987 --    41 C    1.402    39 C    1.396    69 H    0.960
                            44 C    0.109
    41   6 C    3.890 --    40 C    1.402    43 C    1.393    42 F    0.963
    42   9 F    1.097 --    41 C    0.963
    43   6 C    3.988 --    44 C    1.439    41 C    1.393    70 H    0.966
                            39 C    0.106
    44   6 C    3.990 --    45 C    1.443    43 C    1.439    71 H    0.969
                            40 C    0.109
    45   6 C    3.988 --    44 C    1.443    39 C    1.400    72 H    0.967
    46   8 O    2.029 --    38 C    1.694    37 N    0.184
    47   1 H    0.998 --     1 C    0.968
    48   1 H    0.998 --     2 C    0.971
    49   1 H    0.998 --     3 C    0.971
    50   1 H    0.997 --     4 C    0.960
    51   1 H    0.997 --     7 C    0.968
    52   1 H    0.998 --     8 C    0.970
    53   1 H    0.998 --     9 C    0.963
    54   1 H    0.992 --    11 C    0.945
    55   1 H    0.993 --    12 C    0.942
    56   1 H    0.999 --    14 C    0.965
    57   1 H    0.998 --    15 C    0.971
    58   1 H    0.997 --    16 C    0.968
    59   1 H    0.999 --    19 C    0.966
    60   1 H    0.998 --    20 C    0.971
    61   1 H    0.998 --    21 C    0.971
    62   1 H    0.998 --    22 C    0.968
    63   1 H    0.999 --    26 C    0.965
    64   1 H    0.997 --    27 C    0.969
    65   1 H    0.995 --    28 C    0.966
    66   1 H    0.994 --    31 C    0.964
    67   1 H    0.995 --    33 C    0.923
    68   1 H    0.878 --    35 O    0.852
    69   1 H    0.994 --    40 C    0.960
    70   1 H    0.995 --    43 C    0.966
    71   1 H    0.997 --    44 C    0.969
    72   1 H    0.996 --    45 C    0.967
 ---------------------------------------------------------------------------

molecular dipole:
                 x           y           z       tot (Debye)
 q only:       -0.195      -0.090       0.528
   full:       -0.137       0.282       0.343       1.182

           -------------------------------------------------
          | TOTAL ENERGY             -126.258725381657 Eh   |
          | GRADIENT NORM               0.000718706707 Eh/Î± |
          | HOMO-LUMO GAP               2.961995076649 eV   |
           -------------------------------------------------

 * finished run on 2022/03/16 at 22:49:38.786
