   * xtb version 6.3.3 (4ae9cef) compiled by 'conda@95abc7406d43' on 2020-10-14
          program call               : xtb acid_327.xyz --opt --chrg 0 --uhf 0 --gfn 2
          number of atoms            :                    78
          number of electrons        :                   262
          charge                     :                     0
          spin                       :                   0.0

   ID    Z sym.   atoms
    1    6 C      1-22, 24-30, 34, 36, 37, 41-45, 49-51
    2    7 N      23, 40
    3    9 F      31-33, 46-48
    4    8 O      35, 38, 39, 52
    5    1 H      53-78

          :  Hamiltonian                  GFN2-xTB          :
 * total energy  :  -149.4420118 Eh     change       -0.6247092E-09 Eh
 * total energy  :  -149.4630559 Eh     change       -0.2104417E-01 Eh
 * total energy  :  -149.4702410 Eh     change       -0.7185065E-02 Eh
 * total energy  :  -149.4728374 Eh     change       -0.2596383E-02 Eh
 * total energy  :  -149.4743017 Eh     change       -0.1464259E-02 Eh
 * total energy  :  -149.4750447 Eh     change       -0.7430625E-03 Eh
 * total energy  :  -149.4757184 Eh     change       -0.6736600E-03 Eh
 * total energy  :  -149.4765703 Eh     change       -0.8519218E-03 Eh
 * total energy  :  -149.4775907 Eh     change       -0.1020402E-02 Eh
 * total energy  :  -149.4788965 Eh     change       -0.1305838E-02 Eh
 * total energy  :  -149.5074719 Eh     change       -0.2664322E-04 Eh
 * total energy  :  -149.5074967 Eh     change       -0.2477759E-04 Eh
 * total energy  :  -149.5075179 Eh     change       -0.2120388E-04 Eh
 * total energy  :  -149.5075337 Eh     change       -0.1580492E-04 Eh
 * total energy  :  -149.5075472 Eh     change       -0.1345249E-04 Eh
 * total energy  :  -149.5075590 Eh     change       -0.1180804E-04 Eh
 * total energy  :  -149.5075672 Eh     change       -0.8209015E-05 Eh
 * total energy  :  -149.5075681 Eh     change       -0.9381025E-06 Eh
 * total energy  :  -149.5075723 Eh     change       -0.4184596E-05 Eh
   *** GEOMETRY OPTIMIZATION CONVERGED AFTER 92 ITERATIONS ***

 final structure:
================
78
 xtb: 6.3.3 (4ae9cef)
C        -3.68578943147058   -3.93423879547728    0.08280052051307
C        -4.44444002281304   -2.92307518934276   -0.43322443644043
C        -3.92716432522344   -1.62110324224421   -0.47689289728345
C        -2.67705947919222   -1.35238853223542    0.00826233779773
C        -1.87159836148673   -2.36580392207860    0.57515836918752
C        -2.39220467633066   -3.69011244575872    0.59112333001152
C        -1.61214037425069   -4.74262779099225    1.11129979387757
C        -0.36208217615827   -4.50152528739111    1.60292229736834
C         0.14367922872464   -3.19640085568809    1.61691384946442
C        -0.58222169335561   -2.13922977050076    1.12904984776247
C         0.04245682439099   -0.76759646020256    1.19505367446758
C         0.44390683923127   -0.21708169216375   -0.19008418601752
C         1.91238829740272   -0.41673738231264   -0.47686627025395
C         2.81907447733226    0.21988158500576    0.33720905673350
C         4.19509228828861    0.15065030483807    0.09387800526898
C         4.66012486436339   -0.54176454562576   -0.98733746749468
C         3.76814072288220   -1.22281951755642   -1.83971631810458
C         2.37049609011760   -1.19934267056463   -1.56999713682183
C         1.52447273320091   -1.94416825355981   -2.42113606766054
C         2.02195705131130   -2.62430009018941   -3.49739774729627
C         3.39363920179869   -2.60339976606352   -3.78625750648259
C         4.24778640981825   -1.92532368344901   -2.96541893650174
N         0.09314583648966    1.19517396511602   -0.10375610611533
C         0.64869684584635    2.23541464245848   -0.76480824805524
C         1.43730139510608    1.87598945892390   -1.98185053012405
C         0.83416550010280    1.20812224164947   -3.04064699517757
C         1.57093767179551    0.87353655455848   -4.16348016075869
C         2.91698655111614    1.18241759730759   -4.22884934321812
C         3.51010266647014    1.87006251625301   -3.17694054774550
C         4.97241378009221    2.20188064620851   -3.26680063194373
F         5.22290615540174    3.17932044503949   -4.15652235860137
F         5.49710593946332    2.60505298620456   -2.10261901138007
F         5.70583950208573    1.14549664790434   -3.66419522807313
C         2.77284956179389    2.24580495387723   -2.06652467525573
O         0.47107828801350    3.37856539817036   -0.38747808493372
C        -0.78004246534855    1.48946173272712    1.01148360000057
C        -0.21988356050661    2.65017741706742    1.86298382106787
O         1.05063274111893    2.43748220845764    2.20875638525708
O        -0.88235497424062    3.56286783441591    2.26180481349718
N        -0.85306225650692    0.24712931999370    1.74183369615214
C        -1.42196487504465    0.06460348497156    2.96404768175237
C        -2.37305884931311    1.14458392443424    3.37462333821452
C        -3.52127264619764    1.36585008822328    2.62776554715974
C        -4.41099752409969    2.35373833004331    3.02188555096041
C        -5.65859851906338    2.56265641846015    2.21162609455367
F        -6.18565307827614    3.78489152104087    2.35319143921831
F        -5.45174075381572    2.38336376686075    0.89511713147673
F        -6.63263379478554    1.69281473390074    2.55030844054835
C        -4.17063293203894    3.11648136939220    4.15595901481997
C        -3.03677969985270    2.87010723139754    4.90974680538655
C        -2.14612107462212    1.88249583785981    4.52894141048868
O        -1.19977170971006   -0.91573467549703    3.63962057527487
H        -4.06576188155030   -4.94531500490208    0.11311424578386
H        -5.43630859906903   -3.11630188000420   -0.81319969600864
H        -4.52474728679535   -0.82558452431445   -0.89830504623859
H        -2.30597228042710   -0.34292090949390   -0.05323720682788
H        -2.02533985892779   -5.74075543317249    1.11451833107822
H         0.23928234641976   -5.30566049014177    1.99893547158400
H         1.12435817113719   -3.02118187730535    2.03424720350469
H         0.92954797059060   -0.83462584267179    1.83890509687450
H        -0.17331711511757   -0.68884713270089   -0.96020350791884
H         2.46619222146878    0.81751145343967    1.16495508864949
H         4.87735186440639    0.66606213571538    0.75219055250951
H         5.71631441112891   -0.57715577715845   -1.20865999581308
H         0.46571499284879   -2.00088205846420   -2.22044305768823
H         1.35444625244014   -3.18706151975781   -4.13310311689381
H         3.76583230878973   -3.13499136669566   -4.64891175427528
H         5.30927121448676   -1.91100474726474   -3.16322828149754
H        -0.21458534990474    0.95712924336406   -2.98879739958200
H         1.09892653431419    0.35759543701111   -4.98447679459168
H         3.50785400283224    0.89731005114226   -5.08534429094458
H         3.23162069550529    2.79528293555108   -1.25963802280940
H        -1.76815053353073    1.82802642708928    0.65504900065693
H         1.38924388903271    3.19190250174574    2.71715181266734
H        -3.73193774326844    0.76431456988730    1.75565775342255
H        -4.86515033833781    3.89103178273294    4.44194717716578
H        -2.84826280842549    3.45305496951178    5.79744154689890
H        -1.26453229007601    1.68176546298833    5.11886835376179

          :  Hamiltonian                  GFN2-xTB          :
         :: total energy            -149.507572310554 Eh    ::
         :: gradient norm              0.000527249073 Eh/a0 ::
         :: HOMO-LUMO gap              2.785311401779 eV    ::
         :: SCC energy              -151.506947295382 Eh    ::
         :: -> dispersion             -0.124549921290 Eh    ::
         :: repulsion energy           1.994432795546 Eh    ::

    * Orbital Energies and Occupations

         #    Occupation            Energy/Eh            Energy/eV
      -------------------------------------------------------------
         1        2.0000           -0.8852089             -24.0878
       ...           ...                  ...                  ...
       119        2.0000           -0.4397474             -11.9661
       120        2.0000           -0.4384979             -11.9321
       121        2.0000           -0.4368878             -11.8883
       122        2.0000           -0.4343831             -11.8202
       123        2.0000           -0.4295981             -11.6900
       124        2.0000           -0.4255741             -11.5805
       125        2.0000           -0.4229311             -11.5085
       126        2.0000           -0.4199138             -11.4264
       127        2.0000           -0.4145866             -11.2815
       128        2.0000           -0.4128973             -11.2355
       129        2.0000           -0.4093907             -11.1401
       130        2.0000           -0.3998996             -10.8818
       131        2.0000           -0.3897678             -10.6061 (HOMO)
       132                         -0.2874095              -7.8208 (LUMO)
       133                         -0.2828399              -7.6965
       134                         -0.2748151              -7.4781
       135                         -0.2738446              -7.4517
       136                         -0.2706820              -7.3656
       137                         -0.2645125              -7.1978
       138                         -0.2609055              -7.0996
       139                         -0.2508920              -6.8271
       140                         -0.2410893              -6.5604
       141                         -0.2345063              -6.3812
       142                         -0.2241309              -6.0989
       ...                                ...                  ...
       234                          0.6812540              18.5379
      -------------------------------------------------------------
                  HL-Gap            0.1023583 Eh            2.7853 eV

     #   Z          covCN         q      C6AA      Î±(0)
     1   6 C        2.921    -0.032    28.795     8.800
     2   6 C        2.915    -0.028    28.708     8.786
     3   6 C        2.916    -0.030    28.744     8.792
     4   6 C        2.917    -0.041    29.028     8.835
     5   6 C        2.983     0.010    27.781     8.646
     6   6 C        2.988     0.016    27.635     8.623
     7   6 C        2.921    -0.033    28.820     8.804
     8   6 C        2.914    -0.026    28.660     8.779
     9   6 C        2.924    -0.027    28.688     8.784
    10   6 C        2.966     0.001    28.003     8.680
    11   6 C        3.826     0.048    19.750     6.324
    12   6 C        3.814     0.036    19.956     6.358
    13   6 C        2.967    -0.013    28.345     8.733
    14   6 C        2.923    -0.040    29.005     8.832
    15   6 C        2.914    -0.031    28.766     8.795
    16   6 C        2.921    -0.035    28.878     8.813
    17   6 C        2.989     0.013    27.722     8.637
    18   6 C        2.983     0.004    27.935     8.670
    19   6 C        2.917    -0.039    28.969     8.826
    20   6 C        2.917    -0.029    28.713     8.787
    21   6 C        2.915    -0.029    28.728     8.789
    22   6 C        2.921    -0.033    28.825     8.804
    23   7 N        2.765    -0.108    23.369     7.180
    24   6 C        2.770     0.274    22.375     7.747
    25   6 C        2.978    -0.001    28.053     8.688
    26   6 C        2.923    -0.020    28.501     8.755
    27   6 C        2.920    -0.019    28.490     8.753
    28   6 C        2.922    -0.020    28.497     8.754
    29   6 C        2.978    -0.021    28.521     8.760
    30   6 C        3.337     0.486    17.280     6.582
    31   9 F        0.791    -0.204    11.279     3.967
    32   9 F        0.791    -0.203    11.264     3.965
    33   9 F        0.791    -0.208    11.318     3.974
    34   6 C        2.924    -0.015    28.389     8.738
    35   8 O        0.860    -0.416    22.003     6.289
    36   6 C        3.760     0.097    19.027     6.218
    37   6 C        2.687     0.364    20.823     7.468
    38   8 O        1.659    -0.365    20.180     6.064
    39   8 O        0.856    -0.383    21.347     6.194
    40   7 N        2.760    -0.116    23.523     7.203
    41   6 C        2.764     0.272    22.412     7.753
    42   6 C        2.978    -0.010    28.249     8.718
    43   6 C        2.926    -0.022    28.562     8.764
    44   6 C        2.977    -0.018    28.443     8.748
    45   6 C        3.336     0.486    17.275     6.581
    46   9 F        0.791    -0.201    11.246     3.961
    47   9 F        0.791    -0.209    11.325     3.975
    48   9 F        0.791    -0.210    11.337     3.977
    49   6 C        2.920    -0.016    28.418     8.742
    50   6 C        2.921    -0.015    28.375     8.735
    51   6 C        2.923    -0.010    28.278     8.720
    52   8 O        0.859    -0.406    21.810     6.261
    53   1 H        0.926     0.038     2.482     2.464
    54   1 H        0.926     0.037     2.489     2.467
    55   1 H        0.926     0.036     2.506     2.476
    56   1 H        0.926     0.025     2.663     2.552
    57   1 H        0.926     0.040     2.444     2.444
    58   1 H        0.926     0.041     2.438     2.442
    59   1 H        0.926     0.037     2.490     2.468
    60   1 H        0.923     0.061     2.183     2.310
    61   1 H        0.924     0.056     2.244     2.343
    62   1 H        0.926     0.049     2.332     2.388
    63   1 H        0.926     0.045     2.378     2.412
    64   1 H        0.926     0.048     2.341     2.392
    65   1 H        0.926     0.028     2.614     2.528
    66   1 H        0.926     0.038     2.479     2.462
    67   1 H        0.926     0.041     2.441     2.443
    68   1 H        0.926     0.047     2.357     2.401
    69   1 H        0.926     0.054     2.273     2.358
    70   1 H        0.926     0.061     2.189     2.314
    71   1 H        0.926     0.064     2.148     2.292
    72   1 H        0.926     0.072     2.064     2.247
    73   1 H        0.923     0.067     2.120     2.277
    74   1 H        0.804     0.345     0.601     1.218
    75   1 H        0.926     0.057     2.235     2.338
    76   1 H        0.926     0.069     2.099     2.266
    77   1 H        0.926     0.063     2.162     2.300
    78   1 H        0.926     0.059     2.212     2.326

Wiberg/Mayer (AO) data.
largest (>0.10) Wiberg bond orders for each atom

     #   Z sym  total        # sym  WBO       # sym  WBO       # sym  WBO
 ---------------------------------------------------------------------------
     1   6 C    3.991 --     2 C    1.557     6 C    1.280    53 H    0.968
                             4 C    0.118
     2   6 C    3.992 --     1 C    1.557     3 C    1.322    54 H    0.970
     3   6 C    3.992 --     4 C    1.554     2 C    1.322    55 H    0.971
     4   6 C    3.992 --     3 C    1.554     5 C    1.283    56 H    0.963
                             1 C    0.118
     5   6 C    3.989 --     4 C    1.283    10 C    1.254     6 C    1.252
     6   6 C    3.990 --     1 C    1.280     7 C    1.279     5 C    1.252
     7   6 C    3.990 --     8 C    1.553     6 C    1.279    57 H    0.968
                            10 C    0.115
     8   6 C    3.991 --     7 C    1.553     9 C    1.327    58 H    0.970
     9   6 C    3.989 --    10 C    1.523     8 C    1.327    59 H    0.967
    10   6 C    3.982 --     9 C    1.523     5 C    1.254    11 C    0.990
                             7 C    0.115
    11   6 C    3.959 --    10 C    0.990    12 C    0.953    40 N    0.952
                            60 H    0.950
    12   6 C    3.960 --    13 C    0.990    11 C    0.953    23 N    0.953
                            61 H    0.945
    13   6 C    3.983 --    14 C    1.515    18 C    1.256    12 C    0.990
                            16 C    0.115
    14   6 C    3.990 --    13 C    1.515    15 C    1.333    62 H    0.963
    15   6 C    3.991 --    16 C    1.546    14 C    1.333    63 H    0.969
    16   6 C    3.989 --    15 C    1.546    17 C    1.282    64 H    0.967
                            13 C    0.115
    17   6 C    3.990 --    16 C    1.282    22 C    1.278    18 C    1.250
    18   6 C    3.989 --    19 C    1.282    13 C    1.256    17 C    1.250
    19   6 C    3.992 --    20 C    1.555    18 C    1.282    65 H    0.960
                            22 C    0.118
    20   6 C    3.990 --    19 C    1.555    21 C    1.321    66 H    0.971
    21   6 C    3.992 --    22 C    1.558    20 C    1.321    67 H    0.970
    22   6 C    3.990 --    21 C    1.558    17 C    1.278    68 H    0.967
                            19 C    0.118
    23   7 N    3.473 --    24 C    1.230    36 C    0.980    12 C    0.953
                            35 O    0.192
    24   6 C    3.948 --    35 O    1.664    23 N    1.230    25 C    0.966
    25   6 C    3.989 --    26 C    1.404    34 C    1.401    24 C    0.966
                            28 C    0.108
    26   6 C    3.990 --    27 C    1.440    25 C    1.404    69 H    0.968
                            29 C    0.105
    27   6 C    3.990 --    28 C    1.442    26 C    1.440    70 H    0.968
                            34 C    0.109
    28   6 C    3.988 --    27 C    1.442    29 C    1.405    71 H    0.967
                            25 C    0.108
    29   6 C    3.976 --    34 C    1.425    28 C    1.405    30 C    0.951
                            26 C    0.105
    30   6 C    3.828 --    32 F    0.953    29 C    0.951    31 F    0.944
                            33 F    0.943
    31   9 F    1.073 --    30 C    0.944
    32   9 F    1.076 --    30 C    0.953
    33   9 F    1.069 --    30 C    0.943
    34   6 C    3.987 --    29 C    1.425    25 C    1.401    72 H    0.964
                            27 C    0.109
    35   8 O    2.050 --    24 C    1.664    23 N    0.192
    36   6 C    3.965 --    40 N    0.983    23 N    0.980    73 H    0.941
                            37 C    0.907
    37   6 C    3.925 --    39 O    1.781    38 O    1.141    36 C    0.907
    38   8 O    2.207 --    37 C    1.141    74 H    0.856    39 O    0.174
    39   8 O    2.067 --    37 C    1.781    38 O    0.174
    40   7 N    3.457 --    41 C    1.202    36 C    0.983    11 C    0.952
                            52 O    0.192
    41   6 C    3.950 --    52 O    1.703    40 N    1.202    42 C    0.962
    42   6 C    3.987 --    43 C    1.407    51 C    1.406    41 C    0.962
                            49 C    0.108
    43   6 C    3.990 --    44 C    1.417    42 C    1.407    75 H    0.964
                            50 C    0.111
    44   6 C    3.975 --    43 C    1.417    49 C    1.412    45 C    0.951
                            51 C    0.106
    45   6 C    3.825 --    46 F    0.955    44 C    0.951    47 F    0.945
                            48 F    0.938
    46   9 F    1.078 --    45 C    0.955
    47   9 F    1.069 --    45 C    0.945
    48   9 F    1.068 --    45 C    0.938
    49   6 C    3.987 --    50 C    1.439    44 C    1.412    76 H    0.966
                            42 C    0.108
    50   6 C    3.989 --    51 C    1.443    49 C    1.439    77 H    0.968
                            43 C    0.111
    51   6 C    3.989 --    50 C    1.443    42 C    1.406    78 H    0.968
                            44 C    0.106
    52   8 O    2.035 --    41 C    1.703    40 N    0.192
    53   1 H    0.998 --     1 C    0.968
    54   1 H    0.998 --     2 C    0.970
    55   1 H    0.998 --     3 C    0.971
    56   1 H    0.999 --     4 C    0.963
    57   1 H    0.997 --     7 C    0.968
    58   1 H    0.997 --     8 C    0.970
    59   1 H    0.998 --     9 C    0.967
    60   1 H    0.996 --    11 C    0.950
    61   1 H    0.996 --    12 C    0.945
    62   1 H    0.997 --    14 C    0.963
    63   1 H    0.997 --    15 C    0.969
    64   1 H    0.997 --    16 C    0.967
    65   1 H    0.999 --    19 C    0.960
    66   1 H    0.998 --    20 C    0.971
    67   1 H    0.997 --    21 C    0.970
    68   1 H    0.997 --    22 C    0.967
    69   1 H    0.997 --    26 C    0.968
    70   1 H    0.995 --    27 C    0.968
    71   1 H    0.995 --    28 C    0.967
    72   1 H    0.995 --    34 C    0.964
    73   1 H    0.995 --    36 C    0.941
    74   1 H    0.881 --    38 O    0.856
    75   1 H    0.997 --    43 C    0.964
    76   1 H    0.995 --    49 C    0.966
    77   1 H    0.995 --    50 C    0.968
    78   1 H    0.996 --    51 C    0.968
 ---------------------------------------------------------------------------

molecular dipole:
                 x           y           z       tot (Debye)
 q only:        0.928      -2.057      -0.510
   full:        0.968      -1.843      -0.561       5.481

           -------------------------------------------------
          | TOTAL ENERGY             -149.507572310554 Eh   |
          | GRADIENT NORM               0.000527249073 Eh/Î± |
          | HOMO-LUMO GAP               2.785311401779 eV   |
           -------------------------------------------------

 * finished run on 2022/03/16 at 23:52:29.162
