   * xtb version 6.3.3 (4ae9cef) compiled by 'conda@95abc7406d43' on 2020-10-14
          program call               : xtb acid_349.xyz --opt --chrg 0 --uhf 0 --gfn 2
          number of atoms            :                    66
          number of electrons        :                   218
          charge                     :                     0
          spin                       :                   0.0

   ID    Z sym.   atoms
    1    6 C      1-22, 24-26, 29, 30, 32, 33, 37-39, 42, 43
    2    7 N      23, 36
    3   35 Br     27, 40
    4   16 S      28, 41
    5    8 O      31, 34, 35, 44
    6    1 H      45-66

          :  Hamiltonian                  GFN2-xTB          :
 * total energy  :  -120.7923997 Eh     change       -0.2750625E-08 Eh
 * total energy  :  -120.8114143 Eh     change       -0.1901457E-01 Eh
 * total energy  :  -120.8175272 Eh     change       -0.6112906E-02 Eh
 * total energy  :  -120.8193406 Eh     change       -0.1813403E-02 Eh
 * total energy  :  -120.8203445 Eh     change       -0.1003903E-02 Eh
 * total energy  :  -120.8208820 Eh     change       -0.5374961E-03 Eh
 * total energy  :  -120.8215044 Eh     change       -0.6223736E-03 Eh
 * total energy  :  -120.8221416 Eh     change       -0.6372666E-03 Eh
 * total energy  :  -120.8227479 Eh     change       -0.6062334E-03 Eh
 * total energy  :  -120.8233557 Eh     change       -0.6077888E-03 Eh
 * total energy  :  -120.8347299 Eh     change       -0.9192113E-05 Eh
 * total energy  :  -120.8347388 Eh     change       -0.8882996E-05 Eh
 * total energy  :  -120.8347489 Eh     change       -0.1008463E-04 Eh
 * total energy  :  -120.8347610 Eh     change       -0.1215164E-04 Eh
 * total energy  :  -120.8347748 Eh     change       -0.1376905E-04 Eh
 * total energy  :  -120.8347880 Eh     change       -0.1325002E-04 Eh
 * total energy  :  -120.8347992 Eh     change       -0.1119687E-04 Eh
 * total energy  :  -120.8348081 Eh     change       -0.8854865E-05 Eh
 * total energy  :  -120.8348106 Eh     change       -0.2551904E-05 Eh
   *** GEOMETRY OPTIMIZATION CONVERGED AFTER 94 ITERATIONS ***

 final structure:
================
66
 xtb: 6.3.3 (4ae9cef)
C         1.89365202437305   -3.83583527766025   -2.70191737199794
C         1.78502207913561   -3.07149299405915   -3.82788297602366
C         1.54995606894182   -1.69419796423198   -3.71413204354278
C         1.43744536366282   -1.10495033498405   -2.48603204334465
C         1.54354439942955   -1.86257212758641   -1.29833625032814
C         1.76741503032849   -3.26231079176919   -1.41903455709790
C         1.84098497252740   -4.06076507737951   -0.25933951553177
C         1.66644031716924   -3.50824873156793    0.97664124496399
C         1.43588382478853   -2.13286099190240    1.10426526721510
C         1.40720962459186   -1.31288090919848    0.00444226430745
C         1.13118498966756    0.16090045302076    0.18676679894354
C        -0.39129799585071    0.41036348900119    0.22810048675972
C        -0.91364585067569    1.10576333721190   -1.00400350307262
C        -0.65294292445980    2.44506605130501   -1.15910046713910
C        -1.16410807603645    3.16564764932187   -2.24562226652503
C        -1.94824408219029    2.53684181234519   -3.16948811068577
C        -2.21209011152618    1.15512151926677   -3.06870990892143
C        -1.66919323683208    0.40899655698129   -1.98565391964566
C        -1.90722076854152   -0.98292861843951   -1.95601311011493
C        -2.66478644491292   -1.59145496441549   -2.91705742193479
C        -3.23145883064690   -0.84584043392649   -3.96019845544248
C        -3.00280698157699    0.49793929532014   -4.03482033043147
N        -0.58921810713229    1.20859338089906    1.42681319705522
C        -1.78124836671582    1.48412107686697    2.00115983002379
C        -2.95596969408112    1.19394896444438    1.12661479089306
C        -3.63819222359152    2.14869304224833    0.43184190560961
Br       -3.28251168238664    3.98395747107424    0.40727414611046
S        -4.92585321361391    1.48966805344672   -0.51757364387014
C        -4.56103977049629   -0.08511938253282    0.06078334989666
C        -3.50775592320864   -0.09514173936155    0.91549877185247
O        -1.85941857837981    1.95120617505436    3.11872413208735
C         0.62297872100007    1.42015327455034    2.18542750054305
C         0.41213613332522    0.89198050316207    3.62121421802313
O         0.64992222227700    1.82337151387026    4.53124084361098
O         0.11124007984933   -0.24364733383145    3.86282485908526
N         1.61995282442714    0.67907079980423    1.45796106126728
C         2.92424160226527    0.53704946076053    1.79879188280237
C         3.27879712871277    1.11007970398300    3.13395946550925
C         3.51705582065440    2.42992112161896    3.37877820425775
Br        3.38399632503537    3.83458204412785    2.14306384738262
S         3.97516624208617    2.73594962803818    5.01862460536671
C         3.85366545639878    1.05913502749579    5.37323611854366
C         3.48927135368529    0.32211691293100    4.29395162926920
O         3.73157896971605   -0.02383004835510    1.09416898128732
H         2.07235357058846   -4.89929312683199   -2.77371417122264
H         1.87779982727631   -3.51807192536923   -4.80675395299192
H         1.45745539953276   -1.09516018741516   -4.60803568525010
H         1.25061985648348   -0.04362518928018   -2.43808227093592
H         2.02469622524719   -5.11977382146690   -0.36993528664551
H         1.70308235077344   -4.12108270486641    1.86483452801066
H         1.27946439815642   -1.71970003407563    2.09057834272357
H         1.60714445626377    0.73868351787918   -0.61348221948330
H        -0.90148145728283   -0.54748735677034    0.37051900450934
H        -0.06334449822935    2.96522226135336   -0.41791534952990
H        -0.95040396875618    4.21995009664225   -2.32613410394093
H        -2.37357867203377    3.08595815620072   -3.99637486683877
H        -1.46973321024843   -1.59294656792732   -1.18129630484609
H        -2.82689816551599   -2.65831881216044   -2.87683135896140
H        -3.83572904705116   -1.34280605708919   -4.70424192698396
H        -3.41791587853791    1.08336930660635   -4.84232961859704
H        -5.15347038447837   -0.91535087375113   -0.26682075714427
H        -3.13920515172506   -0.97944504300180    1.40318837990938
H         0.85064793423954    2.49759292136674    2.24734261914497
H         0.40689514892562    1.51562754634968    5.41932458789310
H         4.06773401454449    0.71569044197031    6.36553531781617
H         3.36412354054363   -0.74519314540553    4.30336858647319

          :  Hamiltonian                  GFN2-xTB          :
         :: total energy            -120.834810650090 Eh    ::
         :: gradient norm              0.000185178214 Eh/a0 ::
         :: HOMO-LUMO gap              2.811337375021 eV    ::
         :: SCC energy              -122.552733309645 Eh    ::
         :: -> dispersion             -0.119982200072 Eh    ::
         :: repulsion energy           1.713263348470 Eh    ::

    * Orbital Energies and Occupations

         #    Occupation            Energy/Eh            Energy/eV
      -------------------------------------------------------------
         1        2.0000           -0.8547151             -23.2580
       ...           ...                  ...                  ...
        97        2.0000           -0.4269491             -11.6179
        98        2.0000           -0.4257148             -11.5843
        99        2.0000           -0.4243153             -11.5462
       100        2.0000           -0.4216576             -11.4739
       101        2.0000           -0.4182549             -11.3813
       102        2.0000           -0.4144465             -11.2777
       103        2.0000           -0.4142443             -11.2722
       104        2.0000           -0.4085447             -11.1171
       105        2.0000           -0.4073381             -11.0842
       106        2.0000           -0.4069234             -11.0729
       107        2.0000           -0.4056236             -11.0376
       108        2.0000           -0.3938108             -10.7161
       109        2.0000           -0.3837089             -10.4412 (HOMO)
       110                         -0.2803941              -7.6299 (LUMO)
       111                         -0.2790354              -7.5929
       112                         -0.2776314              -7.5547
       113                         -0.2674939              -7.2789
       114                         -0.2629221              -7.1545
       115                         -0.2523633              -6.8672
       116                         -0.2494287              -6.7873
       117                         -0.2458789              -6.6907
       118                         -0.2350414              -6.3958
       119                         -0.2294750              -6.2443
       120                         -0.2253210              -6.1313
       ...                                ...                  ...
       218                          0.6876934              18.7131
      -------------------------------------------------------------
                  HL-Gap            0.1033147 Eh            2.8113 eV

     #   Z          covCN         q      C6AA      Î±(0)
     1   6 C        2.921    -0.033    28.830     8.805
     2   6 C        2.915    -0.029    28.716     8.787
     3   6 C        2.917    -0.028    28.695     8.784
     4   6 C        2.917    -0.034    28.847     8.807
     5   6 C        2.984     0.011    27.774     8.645
     6   6 C        2.988     0.016    27.635     8.623
     7   6 C        2.920    -0.035    28.866     8.811
     8   6 C        2.914    -0.028    28.692     8.784
     9   6 C        2.921    -0.031    28.765     8.795
    10   6 C        2.969     0.003    27.966     8.674
    11   6 C        3.822     0.051    19.713     6.318
    12   6 C        3.817     0.041    19.867     6.344
    13   6 C        2.968    -0.013    28.344     8.733
    14   6 C        2.923    -0.033    28.817     8.803
    15   6 C        2.914    -0.026    28.657     8.778
    16   6 C        2.920    -0.034    28.835     8.806
    17   6 C        2.988     0.015    27.669     8.629
    18   6 C        2.983     0.005    27.901     8.665
    19   6 C        2.917    -0.037    28.922     8.819
    20   6 C        2.917    -0.028    28.710     8.787
    21   6 C        2.915    -0.028    28.712     8.787
    22   6 C        2.921    -0.033    28.824     8.804
    23   7 N        2.769    -0.109    23.382     7.182
    24   6 C        2.765     0.282    22.218     7.719
    25   6 C        3.199    -0.033    28.262     8.664
    26   6 C        2.941     0.076    26.295     8.410
    27  35 Br       1.138    -0.109   188.046    22.110
    28  16 S        2.446     0.035   139.636    19.888
    29   6 C        2.938    -0.026    28.655     8.779
    30   6 C        3.118    -0.043    28.892     8.804
    31   8 O        0.859    -0.419    22.054     6.296
    32   6 C        3.756     0.098    19.010     6.217
    33   6 C        2.688     0.366    20.789     7.462
    34   8 O        1.660    -0.354    19.970     6.033
    35   8 O        0.856    -0.393    21.537     6.222
    36   7 N        2.763    -0.112    23.448     7.192
    37   6 C        2.760     0.281    22.248     7.724
    38   6 C        3.195    -0.041    28.466     8.698
    39   6 C        2.941     0.072    26.386     8.425
    40  35 Br       1.130    -0.122   188.415    22.132
    41  16 S        2.435     0.040   139.411    19.872
    42   6 C        2.938    -0.029    28.735     8.792
    43   6 C        3.116    -0.041    28.837     8.796
    44   8 O        0.859    -0.404    21.754     6.253
    45   1 H        0.926     0.036     2.503     2.474
    46   1 H        0.926     0.034     2.528     2.486
    47   1 H        0.926     0.032     2.553     2.499
    48   1 H        0.926     0.026     2.650     2.546
    49   1 H        0.926     0.037     2.485     2.465
    50   1 H        0.926     0.038     2.482     2.464
    51   1 H        0.926     0.042     2.427     2.436
    52   1 H        0.924     0.063     2.161     2.299
    53   1 H        0.924     0.054     2.273     2.357
    54   1 H        0.926     0.040     2.453     2.449
    55   1 H        0.926     0.048     2.341     2.393
    56   1 H        0.926     0.043     2.414     2.430
    57   1 H        0.926     0.025     2.655     2.548
    58   1 H        0.926     0.034     2.526     2.486
    59   1 H        0.926     0.037     2.488     2.467
    60   1 H        0.926     0.040     2.452     2.449
    61   1 H        0.926     0.063     2.166     2.301
    62   1 H        0.926     0.056     2.252     2.347
    63   1 H        0.923     0.074     2.046     2.237
    64   1 H        0.804     0.348     0.593     1.209
    65   1 H        0.926     0.062     2.170     2.304
    66   1 H        0.926     0.060     2.197     2.318

Wiberg/Mayer (AO) data.
largest (>0.10) Wiberg bond orders for each atom

     #   Z sym  total        # sym  WBO       # sym  WBO       # sym  WBO
 ---------------------------------------------------------------------------
     1   6 C    3.991 --     2 C    1.557     6 C    1.279    45 H    0.968
                             4 C    0.118
     2   6 C    3.992 --     1 C    1.557     3 C    1.322    46 H    0.971
     3   6 C    3.992 --     4 C    1.555     2 C    1.322    47 H    0.971
     4   6 C    3.992 --     3 C    1.555     5 C    1.283    48 H    0.962
                             1 C    0.118
     5   6 C    3.989 --     4 C    1.283    10 C    1.253     6 C    1.252
     6   6 C    3.990 --     7 C    1.280     1 C    1.279     5 C    1.252
     7   6 C    3.990 --     8 C    1.553     6 C    1.280    49 H    0.968
                            10 C    0.114
     8   6 C    3.992 --     7 C    1.553     9 C    1.326    50 H    0.970
     9   6 C    3.990 --    10 C    1.525     8 C    1.326    51 H    0.965
    10   6 C    3.983 --     9 C    1.525     5 C    1.253    11 C    0.987
                             7 C    0.114
    11   6 C    3.958 --    10 C    0.987    36 N    0.955    12 C    0.952
                            52 H    0.948
    12   6 C    3.959 --    13 C    0.988    23 N    0.956    11 C    0.952
                            53 H    0.946
    13   6 C    3.983 --    14 C    1.522    18 C    1.252    12 C    0.988
                            16 C    0.114
    14   6 C    3.990 --    13 C    1.522    15 C    1.326    54 H    0.967
    15   6 C    3.991 --    16 C    1.552    14 C    1.326    55 H    0.969
    16   6 C    3.990 --    15 C    1.552    17 C    1.280    56 H    0.967
                            13 C    0.114
    17   6 C    3.990 --    16 C    1.280    22 C    1.279    18 C    1.252
    18   6 C    3.988 --    19 C    1.283    17 C    1.252    13 C    1.252
    19   6 C    3.992 --    20 C    1.554    18 C    1.283    57 H    0.961
                            22 C    0.118
    20   6 C    3.991 --    19 C    1.554    21 C    1.322    58 H    0.971
    21   6 C    3.992 --    22 C    1.558    20 C    1.322    59 H    0.970
    22   6 C    3.991 --    21 C    1.558    17 C    1.279    60 H    0.968
                            19 C    0.118
    23   7 N    3.474 --    24 C    1.229    32 C    0.976    12 C    0.956
                            31 O    0.195
    24   6 C    3.950 --    31 O    1.677    23 N    1.229    25 C    0.953
    25   6 C    3.981 --    26 C    1.542    30 C    1.238    24 C    0.953
    26   6 C    3.910 --    25 C    1.542    28 S    1.170    27 Br   1.025
                            29 C    0.104
    27  35 Br   1.186 --    26 C    1.025
    28  16 S    2.647 --    29 C    1.195    26 C    1.170
    29   6 C    3.949 --    30 C    1.628    28 S    1.195    61 H    0.968
                            26 C    0.104
    30   6 C    3.985 --    29 C    1.628    25 C    1.238    62 H    0.961
    31   8 O    2.039 --    24 C    1.677    23 N    0.195
    32   6 C    3.963 --    36 N    0.988    23 N    0.976    63 H    0.940
                            33 C    0.907
    33   6 C    3.922 --    35 O    1.767    34 O    1.165    32 C    0.907
    34   8 O    2.228 --    33 C    1.165    64 H    0.853    35 O    0.180
    35   8 O    2.055 --    33 C    1.767    34 O    0.180
    36   7 N    3.472 --    37 C    1.214    32 C    0.988    11 C    0.955
                            44 O    0.198
    37   6 C    3.953 --    44 O    1.702    36 N    1.214    38 C    0.948
    38   6 C    3.980 --    39 C    1.543    43 C    1.238    37 C    0.948
    39   6 C    3.906 --    38 C    1.543    41 S    1.171    40 Br   1.018
                            42 C    0.105
    40  35 Br   1.176 --    39 C    1.018
    41  16 S    2.651 --    42 C    1.195    39 C    1.171
    42   6 C    3.948 --    43 C    1.630    41 S    1.195    65 H    0.968
                            39 C    0.105
    43   6 C    3.986 --    42 C    1.630    38 C    1.238    66 H    0.961
    44   8 O    2.043 --    37 C    1.702    36 N    0.198
    45   1 H    0.998 --     1 C    0.968
    46   1 H    0.998 --     2 C    0.971
    47   1 H    0.998 --     3 C    0.971
    48   1 H    0.999 --     4 C    0.962
    49   1 H    0.998 --     7 C    0.968
    50   1 H    0.998 --     8 C    0.970
    51   1 H    0.998 --     9 C    0.965
    52   1 H    0.995 --    11 C    0.948
    53   1 H    0.997 --    12 C    0.946
    54   1 H    0.998 --    14 C    0.967
    55   1 H    0.997 --    15 C    0.969
    56   1 H    0.997 --    16 C    0.967
    57   1 H    0.999 --    19 C    0.961
    58   1 H    0.998 --    20 C    0.971
    59   1 H    0.998 --    21 C    0.970
    60   1 H    0.998 --    22 C    0.968
    61   1 H    0.995 --    29 C    0.968
    62   1 H    0.997 --    30 C    0.961
    63   1 H    0.994 --    32 C    0.940
    64   1 H    0.878 --    34 O    0.853
    65   1 H    0.994 --    42 C    0.968
    66   1 H    0.996 --    43 C    0.961
 ---------------------------------------------------------------------------

molecular dipole:
                 x           y           z       tot (Debye)
 q only:       -0.907      -0.892      -0.859
   full:       -0.816      -1.899      -0.228       5.286

           -------------------------------------------------
          | TOTAL ENERGY             -120.834810650090 Eh   |
          | GRADIENT NORM               0.000185178214 Eh/Î± |
          | HOMO-LUMO GAP               2.811337375021 eV   |
           -------------------------------------------------

 * finished run on 2022/03/17 at 00:08:37.050
