   * xtb version 6.3.3 (4ae9cef) compiled by 'conda@95abc7406d43' on 2020-10-14
          program call               : xtb acid_354.xyz --opt --chrg 0 --uhf 0 --gfn 2
          number of atoms            :                    78
          number of electrons        :                   242
          charge                     :                     0
          spin                       :                   0.0

   ID    Z sym.   atoms
    1    6 C      1-22, 24-32, 35, 36, 40-48
    2    7 N      23, 39
    3    8 O      33, 34, 37, 38, 49, 50
    4    1 H      51-78

          :  Hamiltonian                  GFN2-xTB          :
 * total energy  :  -134.4845337 Eh     change       -0.5674366E-08 Eh
 * total energy  :  -134.5036999 Eh     change       -0.1916622E-01 Eh
 * total energy  :  -134.5101325 Eh     change       -0.6432614E-02 Eh
 * total energy  :  -134.5119427 Eh     change       -0.1810183E-02 Eh
 * total energy  :  -134.5129646 Eh     change       -0.1021878E-02 Eh
 * total energy  :  -134.5133931 Eh     change       -0.4284492E-03 Eh
 * total energy  :  -134.5137218 Eh     change       -0.3287331E-03 Eh
 * total energy  :  -134.5140151 Eh     change       -0.2932811E-03 Eh
 * total energy  :  -134.5142749 Eh     change       -0.2598167E-03 Eh
 * total energy  :  -134.5144944 Eh     change       -0.2194758E-03 Eh
 * total energy  :  -134.5300446 Eh     change       -0.2881860E-04 Eh
 * total energy  :  -134.5300865 Eh     change       -0.4187251E-04 Eh
 * total energy  :  -134.5300988 Eh     change       -0.1231535E-04 Eh
 * total energy  :  -134.5301166 Eh     change       -0.1776135E-04 Eh
 * total energy  :  -134.5301315 Eh     change       -0.1490308E-04 Eh
 * total energy  :  -134.5301435 Eh     change       -0.1197974E-04 Eh
 * total energy  :  -134.5301538 Eh     change       -0.1034347E-04 Eh
 * total energy  :  -134.5301613 Eh     change       -0.7448636E-05 Eh
 * total energy  :  -134.5301652 Eh     change       -0.3885765E-05 Eh
   *** GEOMETRY OPTIMIZATION CONVERGED AFTER 123 ITERATIONS ***

 final structure:
================
78
 xtb: 6.3.3 (4ae9cef)
C         0.09570332268509   -2.91309983044691    5.20838827340540
C        -0.68768469018288   -3.84941304112871    4.59649782976009
C        -0.85860779275229   -3.81062959909183    3.20590708965767
C        -0.26659050283824   -2.83142526630851    2.45697925801740
C         0.52784427815138   -1.83019240531170    3.05713261932537
C         0.72456225822765   -1.89278922763674    4.46440060401043
C         1.54997887150260   -0.94055571840149    5.09722658323876
C         2.16786065616611    0.03072172910743    4.36596137419282
C         1.95899446502765    0.11152655125936    2.98212606249359
C         1.14781078644371   -0.77800784463445    2.32710992107613
C         0.87962642009500   -0.63789271491232    0.84293230043600
C        -0.53833121247136   -0.05249665391312    0.57260838579736
C        -1.46836675271352   -1.00185488132628   -0.14622255205127
C        -2.55545934496668   -1.48291779999453    0.54339857626395
C        -3.50729413833245   -2.30799579745508   -0.06673795140526
C        -3.37606222582483   -2.63749428618948   -1.38446101597683
C        -2.26231371474844   -2.19404511371342   -2.12625192050164
C        -1.27109335488216   -1.38588871854591   -1.50165734034491
C        -0.14982536999111   -1.00499525324359   -2.27151756609067
C        -0.03385707367499   -1.37008251579022   -3.58394800184689
C        -1.02983350521523   -2.13638770691114   -4.20437252381521
C        -2.11592762913587   -2.54468661866508   -3.48467702439698
N        -0.27791247463489    1.16779852767203   -0.17819759499798
C        -1.10062331648598    1.82004256699363   -1.03936786669602
C        -2.52684533657221    1.43621316999211   -0.99181829863217
C        -3.37019568608301    1.19666280996557   -2.03289669748710
C        -4.62181800015568    0.84098008399621   -1.45267466257976
C        -5.86577710649574    0.45587804104840   -1.94906993539816
C        -6.86502244881212    0.17072523500482   -1.04581103366631
C        -6.65163125463758    0.26551599003250    0.33161385925372
C        -5.43074512659250    0.64786113186990    0.84904567819129
C        -4.42168948323949    0.92735104757032   -0.05940036140384
O        -3.14926049507385    1.29569113669347    0.21079109171509
O        -0.68055335275432    2.66707055264517   -1.80504720826257
C         1.11299663133548    1.52846737549032   -0.12673355112598
C         1.40443100717179    2.59680566828392    0.94872630569136
O         0.35074015442283    2.84616668271303    1.71549954246532
O         2.47016980458937    3.13162831565681    1.06941878198259
N         1.78071828417163    0.28786565240199    0.17358632421996
C         3.07827499262337   -0.05796850242112   -0.05165039326667
C         3.89078249926397    0.94587698359039   -0.79018456074646
C         3.72062763626342    1.49968289351227   -2.02346251077575
C         4.86987725491332    2.31156490690487   -2.25269965753422
C         5.65916447214753    2.16648848132810   -1.09320536049974
C         6.86991527080404    2.82531973654917   -0.93993860901387
C         7.27949790089868    3.63305425080192   -1.98069417527250
C         6.50990365445849    3.78437062404500   -3.13733458099515
C         5.30653237945325    3.13354031023689   -3.29044669429323
O         5.06130062716898    1.32690398772014   -0.22257358158879
O         3.51834555668250   -1.12788847755993    0.30741808126881
H         0.25261252136802   -2.94029586232372    6.27722865636428
H        -1.16679043774835   -4.62706375728870    5.17269764378750
H        -1.46081676680346   -4.56577031390788    2.72242449769719
H        -0.40714933514470   -2.83815565728723    1.38840932464093
H         1.69108302159160   -1.00339270480571    6.16651595737179
H         2.81898852835605    0.74953204484274    4.84028697900058
H         2.47264460007653    0.88803845251840    2.43694579811907
H         1.00784731825251   -1.61599693048071    0.36498585844021
H        -0.99715392183585    0.21479813364260    1.53438493525395
H        -2.69243107793451   -1.20584294604083    1.57872695563838
H        -4.35229264011275   -2.65419841379032    0.50845080747175
H        -4.11949519221765   -3.24524819620190   -1.87862299906798
H         0.64326674597876   -0.43036379386850   -1.82559876671518
H         0.83483870626780   -1.06963107817036   -4.15069840776283
H        -0.92547313553634   -2.40719376707366   -5.24436781142866
H        -2.88425793198957   -3.15062241839466   -3.94310791998402
H        -3.11917110883060    1.24587262510745   -3.07197309558910
H        -6.03206013811795    0.38494350675330   -3.01252054884280
H        -7.83767905849028   -0.13223738056118   -1.40323457356261
H        -7.46214394483108    0.03294121736072    1.00560335741698
H        -5.25948977513709    0.72288974302798    1.91062310726017
H         1.42681332351093    1.96070576281695   -1.08666574366664
H         0.55189977080002    3.53401926031141    2.37157634337320
H         2.90545876340569    1.34170985119913   -2.70149200083930
H         7.45753048770961    2.70312671063752   -0.04467460205338
H         8.21717402560476    4.16221385066566   -1.90209714895673
H         6.87217773525305    4.42852660722888   -3.92472857701218
H         4.71173212103913    3.25362998467921   -4.18279233833861

          :  Hamiltonian                  GFN2-xTB          :
         :: total energy            -134.530165152532 Eh    ::
         :: gradient norm              0.000497133266 Eh/a0 ::
         :: HOMO-LUMO gap              2.907464403890 eV    ::
         :: SCC energy              -136.644483965313 Eh    ::
         :: -> dispersion             -0.122642058290 Eh    ::
         :: repulsion energy           2.110738882108 Eh    ::

    * Orbital Energies and Occupations

         #    Occupation            Energy/Eh            Energy/eV
      -------------------------------------------------------------
         1        2.0000           -0.7738430             -21.0573
       ...           ...                  ...                  ...
       109        2.0000           -0.4240719             -11.5396
       110        2.0000           -0.4172115             -11.3529
       111        2.0000           -0.4150539             -11.2942
       112        2.0000           -0.4119446             -11.2096
       113        2.0000           -0.4103194             -11.1654
       114        2.0000           -0.4076706             -11.0933
       115        2.0000           -0.4062934             -11.0558
       116        2.0000           -0.4036991             -10.9852
       117        2.0000           -0.3976798             -10.8214
       118        2.0000           -0.3963167             -10.7843
       119        2.0000           -0.3916860             -10.6583
       120        2.0000           -0.3849027             -10.4737
       121        2.0000           -0.3835902             -10.4380 (HOMO)
       122                         -0.2767428              -7.5306 (LUMO)
       123                         -0.2726452              -7.4191
       124                         -0.2671298              -7.2690
       125                         -0.2643045              -7.1921
       126                         -0.2565814              -6.9819
       127                         -0.2419911              -6.5849
       128                         -0.2354913              -6.4080
       129                         -0.2304779              -6.2716
       130                         -0.2207519              -6.0070
       131                         -0.2194746              -5.9722
       132                         -0.2099074              -5.7119
       ...                                ...                  ...
       228                          0.7211591              19.6237
      -------------------------------------------------------------
                  HL-Gap            0.1068474 Eh            2.9075 eV

     #   Z          covCN         q      C6AA      Î±(0)
     1   6 C        2.921    -0.034    28.839     8.807
     2   6 C        2.915    -0.029    28.723     8.788
     3   6 C        2.917    -0.028    28.709     8.786
     4   6 C        2.917    -0.037    28.924     8.819
     5   6 C        2.985     0.008    27.834     8.654
     6   6 C        2.988     0.016    27.648     8.625
     7   6 C        2.920    -0.035    28.883     8.813
     8   6 C        2.914    -0.028    28.711     8.786
     9   6 C        2.921    -0.030    28.740     8.791
    10   6 C        2.965    -0.001    28.053     8.688
    11   6 C        3.823     0.045    19.802     6.332
    12   6 C        3.817     0.038    19.915     6.351
    13   6 C        2.965    -0.008    28.222     8.714
    14   6 C        2.924    -0.031    28.774     8.797
    15   6 C        2.913    -0.031    28.765     8.795
    16   6 C        2.921    -0.035    28.869     8.811
    17   6 C        2.988     0.014    27.690     8.632
    18   6 C        2.983     0.006    27.883     8.662
    19   6 C        2.917    -0.038    28.937     8.821
    20   6 C        2.917    -0.026    28.644     8.776
    21   6 C        2.915    -0.027    28.680     8.782
    22   6 C        2.921    -0.033    28.821     8.804
    23   7 N        2.764    -0.098    23.165     7.148
    24   6 C        2.762     0.267    22.497     7.767
    25   6 C        3.108     0.097    25.718     8.309
    26   6 C        2.985    -0.059    29.458     8.903
    27   6 C        3.090    -0.010    28.164     8.699
    28   6 C        2.912    -0.034    28.836     8.805
    29   6 C        2.921    -0.036    28.904     8.816
    30   6 C        2.927    -0.033    28.811     8.802
    31   6 C        2.907    -0.050    29.241     8.867
    32   6 C        3.120     0.127    25.051     8.197
    33   8 O        1.720    -0.208    17.450     5.640
    34   8 O        0.859    -0.427    22.224     6.321
    35   6 C        3.769     0.089    19.139     6.235
    36   6 C        2.687     0.356    20.956     7.492
    37   8 O        1.659    -0.351    19.931     6.027
    38   8 O        0.856    -0.386    21.399     6.202
    39   7 N        2.763    -0.117    23.553     7.208
    40   6 C        2.756     0.271    22.429     7.755
    41   6 C        3.109     0.093    25.804     8.322
    42   6 C        2.985    -0.072    29.793     8.954
    43   6 C        3.089    -0.009    28.131     8.694
    44   6 C        3.123     0.129    25.001     8.188
    45   6 C        2.907    -0.048    29.180     8.858
    46   6 C        2.927    -0.032    28.810     8.802
    47   6 C        2.921    -0.036    28.905     8.817
    48   6 C        2.911    -0.034    28.857     8.809
    49   8 O        1.721    -0.180    17.024     5.571
    50   8 O        0.859    -0.400    21.675     6.242
    51   1 H        0.926     0.036     2.504     2.474
    52   1 H        0.926     0.034     2.529     2.487
    53   1 H        0.926     0.032     2.553     2.499
    54   1 H        0.926     0.029     2.604     2.524
    55   1 H        0.926     0.038     2.479     2.462
    56   1 H        0.926     0.038     2.474     2.460
    57   1 H        0.926     0.031     2.574     2.509
    58   1 H        0.924     0.075     2.029     2.228
    59   1 H        0.923     0.061     2.185     2.311
    60   1 H        0.926     0.035     2.515     2.480
    61   1 H        0.926     0.037     2.495     2.470
    62   1 H        0.926     0.039     2.462     2.454
    63   1 H        0.926     0.032     2.556     2.500
    64   1 H        0.926     0.037     2.490     2.468
    65   1 H        0.926     0.037     2.483     2.464
    66   1 H        0.926     0.037     2.490     2.467
    67   1 H        0.927     0.055     2.254     2.348
    68   1 H        0.926     0.044     2.402     2.424
    69   1 H        0.926     0.042     2.425     2.435
    70   1 H        0.926     0.044     2.399     2.422
    71   1 H        0.926     0.048     2.345     2.395
    72   1 H        0.923     0.099     1.791     2.093
    73   1 H        0.804     0.344     0.603     1.220
    74   1 H        0.926     0.040     2.442     2.444
    75   1 H        0.926     0.051     2.308     2.376
    76   1 H        0.926     0.041     2.430     2.438
    77   1 H        0.926     0.039     2.468     2.457
    78   1 H        0.926     0.041     2.438     2.442

Wiberg/Mayer (AO) data.
largest (>0.10) Wiberg bond orders for each atom

     #   Z sym  total        # sym  WBO       # sym  WBO       # sym  WBO
 ---------------------------------------------------------------------------
     1   6 C    3.991 --     2 C    1.555     6 C    1.281    51 H    0.968
                             4 C    0.118
     2   6 C    3.992 --     1 C    1.555     3 C    1.325    52 H    0.971
     3   6 C    3.992 --     4 C    1.552     2 C    1.325    53 H    0.971
     4   6 C    3.992 --     3 C    1.552     5 C    1.286    54 H    0.962
                             1 C    0.118
     5   6 C    3.989 --     4 C    1.286     6 C    1.255    10 C    1.247
     6   6 C    3.990 --     1 C    1.281     7 C    1.276     5 C    1.255
     7   6 C    3.990 --     8 C    1.559     6 C    1.276    55 H    0.968
                            10 C    0.114
     8   6 C    3.992 --     7 C    1.559     9 C    1.319    56 H    0.970
     9   6 C    3.990 --    10 C    1.533     8 C    1.319    57 H    0.963
    10   6 C    3.984 --     9 C    1.533     5 C    1.247    11 C    0.985
                             7 C    0.114
    11   6 C    3.959 --    10 C    0.985    39 N    0.964    58 H    0.946
                            12 C    0.946
    12   6 C    3.961 --    13 C    0.992    23 N    0.960    59 H    0.953
                            11 C    0.946
    13   6 C    3.983 --    14 C    1.517    18 C    1.252    12 C    0.992
                            16 C    0.114
    14   6 C    3.989 --    13 C    1.517    15 C    1.327    60 H    0.967
    15   6 C    3.991 --    16 C    1.551    14 C    1.327    61 H    0.970
    16   6 C    3.989 --    15 C    1.551    17 C    1.279    62 H    0.968
                            13 C    0.114
    17   6 C    3.990 --    22 C    1.280    16 C    1.279    18 C    1.251
    18   6 C    3.989 --    19 C    1.285    13 C    1.252    17 C    1.251
    19   6 C    3.992 --    20 C    1.553    18 C    1.285    63 H    0.964
                            22 C    0.118
    20   6 C    3.991 --    19 C    1.553    21 C    1.323    64 H    0.971
    21   6 C    3.992 --    22 C    1.556    20 C    1.323    65 H    0.970
    22   6 C    3.991 --    21 C    1.556    17 C    1.280    66 H    0.968
                            19 C    0.118
    23   7 N    3.478 --    24 C    1.211    35 C    0.992    12 C    0.960
                            34 O    0.192
    24   6 C    3.955 --    34 O    1.663    23 N    1.211    25 C    0.991
    25   6 C    3.918 --    26 C    1.601    33 O    1.081    24 C    0.991
    26   6 C    3.982 --    25 C    1.601    27 C    1.213    67 H    0.972
    27   6 C    3.986 --    28 C    1.328    32 C    1.270    26 C    1.213
    28   6 C    3.986 --    29 C    1.504    27 C    1.328    68 H    0.969
                            31 C    0.115
    29   6 C    3.991 --    28 C    1.504    30 C    1.380    69 H    0.971
    30   6 C    3.984 --    31 C    1.483    29 C    1.380    70 H    0.971
    31   6 C    3.987 --    30 C    1.483    32 C    1.353    71 H    0.967
                            28 C    0.115
    32   6 C    3.919 --    31 C    1.353    27 C    1.270    33 O    1.084
    33   8 O    2.395 --    32 C    1.084    25 C    1.081
    34   8 O    2.000 --    24 C    1.663    23 N    0.192
    35   6 C    3.964 --    23 N    0.992    39 N    0.981    72 H    0.927
                            36 C    0.907
    36   6 C    3.919 --    38 O    1.777    37 O    1.165    35 C    0.907
    37   8 O    2.232 --    36 C    1.165    73 H    0.855    38 O    0.185
    38   8 O    2.063 --    36 C    1.777    37 O    0.185
    39   7 N    3.465 --    40 C    1.195    35 C    0.981    11 C    0.964
                            50 O    0.194
    40   6 C    3.952 --    50 O    1.699    39 N    1.195    41 C    0.970
    41   6 C    3.918 --    42 C    1.599    49 O    1.101    40 C    0.970
    42   6 C    3.980 --    41 C    1.599    43 C    1.211    74 H    0.970
    43   6 C    3.986 --    48 C    1.326    44 C    1.271    42 C    1.211
    44   6 C    3.919 --    45 C    1.349    43 C    1.271    49 O    1.091
    45   6 C    3.987 --    46 C    1.487    44 C    1.349    75 H    0.967
                            48 C    0.116
    46   6 C    3.986 --    45 C    1.487    47 C    1.378    76 H    0.971
    47   6 C    3.991 --    48 C    1.505    46 C    1.378    77 H    0.971
    48   6 C    3.987 --    47 C    1.505    43 C    1.326    78 H    0.969
                            45 C    0.116
    49   8 O    2.425 --    41 C    1.101    44 C    1.091
    50   8 O    2.032 --    40 C    1.699    39 N    0.194
    51   1 H    0.998 --     1 C    0.968
    52   1 H    0.998 --     2 C    0.971
    53   1 H    0.998 --     3 C    0.971
    54   1 H    0.999 --     4 C    0.962
    55   1 H    0.997 --     7 C    0.968
    56   1 H    0.998 --     8 C    0.970
    57   1 H    0.999 --     9 C    0.963
    58   1 H    0.994 --    11 C    0.946
    59   1 H    0.996 --    12 C    0.953
    60   1 H    0.998 --    14 C    0.967
    61   1 H    0.998 --    15 C    0.970
    62   1 H    0.997 --    16 C    0.968
    63   1 H    0.998 --    19 C    0.964
    64   1 H    0.998 --    20 C    0.971
    65   1 H    0.998 --    21 C    0.970
    66   1 H    0.998 --    22 C    0.968
    67   1 H    0.997 --    26 C    0.972
    68   1 H    0.998 --    28 C    0.969
    69   1 H    0.998 --    29 C    0.971
    70   1 H    0.998 --    30 C    0.971
    71   1 H    0.997 --    31 C    0.967
    72   1 H    0.989 --    35 C    0.927
    73   1 H    0.881 --    37 O    0.855
    74   1 H    0.998 --    42 C    0.970
    75   1 H    0.997 --    45 C    0.967
    76   1 H    0.998 --    46 C    0.971
    77   1 H    0.998 --    47 C    0.971
    78   1 H    0.998 --    48 C    0.969
 ---------------------------------------------------------------------------

molecular dipole:
                 x           y           z       tot (Debye)
 q only:       -2.039      -0.585       0.495
   full:       -2.098      -0.398       0.577       5.624

           -------------------------------------------------
          | TOTAL ENERGY             -134.530165152532 Eh   |
          | GRADIENT NORM               0.000497133266 Eh/Î± |
          | HOMO-LUMO GAP               2.907464403890 eV   |
           -------------------------------------------------

 * finished run on 2022/03/17 at 00:13:11.634
