   * xtb version 6.3.3 (4ae9cef) compiled by 'conda@95abc7406d43' on 2020-10-14
          program call               : xtb acid_311.xyz --opt --chrg 0 --uhf 0 --gfn 2
          number of atoms            :                    66
          number of electrons        :                   190
          charge                     :                     0
          spin                       :                   0.0

   ID    Z sym.   atoms
    1    6 C      1-14, 16-23, 25, 26, 30-37
    2    7 N      15, 29
    3    8 O      24, 27, 28, 38
    4    1 H      39-66

          :  Hamiltonian                  GFN2-xTB          :
 * total energy  :  -104.9210330 Eh     change       -0.3440618E-08 Eh
 * total energy  :  -104.9319201 Eh     change       -0.1088712E-01 Eh
 * total energy  :  -104.9351645 Eh     change       -0.3244431E-02 Eh
 * total energy  :  -104.9365583 Eh     change       -0.1393750E-02 Eh
 * total energy  :  -104.9371032 Eh     change       -0.5448863E-03 Eh
 * total energy  :  -104.9370327 Eh     change        0.7044527E-04 Eh
 * total energy  :  -104.9373218 Eh     change       -0.2891215E-03 Eh
 * total energy  :  -104.9374687 Eh     change       -0.1468901E-03 Eh
 * total energy  :  -104.9376113 Eh     change       -0.1426086E-03 Eh
 * total energy  :  -104.9376949 Eh     change       -0.8352742E-04 Eh
 * total energy  :  -104.9446080 Eh     change       -0.5867180E-05 Eh
 * total energy  :  -104.9446138 Eh     change       -0.5726625E-05 Eh
 * total energy  :  -104.9446198 Eh     change       -0.5994190E-05 Eh
 * total energy  :  -104.9446258 Eh     change       -0.6063719E-05 Eh
 * total energy  :  -104.9446318 Eh     change       -0.5982030E-05 Eh
 * total energy  :  -104.9446377 Eh     change       -0.5914882E-05 Eh
 * total energy  :  -104.9446435 Eh     change       -0.5748821E-05 Eh
 * total energy  :  -104.9446490 Eh     change       -0.5560695E-05 Eh
 * total energy  :  -104.9446524 Eh     change       -0.3378506E-05 Eh
   *** GEOMETRY OPTIMIZATION CONVERGED AFTER 116 ITERATIONS ***

 final structure:
================
66
 xtb: 6.3.3 (4ae9cef)
C        -2.99439925694705    1.68028244887414   -0.10389614218626
C        -4.15325566840735    2.38265121630018    0.16797537307359
C        -4.36730637105502    3.62099590397011   -0.41407911682164
C        -3.41770832417468    4.15207279860471   -1.26932982854283
C        -2.26147486135440    3.44545760722878   -1.55024333571399
C        -2.04596752423997    2.20249674591573   -0.97528753315187
C        -0.77597928472297    1.44356479649245   -1.24573910855366
C         0.11394081833130    1.37502062056155    0.01036848823226
C         1.16972359552329    2.44774248329052    0.02568361470253
C         1.00886264181960    3.55769812238289    0.84258934958284
C         1.95895816150014    4.56298201536087    0.84924471191567
C         3.07935730678565    4.46507615522924    0.04244377928087
C         3.24062169925678    3.36216089540810   -0.77839373691975
C         2.28783047225864    2.35960247704667   -0.79275352374835
N         0.66186659751999    0.02326767896570   -0.02966172979988
C         1.53243013087122   -0.39506213651894    0.92934451252614
C         2.00805119180615   -1.83575662101664    0.76760948388862
C         3.12565237240305   -2.13695098947643    1.72548403864988
C         4.35292035955993   -1.50570858812191    1.56834735491693
C         5.38649809924544   -1.75482264198565    2.45191496099345
C         5.20531703629986   -2.64039223233513    3.50104478020106
C         3.98471868395501   -3.27107740917261    3.66452138473366
C         2.94876587172034   -3.01732574285382    2.78226961292370
O         1.88513370898181    0.33793670125041    1.82279511971433
C         0.04241762406643   -0.78696358024807   -1.04482494317767
C         1.02688129352339   -1.08690778797940   -2.19777246588938
O         0.95733618112791   -2.36402980710255   -2.58492322387836
O         1.74650576060840   -0.28165307441009   -2.71414894220227
N        -1.02850294477049    0.03750701841449   -1.55035007164095
C        -2.01204273300785   -0.33552867987490   -2.41643631177494
C        -2.26843228882870   -1.83361422346400   -2.51980224725870
C        -2.76049665977976   -2.34892759402194   -1.19331068396557
C        -2.13380619509751   -3.41029284106374   -0.55130919626086
C        -2.58474419953179   -3.84929152163302    0.68254646385000
C        -3.66415752603143   -3.22988646298166    1.28834972429401
C        -4.29953931390480   -2.17719459807873    0.64995026024642
C        -3.85235831116142   -1.74041816703754   -0.58381956867351
O        -2.68576481359208    0.48192781819979   -3.00137675547666
H        -2.83092186662981    0.71277783257298    0.35091033199901
H        -4.89126190400622    1.96252401604068    0.83565243122018
H        -5.27356499243500    4.16887175477605   -0.20223023226473
H        -3.57890927673913    5.11838864098570   -1.72328134601105
H        -1.52407427108734    3.85766618613307   -2.22280550994955
H        -0.22538710282055    1.91044746663203   -2.07343277325034
H        -0.50235196920290    1.47298179926902    0.91468421583155
H         0.13806593222498    3.63195890084185    1.47769310284635
H         1.82691800615660    5.42184045294803    1.49059787863024
H         3.82552230959082    5.24591858349837    0.05392503718198
H         4.11206087871967    3.28111171455895   -1.41149265591057
H         2.41535724431255    1.50520362529432   -1.43975257450872
H         2.35026585491187   -1.97687714299561   -0.26064783085476
H         1.16155739427993   -2.50468939549133    0.94520670276044
H         4.49159026592204   -0.80868582395746    0.75463560948370
H         6.33558557172796   -1.25546940420963    2.32339197749042
H         6.01269546915915   -2.83530460188795    4.19143679847578
H         3.83603149735985   -3.95955661323520    4.48361703033324
H         1.99467519149788   -3.50739451803428    2.91887981481201
H        -0.33674530091381   -1.73660340026648   -0.64234435901874
H         1.55590428290162   -2.53728634406221   -3.33153169309678
H        -1.37459794969022   -2.37077557912195   -2.83510482503369
H        -3.04143768680613   -1.96423205619797   -3.28052690612190
H        -1.29687301695508   -3.90619307032744   -1.02553991402599
H        -2.09121971148179   -4.67712305565601    1.17066910502112
H        -4.01283989233289   -3.56998027526315    2.25201883857584
H        -5.14681209791721   -1.69528226265331    1.11510903385661
H        -4.34708419035780   -0.92087923432857   -1.08475983655830

          :  Hamiltonian                  GFN2-xTB          :
         :: total energy            -104.944652410361 Eh    ::
         :: gradient norm              0.000608563148 Eh/a0 ::
         :: HOMO-LUMO gap              3.001891492041 eV    ::
         :: SCC energy              -106.599028483918 Eh    ::
         :: -> dispersion             -0.088195029170 Eh    ::
         :: repulsion energy           1.651667612465 Eh    ::

    * Orbital Energies and Occupations

         #    Occupation            Energy/Eh            Energy/eV
      -------------------------------------------------------------
         1        2.0000           -0.7863049             -21.3964
       ...           ...                  ...                  ...
        83        2.0000           -0.4191659             -11.4061
        84        2.0000           -0.4183484             -11.3838
        85        2.0000           -0.4171502             -11.3512
        86        2.0000           -0.4114977             -11.1974
        87        2.0000           -0.4097970             -11.1511
        88        2.0000           -0.4078159             -11.0972
        89        2.0000           -0.4059715             -11.0470
        90        2.0000           -0.4014202             -10.9232
        91        2.0000           -0.4008117             -10.9066
        92        2.0000           -0.4002564             -10.8915
        93        2.0000           -0.3970248             -10.8036
        94        2.0000           -0.3933369             -10.7032
        95        2.0000           -0.3890934             -10.5878 (HOMO)
        96                         -0.2787759              -7.5859 (LUMO)
        97                         -0.2387315              -6.4962
        98                         -0.2360189              -6.4224
        99                         -0.2299571              -6.2575
       100                         -0.2244101              -6.1065
       101                         -0.2229410              -6.0665
       102                         -0.2216776              -6.0322
       103                         -0.2199967              -5.9864
       104                         -0.2188569              -5.9554
       105                         -0.2185278              -5.9464
       106                         -0.2140546              -5.8247
       ...                                ...                  ...
       180                          0.6709946              18.2587
      -------------------------------------------------------------
                  HL-Gap            0.1103175 Eh            3.0019 eV

     #   Z          covCN         q      C6AA      Î±(0)
     1   6 C        2.924    -0.030    28.744     8.792
     2   6 C        2.920    -0.026    28.662     8.779
     3   6 C        2.920    -0.028    28.705     8.786
     4   6 C        2.920    -0.025    28.616     8.772
     5   6 C        2.924    -0.027    28.673     8.781
     6   6 C        2.975     0.015    27.665     8.628
     7   6 C        3.828     0.045    19.793     6.330
     8   6 C        3.827     0.045    19.793     6.331
     9   6 C        2.973     0.012    27.747     8.640
    10   6 C        2.924    -0.029    28.732     8.790
    11   6 C        2.920    -0.026    28.653     8.778
    12   6 C        2.920    -0.029    28.722     8.789
    13   6 C        2.920    -0.026    28.662     8.779
    14   6 C        2.923    -0.034    28.838     8.806
    15   7 N        2.763    -0.120    23.602     7.215
    16   6 C        2.757     0.274    22.366     7.744
    17   6 C        3.811    -0.085    22.119     6.694
    18   6 C        2.973     0.024    27.473     8.598
    19   6 C        2.925    -0.028    28.695     8.785
    20   6 C        2.920    -0.027    28.669     8.780
    21   6 C        2.920    -0.030    28.761     8.795
    22   6 C        2.920    -0.029    28.719     8.788
    23   6 C        2.924    -0.035    28.860     8.810
    24   8 O        0.859    -0.410    21.883     6.272
    25   6 C        3.756     0.086    19.208     6.249
    26   6 C        2.689     0.349    21.077     7.513
    27   8 O        1.659    -0.373    20.329     6.087
    28   8 O        0.856    -0.375    21.179     6.170
    29   7 N        2.765    -0.117    23.551     7.208
    30   6 C        2.757     0.275    22.354     7.742
    31   6 C        3.810    -0.098    22.355     6.730
    32   6 C        2.973     0.013    27.729     8.638
    33   6 C        2.923    -0.044    29.081     8.844
    34   6 C        2.919    -0.031    28.767     8.795
    35   6 C        2.920    -0.031    28.780     8.797
    36   6 C        2.919    -0.027    28.680     8.782
    37   6 C        2.924    -0.036    28.894     8.815
    38   8 O        0.859    -0.413    21.947     6.281
    39   1 H        0.925     0.028     2.615     2.529
    40   1 H        0.926     0.035     2.521     2.483
    41   1 H        0.926     0.037     2.495     2.470
    42   1 H        0.926     0.039     2.463     2.454
    43   1 H        0.926     0.037     2.487     2.466
    44   1 H        0.923     0.057     2.233     2.337
    45   1 H        0.923     0.055     2.255     2.348
    46   1 H        0.926     0.032     2.558     2.501
    47   1 H        0.926     0.036     2.504     2.474
    48   1 H        0.926     0.035     2.522     2.484
    49   1 H        0.926     0.036     2.504     2.475
    50   1 H        0.926     0.050     2.314     2.379
    51   1 H        0.924     0.043     2.408     2.427
    52   1 H        0.924     0.051     2.308     2.376
    53   1 H        0.926     0.034     2.536     2.490
    54   1 H        0.926     0.034     2.530     2.487
    55   1 H        0.926     0.032     2.555     2.499
    56   1 H        0.926     0.032     2.556     2.500
    57   1 H        0.925     0.028     2.617     2.530
    58   1 H        0.923     0.072     2.065     2.247
    59   1 H        0.804     0.342     0.607     1.223
    60   1 H        0.925     0.054     2.267     2.355
    61   1 H        0.924     0.075     2.031     2.229
    62   1 H        0.925     0.029     2.602     2.522
    63   1 H        0.926     0.032     2.551     2.498
    64   1 H        0.926     0.035     2.519     2.482
    65   1 H        0.926     0.036     2.502     2.474
    66   1 H        0.926     0.044     2.396     2.421

Wiberg/Mayer (AO) data.
largest (>0.10) Wiberg bond orders for each atom

     #   Z sym  total        # sym  WBO       # sym  WBO       # sym  WBO
 ---------------------------------------------------------------------------
     1   6 C    3.992 --     2 C    1.450     6 C    1.406    39 H    0.967
                             4 C    0.112
     2   6 C    3.992 --     1 C    1.450     3 C    1.434    40 H    0.971
                             5 C    0.110
     3   6 C    3.991 --     4 C    1.442     2 C    1.434    41 H    0.971
                             6 C    0.109
     4   6 C    3.992 --     3 C    1.442     5 C    1.441    42 H    0.971
                             1 C    0.112
     5   6 C    3.990 --     4 C    1.441     6 C    1.417    43 H    0.968
                             2 C    0.110
     6   6 C    3.985 --     5 C    1.417     1 C    1.406     7 C    0.992
                             3 C    0.109
     7   6 C    3.961 --     6 C    0.992     8 C    0.954    44 H    0.954
                            29 N    0.952
     8   6 C    3.960 --     9 C    0.990     7 C    0.954    45 H    0.953
                            15 N    0.951
     9   6 C    3.985 --    10 C    1.413    14 C    1.412     8 C    0.990
                            12 C    0.109
    10   6 C    3.990 --    11 C    1.444     9 C    1.413    46 H    0.969
                            13 C    0.111
    11   6 C    3.992 --    10 C    1.444    12 C    1.439    47 H    0.971
                            14 C    0.112
    12   6 C    3.991 --    11 C    1.439    13 C    1.438    48 H    0.971
                             9 C    0.109
    13   6 C    3.992 --    14 C    1.445    12 C    1.438    49 H    0.971
                            10 C    0.111
    14   6 C    3.990 --    13 C    1.445     9 C    1.412    50 H    0.963
                            11 C    0.112
    15   7 N    3.452 --    16 C    1.200    25 C    0.992     8 C    0.951
                            24 O    0.186
    16   6 C    3.947 --    24 O    1.716    15 N    1.200    17 C    0.950
    17   6 C    3.995 --    18 C    1.008    52 H    0.954    51 H    0.952
                            16 C    0.950
    18   6 C    3.987 --    23 C    1.420    19 C    1.409    17 C    1.008
                            21 C    0.110
    19   6 C    3.992 --    20 C    1.450    18 C    1.409    53 H    0.970
                            22 C    0.113
    20   6 C    3.992 --    19 C    1.450    21 C    1.435    54 H    0.971
                            23 C    0.110
    21   6 C    3.992 --    22 C    1.443    20 C    1.435    55 H    0.971
                            18 C    0.110
    22   6 C    3.992 --    21 C    1.443    23 C    1.440    56 H    0.971
                            19 C    0.113
    23   6 C    3.991 --    22 C    1.440    18 C    1.420    57 H    0.969
                            20 C    0.110
    24   8 O    2.036 --    16 C    1.716    15 N    0.186
    25   6 C    3.971 --    15 N    0.992    29 N    0.982    58 H    0.937
                            26 C    0.905
    26   6 C    3.915 --    28 O    1.790    27 O    1.138    25 C    0.905
    27   8 O    2.209 --    26 C    1.138    59 H    0.856    28 O    0.180
    28   8 O    2.079 --    26 C    1.790    27 O    0.180
    29   7 N    3.454 --    30 C    1.198    25 C    0.982     7 C    0.952
                            38 O    0.181
    30   6 C    3.944 --    38 O    1.711    29 N    1.198    31 C    0.952
    31   6 C    3.993 --    32 C    0.997    60 H    0.960    61 H    0.959
                            30 C    0.952
    32   6 C    3.987 --    33 C    1.410    37 C    1.405    31 C    0.997
                            35 C    0.108
    33   6 C    3.991 --    34 C    1.438    32 C    1.410    62 H    0.967
                            36 C    0.109
    34   6 C    3.991 --    35 C    1.442    33 C    1.438    63 H    0.971
                            37 C    0.112
    35   6 C    3.991 --    34 C    1.442    36 C    1.434    64 H    0.971
                            32 C    0.108
    36   6 C    3.992 --    37 C    1.450    35 C    1.434    65 H    0.971
                            33 C    0.109
    37   6 C    3.991 --    36 C    1.450    32 C    1.405    66 H    0.968
                            34 C    0.112
    38   8 O    2.033 --    30 C    1.711    29 N    0.181
    39   1 H    0.999 --     1 C    0.967
    40   1 H    0.998 --     2 C    0.971
    41   1 H    0.998 --     3 C    0.971
    42   1 H    0.998 --     4 C    0.971
    43   1 H    0.999 --     5 C    0.968
    44   1 H    0.996 --     7 C    0.954
    45   1 H    0.996 --     8 C    0.953
    46   1 H    0.999 --    10 C    0.969
    47   1 H    0.998 --    11 C    0.971
    48   1 H    0.998 --    12 C    0.971
    49   1 H    0.998 --    13 C    0.971
    50   1 H    0.997 --    14 C    0.963
    51   1 H    0.998 --    17 C    0.952
    52   1 H    0.997 --    17 C    0.954
    53   1 H    0.999 --    19 C    0.970
    54   1 H    0.999 --    20 C    0.971
    55   1 H    0.998 --    21 C    0.971
    56   1 H    0.999 --    22 C    0.971
    57   1 H    0.999 --    23 C    0.969
    58   1 H    0.994 --    25 C    0.937
    59   1 H    0.882 --    27 O    0.856
    60   1 H    0.997 --    31 C    0.960
    61   1 H    0.994 --    31 C    0.959
    62   1 H    0.999 --    33 C    0.967
    63   1 H    0.998 --    34 C    0.971
    64   1 H    0.998 --    35 C    0.971
    65   1 H    0.998 --    36 C    0.971
    66   1 H    0.998 --    37 C    0.968
 ---------------------------------------------------------------------------

molecular dipole:
                 x           y           z       tot (Debye)
 q only:       -0.093      -1.004      -0.099
   full:       -0.049      -1.539      -0.362       4.021

           -------------------------------------------------
          | TOTAL ENERGY             -104.944652410361 Eh   |
          | GRADIENT NORM               0.000608563148 Eh/Î± |
          | HOMO-LUMO GAP               3.001891492041 eV   |
           -------------------------------------------------

 * finished run on 2022/03/16 at 23:41:21.436
