   * xtb version 6.3.3 (4ae9cef) compiled by 'conda@95abc7406d43' on 2020-10-14
          program call               : xtb acid_263.xyz --opt --chrg 0 --uhf 0 --gfn 2
          number of atoms            :                    96
          number of electrons        :                   262
          charge                     :                     0
          spin                       :                   0.0

   ID    Z sym.   atoms
    1    6 C      1-22, 24-34, 36, 37, 41-51
    2    7 N      23, 40
    3    8 O      35, 38, 39, 52
    4    1 H      53-96

          :  Hamiltonian                  GFN2-xTB          :
 * total energy  :  -143.0755792 Eh     change       -0.5846459E-08 Eh
 * total energy  :  -143.0984589 Eh     change       -0.2287965E-01 Eh
 * total energy  :  -143.1061357 Eh     change       -0.7676824E-02 Eh
 * total energy  :  -143.1084280 Eh     change       -0.2292331E-02 Eh
 * total energy  :  -143.1096190 Eh     change       -0.1190963E-02 Eh
 * total energy  :  -143.1101694 Eh     change       -0.5503949E-03 Eh
 * total energy  :  -143.1105345 Eh     change       -0.3651009E-03 Eh
 * total energy  :  -143.1108618 Eh     change       -0.3273452E-03 Eh
 * total energy  :  -143.1111977 Eh     change       -0.3358573E-03 Eh
 * total energy  :  -143.1115467 Eh     change       -0.3490156E-03 Eh
 * total energy  :  -143.1230894 Eh     change       -0.1841460E-04 Eh
 * total energy  :  -143.1231066 Eh     change       -0.1719609E-04 Eh
 * total energy  :  -143.1231242 Eh     change       -0.1761108E-04 Eh
 * total energy  :  -143.1231434 Eh     change       -0.1920678E-04 Eh
 * total energy  :  -143.1231649 Eh     change       -0.2145902E-04 Eh
 * total energy  :  -143.1231883 Eh     change       -0.2341759E-04 Eh
 * total energy  :  -143.1232122 Eh     change       -0.2387789E-04 Eh
 * total energy  :  -143.1232339 Eh     change       -0.2168725E-04 Eh
 * total energy  :  -143.1232387 Eh     change       -0.4895686E-05 Eh
   *** GEOMETRY OPTIMIZATION CONVERGED AFTER 94 ITERATIONS ***

 final structure:
================
96
 xtb: 6.3.3 (4ae9cef)
C         4.14950484326109    5.09331205811362    0.88603089664303
C         3.29849679474720    5.78844488111085    1.69583687262073
C         2.00181481779187    5.30462235765900    1.91774798462980
C         1.58698643681020    4.13203159529451    1.35086845442667
C         2.44548903169825    3.37223757769052    0.52560024339374
C         3.74846467883610    3.88676610868911    0.27449956264789
C         4.61994729689960    3.19724087700292   -0.59305989363586
C         4.21521512058997    2.05390762901539   -1.21842824187902
C         2.94008995110072    1.53361555859371   -0.96583205954257
C         2.07899530818299    2.14448926832159   -0.08835844821320
C         0.74132132325685    1.50402429135867    0.17902755790541
C        -0.19522419079961    1.60293878353085   -1.03767587864682
C        -1.07883918135307    2.82037425566496   -1.01202138474738
C        -0.88094302074047    3.76899260790580   -1.98400955392659
C        -1.62166101006513    4.95620238291767   -2.01363053133050
C        -2.56823088418730    5.19402381137440   -1.06012671943274
C        -2.80196561534286    4.25409882339337   -0.03620530736569
C        -2.04665712317988    3.04956365877900    0.00242372125275
C        -2.30270071404039    2.14671360778334    1.05638894256779
C        -3.24866718893867    2.40991950899388    2.00751065139228
C        -3.99617898230400    3.59425546714113    1.95987779036008
C        -3.77355166261247    4.49487168435972    0.95790917161033
N        -0.88395307426852    0.31316987250698   -1.05257032343358
C        -1.95176756678472    0.05887922479815   -1.86207922606366
C        -2.13725416579528   -1.39474159509610   -2.19796628347539
C        -2.95178575168507   -2.35350453976995   -1.59606464982788
C        -3.90505449743271   -2.11454837081819   -0.43290190826139
C        -3.75378022748787   -0.74405656045601    0.22277414669829
C        -3.67172584474952   -3.17548366348944    0.65580722763727
C        -5.33725436826895   -2.22277625228890   -0.97798076478143
C        -2.92992749069500   -3.63792850057212   -2.14445877753920
C        -2.16005786853075   -3.96856659173737   -3.24024628060047
C        -1.38664785930298   -2.99886685219882   -3.85342318808578
C        -1.38430779940986   -1.72352727866761   -3.32922035991037
O        -2.59301174992924    0.94386452579502   -2.38471467693928
C        -0.08756768995642   -0.69295722331815   -0.39550746410932
C         0.70219546070848   -1.59413629729206   -1.36359624071315
O         0.45716193334409   -2.87686070284970   -1.11806629342208
O         1.48023735133649   -1.20499879388141   -2.19035317998662
N         0.83040046956896    0.06354625685158    0.42739855827773
C         1.47231548956288   -0.39033379345622    1.54439937212328
C         1.31368311186956   -1.86465721375178    1.77830930826247
C         0.08637741336843   -2.17309277835365    2.37120269685262
C        -0.28520458235405   -3.47412310768121    2.63390303544896
C         0.57953575839656   -4.49442710273541    2.27943129913997
C         1.80687305794151   -4.19059391303961    1.72916119705668
C         2.22591254888317   -2.87968285925507    1.48560248888163
C         3.64770124749129   -2.69552786878077    0.96560849755927
C         4.60642618960038   -3.37237335181849    1.96083168197553
C         3.79269672870196   -3.35151091950705   -0.41726543959177
C         4.08468901565788   -1.23811145745412    0.83768785560049
O         2.01645575744566    0.37361590968999    2.31071177619610
H         5.14770305949058    5.46021315878783    0.69269090963268
H         3.61161821944538    6.71165568527802    2.16085917579704
H         1.32483478475608    5.86826657498809    2.54299300589939
H         0.57544321461349    3.80485543162404    1.53418114636656
H         5.60792129705760    3.60067654239414   -0.76329592033002
H         4.87057396835842    1.53616549570005   -1.90291839163013
H         2.63513009505668    0.63179384551710   -1.47681513814524
H         0.29489031501234    1.95970446135610    1.06613590224209
H         0.42243321319668    1.65636069044678   -1.94685409635054
H        -0.13975872643732    3.59925682429145   -2.75167012749342
H        -1.43720188745039    5.67426534880631   -2.79857570294332
H        -3.15186250896603    6.10323837561910   -1.07333835818297
H        -1.74626630318948    1.22621306508609    1.11415372049989
H        -3.42543235156884    1.70196890681588    2.80430989916480
H        -4.74237733743483    3.78613621003660    2.71682725149380
H        -4.34102607917753    5.41340461369174    0.90894343053763
H        -4.50713340888328   -0.62913576525226    1.00019397433363
H        -2.77884529687273   -0.65018359348765    0.69093880583384
H        -3.89266418157679    0.06369336760864   -0.48788461726418
H        -2.61496153020541   -3.23115259978509    0.91221242847287
H        -3.99783709024647   -4.16209876063856    0.34036860015074
H        -4.23241970753816   -2.91288085934701    1.55033755572074
H        -5.51028619740443   -1.44524926983383   -1.71860685158329
H        -6.05471746146770   -2.09687596635829   -0.17005501986449
H        -5.51283140208042   -3.18734595866904   -1.44711549770117
H        -3.54431747520419   -4.40834934275847   -1.70634038990747
H        -2.17766525390366   -4.97754030252707   -3.62526330905248
H        -0.79663936024535   -3.22905353744630   -4.72761796047921
H        -0.79635328144877   -0.95011631393812   -3.80343261899163
H        -0.72007689166123   -1.36663150691495    0.20256524022153
H         0.97766240331600   -3.45658455435224   -1.69907485725368
H        -0.57609986565239   -1.36103033529805    2.64173722846814
H        -1.23318211732293   -3.68942057032430    3.10322695299254
H         0.30505901965826   -5.52510248306171    2.44798551892083
H         2.46843809121805   -5.00821958633581    1.48749176289114
H         5.63604651449528   -3.16832712012575    1.67569994429492
H         4.44348775854389   -2.97759552184913    2.96104081014747
H         4.47288546172951   -4.44996800305947    1.99016421735584
H         3.27655244550490   -2.76217331678360   -1.17180001994501
H         4.84444290813596   -3.39248329557530   -0.69218257544939
H         3.39881337968668   -4.36488949351823   -0.42965342721933
H         3.45531574962548   -0.69342323230837    0.14115449763692
H         4.06114837313014   -0.73015571268221    1.79706558519585
H         5.10448841700372   -1.20021459194952    0.45842839986438

          :  Hamiltonian                  GFN2-xTB          :
         :: total energy            -143.123238747799 Eh    ::
         :: gradient norm              0.000293736433 Eh/a0 ::
         :: HOMO-LUMO gap              2.728210911629 eV    ::
         :: SCC energy              -145.441039015368 Eh    ::
         :: -> dispersion             -0.145177815604 Eh    ::
         :: repulsion energy           2.310143341963 Eh    ::

    * Orbital Energies and Occupations

         #    Occupation            Energy/Eh            Energy/eV
      -------------------------------------------------------------
         1        2.0000           -0.7757284             -21.1086
       ...           ...                  ...                  ...
       119        2.0000           -0.4141663             -11.2700
       120        2.0000           -0.4131260             -11.2417
       121        2.0000           -0.4121505             -11.2152
       122        2.0000           -0.4071292             -11.0785
       123        2.0000           -0.4061297             -11.0514
       124        2.0000           -0.3997263             -10.8771
       125        2.0000           -0.3989099             -10.8549
       126        2.0000           -0.3971218             -10.8062
       127        2.0000           -0.3961518             -10.7798
       128        2.0000           -0.3945082             -10.7351
       129        2.0000           -0.3904283             -10.6241
       130        2.0000           -0.3767765             -10.2526
       131        2.0000           -0.3713506             -10.1050 (HOMO)
       132                         -0.2710907              -7.3768 (LUMO)
       133                         -0.2608560              -7.0983
       134                         -0.2562404              -6.9727
       135                         -0.2380945              -6.4789
       136                         -0.2361415              -6.4257
       137                         -0.2347361              -6.3875
       138                         -0.2323793              -6.3234
       139                         -0.2270999              -6.1797
       140                         -0.2246193              -6.1122
       141                         -0.2195939              -5.9755
       142                         -0.2149735              -5.8497
       ...                                ...                  ...
       252                          0.6995480              19.0357
      -------------------------------------------------------------
                  HL-Gap            0.1002599 Eh            2.7282 eV

     #   Z          covCN         q      C6AA      Î±(0)
     1   6 C        2.921    -0.034    28.839     8.807
     2   6 C        2.915    -0.029    28.727     8.789
     3   6 C        2.917    -0.028    28.697     8.785
     4   6 C        2.917    -0.031    28.783     8.798
     5   6 C        2.983     0.014    27.695     8.633
     6   6 C        2.989     0.016    27.636     8.623
     7   6 C        2.921    -0.035    28.880     8.813
     8   6 C        2.914    -0.029    28.729     8.789
     9   6 C        2.923    -0.037    28.920     8.819
    10   6 C        2.967     0.001    27.993     8.679
    11   6 C        3.823     0.046    19.787     6.330
    12   6 C        3.828     0.050    19.723     6.319
    13   6 C        2.966     0.009    27.813     8.650
    14   6 C        2.925    -0.028    28.711     8.787
    15   6 C        2.914    -0.026    28.658     8.778
    16   6 C        2.921    -0.034    28.838     8.806
    17   6 C        2.989     0.017    27.622     8.621
    18   6 C        2.984     0.016    27.651     8.626
    19   6 C        2.918    -0.034    28.840     8.806
    20   6 C        2.917    -0.030    28.737     8.791
    21   6 C        2.915    -0.030    28.744     8.792
    22   6 C        2.921    -0.033    28.817     8.803
    23   7 N        2.760    -0.123    23.664     7.225
    24   6 C        2.775     0.280    22.257     7.727
    25   6 C        2.977    -0.028    28.694     8.787
    26   6 C        2.971     0.013    27.722     8.636
    27   6 C        3.903     0.026    20.075     6.369
    28   6 C        3.763    -0.106    22.572     6.772
    29   6 C        3.761    -0.107    22.590     6.775
    30   6 C        3.763    -0.107    22.585     6.774
    31   6 C        2.932    -0.034    28.845     8.808
    32   6 C        2.919    -0.032    28.800     8.800
    33   6 C        2.917    -0.033    28.834     8.806
    34   6 C        2.943    -0.029    28.734     8.792
    35   8 O        0.859    -0.417    22.025     6.292
    36   6 C        3.755     0.095    19.066     6.226
    37   6 C        2.688     0.352    21.027     7.504
    38   8 O        1.660    -0.369    20.249     6.075
    39   8 O        0.856    -0.388    21.437     6.208
    40   7 N        2.764    -0.128    23.777     7.242
    41   6 C        2.771     0.278    22.304     7.735
    42   6 C        2.978    -0.026    28.653     8.781
    43   6 C        2.937    -0.031    28.761     8.796
    44   6 C        2.917    -0.032    28.794     8.799
    45   6 C        2.919    -0.031    28.762     8.795
    46   6 C        2.932    -0.034    28.857     8.810
    47   6 C        2.969     0.013    27.724     8.637
    48   6 C        3.903     0.027    20.071     6.368
    49   6 C        3.764    -0.107    22.588     6.774
    50   6 C        3.761    -0.107    22.591     6.776
    51   6 C        3.763    -0.109    22.624     6.780
    52   8 O        0.859    -0.417    22.025     6.292
    53   1 H        0.926     0.034     2.536     2.490
    54   1 H        0.926     0.032     2.557     2.501
    55   1 H        0.926     0.032     2.560     2.502
    56   1 H        0.926     0.028     2.611     2.527
    57   1 H        0.926     0.035     2.520     2.482
    58   1 H        0.926     0.035     2.510     2.478
    59   1 H        0.926     0.049     2.337     2.391
    60   1 H        0.924     0.065     2.143     2.289
    61   1 H        0.923     0.051     2.311     2.377
    62   1 H        0.926     0.033     2.543     2.494
    63   1 H        0.926     0.037     2.489     2.467
    64   1 H        0.926     0.037     2.495     2.470
    65   1 H        0.926     0.027     2.631     2.536
    66   1 H        0.926     0.029     2.602     2.522
    67   1 H        0.926     0.031     2.570     2.507
    68   1 H        0.926     0.034     2.534     2.489
    69   1 H        0.925     0.040     2.453     2.449
    70   1 H        0.925     0.025     2.655     2.548
    71   1 H        0.925     0.050     2.323     2.384
    72   1 H        0.925     0.031     2.567     2.506
    73   1 H        0.925     0.038     2.470     2.458
    74   1 H        0.925     0.041     2.435     2.440
    75   1 H        0.925     0.043     2.408     2.427
    76   1 H        0.925     0.042     2.425     2.435
    77   1 H        0.925     0.038     2.482     2.464
    78   1 H        0.926     0.041     2.432     2.439
    79   1 H        0.926     0.035     2.520     2.482
    80   1 H        0.926     0.037     2.492     2.468
    81   1 H        0.926     0.036     2.497     2.471
    82   1 H        0.923     0.061     2.186     2.312
    83   1 H        0.804     0.345     0.600     1.216
    84   1 H        0.925     0.028     2.617     2.530
    85   1 H        0.926     0.038     2.482     2.463
    86   1 H        0.926     0.035     2.511     2.478
    87   1 H        0.926     0.039     2.467     2.456
    88   1 H        0.925     0.042     2.428     2.437
    89   1 H        0.925     0.040     2.449     2.447
    90   1 H        0.925     0.037     2.491     2.468
    91   1 H        0.925     0.034     2.531     2.488
    92   1 H        0.925     0.043     2.406     2.426
    93   1 H        0.925     0.030     2.587     2.515
    94   1 H        0.925     0.033     2.539     2.492
    95   1 H        0.925     0.053     2.280     2.361
    96   1 H        0.925     0.037     2.485     2.465

Wiberg/Mayer (AO) data.
largest (>0.10) Wiberg bond orders for each atom

     #   Z sym  total        # sym  WBO       # sym  WBO       # sym  WBO
 ---------------------------------------------------------------------------
     1   6 C    3.991 --     2 C    1.557     6 C    1.280    53 H    0.968
                             4 C    0.118
     2   6 C    3.992 --     1 C    1.557     3 C    1.322    54 H    0.971
     3   6 C    3.992 --     4 C    1.555     2 C    1.322    55 H    0.971
     4   6 C    3.992 --     3 C    1.555     5 C    1.284    56 H    0.960
                             1 C    0.118
     5   6 C    3.988 --     4 C    1.284    10 C    1.254     6 C    1.252
     6   6 C    3.990 --     7 C    1.280     1 C    1.280     5 C    1.252
     7   6 C    3.990 --     8 C    1.553     6 C    1.280    57 H    0.968
                            10 C    0.114
     8   6 C    3.992 --     7 C    1.553     9 C    1.326    58 H    0.970
     9   6 C    3.990 --    10 C    1.521     8 C    1.326    59 H    0.958
    10   6 C    3.984 --     9 C    1.521     5 C    1.254    11 C    0.990
                             7 C    0.114
    11   6 C    3.958 --    10 C    0.990    12 C    0.955    40 N    0.947
                            60 H    0.942
    12   6 C    3.960 --    13 C    0.995    11 C    0.955    61 H    0.951
                            23 N    0.945
    13   6 C    3.983 --    14 C    1.521    18 C    1.252    12 C    0.995
                            16 C    0.115
    14   6 C    3.989 --    13 C    1.521    15 C    1.327    62 H    0.967
    15   6 C    3.992 --    16 C    1.553    14 C    1.327    63 H    0.970
    16   6 C    3.990 --    15 C    1.553    17 C    1.278    64 H    0.968
                            13 C    0.115
    17   6 C    3.990 --    22 C    1.281    16 C    1.278    18 C    1.252
    18   6 C    3.989 --    19 C    1.285    17 C    1.252    13 C    1.252
    19   6 C    3.992 --    20 C    1.551    18 C    1.285    65 H    0.961
                            22 C    0.118
    20   6 C    3.992 --    19 C    1.551    21 C    1.324    66 H    0.971
    21   6 C    3.992 --    22 C    1.555    20 C    1.324    67 H    0.971
    22   6 C    3.991 --    21 C    1.555    17 C    1.281    68 H    0.968
                            19 C    0.118
    23   7 N    3.443 --    24 C    1.191    36 C    0.990    12 C    0.945
                            35 O    0.181
    24   6 C    3.940 --    35 O    1.700    23 N    1.191    25 C    0.950
    25   6 C    3.983 --    26 C    1.403    34 C    1.381    24 C    0.950
                            32 C    0.106
    26   6 C    3.984 --    25 C    1.403    31 C    1.395    27 C    0.984
                            33 C    0.108
    27   6 C    3.991 --    28 C    1.001    29 C    0.988    26 C    0.984
                            30 C    0.983
    28   6 C    3.995 --    27 C    1.001    69 H    0.982    71 H    0.978
                            70 H    0.977
    29   6 C    3.995 --    27 C    0.988    72 H    0.985    74 H    0.984
                            73 H    0.982
    30   6 C    3.994 --    75 H    0.986    77 H    0.984    76 H    0.984
                            27 C    0.983
    31   6 C    3.991 --    32 C    1.460    26 C    1.395    78 H    0.963
                            34 C    0.111
    32   6 C    3.991 --    31 C    1.460    33 C    1.421    79 H    0.971
                            25 C    0.106
    33   6 C    3.991 --    34 C    1.453    32 C    1.421    80 H    0.969
                            26 C    0.108
    34   6 C    3.990 --    33 C    1.453    25 C    1.381    81 H    0.968
                            31 C    0.111
    35   8 O    2.031 --    24 C    1.700    23 N    0.181
    36   6 C    3.973 --    23 N    0.990    40 N    0.982    82 H    0.938
                            37 C    0.908
    37   6 C    3.915 --    39 O    1.767    38 O    1.156    36 C    0.908
    38   8 O    2.219 --    37 C    1.156    83 H    0.851    39 O    0.181
    39   8 O    2.061 --    37 C    1.767    38 O    0.181
    40   7 N    3.445 --    41 C    1.191    36 C    0.982    11 C    0.947
                            52 O    0.185
    41   6 C    3.942 --    52 O    1.701    40 N    1.191    42 C    0.954
    42   6 C    3.985 --    47 C    1.403    43 C    1.384    41 C    0.954
                            45 C    0.107
    43   6 C    3.991 --    44 C    1.455    42 C    1.384    84 H    0.967
                            46 C    0.111
    44   6 C    3.991 --    43 C    1.455    45 C    1.418    85 H    0.969
                            47 C    0.108
    45   6 C    3.991 --    46 C    1.463    44 C    1.418    86 H    0.971
                            42 C    0.107
    46   6 C    3.991 --    45 C    1.463    47 C    1.394    87 H    0.963
                            43 C    0.111
    47   6 C    3.984 --    42 C    1.403    46 C    1.394    48 C    0.984
                            44 C    0.108
    48   6 C    3.991 --    51 C    1.002    50 C    0.986    47 C    0.984
                            49 C    0.984
    49   6 C    3.994 --    89 H    0.987    48 C    0.984    88 H    0.984
                            90 H    0.982
    50   6 C    3.996 --    48 C    0.986    92 H    0.984    93 H    0.984
                            91 H    0.983
    51   6 C    3.994 --    48 C    1.002    96 H    0.983    95 H    0.982
                            94 H    0.972
    52   8 O    2.028 --    41 C    1.701    40 N    0.185
    53   1 H    0.998 --     1 C    0.968
    54   1 H    0.998 --     2 C    0.971
    55   1 H    0.998 --     3 C    0.971
    56   1 H    0.999 --     4 C    0.960
    57   1 H    0.998 --     7 C    0.968
    58   1 H    0.998 --     8 C    0.970
    59   1 H    0.997 --     9 C    0.958
    60   1 H    0.995 --    11 C    0.942
    61   1 H    0.997 --    12 C    0.951
    62   1 H    0.998 --    14 C    0.967
    63   1 H    0.997 --    15 C    0.970
    64   1 H    0.998 --    16 C    0.968
    65   1 H    0.999 --    19 C    0.961
    66   1 H    0.999 --    20 C    0.971
    67   1 H    0.998 --    21 C    0.971
    68   1 H    0.998 --    22 C    0.968
    69   1 H    0.998 --    28 C    0.982
    70   1 H    0.999 --    28 C    0.977
    71   1 H    0.998 --    28 C    0.978
    72   1 H    0.999 --    29 C    0.985
    73   1 H    0.998 --    29 C    0.982
    74   1 H    0.998 --    29 C    0.984
    75   1 H    0.998 --    30 C    0.986
    76   1 H    0.997 --    30 C    0.984
    77   1 H    0.999 --    30 C    0.984
    78   1 H    0.998 --    31 C    0.963
    79   1 H    0.998 --    32 C    0.971
    80   1 H    0.998 --    33 C    0.969
    81   1 H    0.998 --    34 C    0.968
    82   1 H    0.996 --    36 C    0.938
    83   1 H    0.880 --    38 O    0.851
    84   1 H    0.999 --    43 C    0.967
    85   1 H    0.998 --    44 C    0.969
    86   1 H    0.998 --    45 C    0.971
    87   1 H    0.998 --    46 C    0.963
    88   1 H    0.997 --    49 C    0.984
    89   1 H    0.998 --    49 C    0.987
    90   1 H    0.999 --    49 C    0.982
    91   1 H    0.999 --    50 C    0.983
    92   1 H    0.997 --    50 C    0.984
    93   1 H    0.999 --    50 C    0.984
    94   1 H    0.999 --    51 C    0.972
    95   1 H    0.997 --    51 C    0.982
    96   1 H    0.998 --    51 C    0.983
 ---------------------------------------------------------------------------

molecular dipole:
                 x           y           z       tot (Debye)
 q only:       -0.044      -1.236       0.107
   full:       -0.082      -1.746      -0.012       4.442

           -------------------------------------------------
          | TOTAL ENERGY             -143.123238747799 Eh   |
          | GRADIENT NORM               0.000293736433 Eh/Î± |
          | HOMO-LUMO GAP               2.728210911629 eV   |
           -------------------------------------------------

 * finished run on 2022/03/16 at 23:08:33.747
