   * xtb version 6.3.3 (4ae9cef) compiled by 'conda@95abc7406d43' on 2020-10-14
          program call               : xtb acid_409.xyz --opt --chrg 0 --uhf 0 --gfn 2
          number of atoms            :                    60
          number of electrons        :                   190
          charge                     :                     0
          spin                       :                   0.0

   ID    Z sym.   atoms
    1    6 C      1-14, 16-21, 23, 25, 26, 30-33, 35-37
    2    7 N      15, 29
    3   53 I      22, 34
    4    8 O      24, 27, 28, 38
    5    1 H      39-60

          :  Hamiltonian                  GFN2-xTB          :
 * total energy  :  -105.2065235 Eh     change       -0.1490818E-08 Eh
 * total energy  :  -105.2194907 Eh     change       -0.1296723E-01 Eh
 * total energy  :  -105.2228793 Eh     change       -0.3388533E-02 Eh
 * total energy  :  -105.2236972 Eh     change       -0.8179226E-03 Eh
 * total energy  :  -105.2240834 Eh     change       -0.3861591E-03 Eh
 * total energy  :  -105.2242761 Eh     change       -0.1927274E-03 Eh
 * total energy  :  -105.2244496 Eh     change       -0.1734843E-03 Eh
 * total energy  :  -105.2246372 Eh     change       -0.1876165E-03 Eh
 * total energy  :  -105.2248457 Eh     change       -0.2084803E-03 Eh
 * total energy  :  -105.2250284 Eh     change       -0.1827466E-03 Eh
 * total energy  :  -105.2290867 Eh     change       -0.8547980E-05 Eh
 * total energy  :  -105.2290969 Eh     change       -0.1016378E-04 Eh
 * total energy  :  -105.2291096 Eh     change       -0.1271734E-04 Eh
 * total energy  :  -105.2291232 Eh     change       -0.1356007E-04 Eh
 * total energy  :  -105.2291345 Eh     change       -0.1137772E-04 Eh
 * total energy  :  -105.2291426 Eh     change       -0.8010164E-05 Eh
 * total energy  :  -105.2291481 Eh     change       -0.5588681E-05 Eh
 * total energy  :  -105.2291533 Eh     change       -0.5200554E-05 Eh
 * total energy  :  -105.2291578 Eh     change       -0.4457438E-05 Eh
   *** GEOMETRY OPTIMIZATION CONVERGED AFTER 56 ITERATIONS ***

 final structure:
================
60
 xtb: 6.3.3 (4ae9cef)
C         2.62015238932684   -3.16722787648268    0.30535520752569
C         3.54043175199835   -3.58942774076211    1.24852809773731
C         3.65009993652288   -2.92599975838612    2.45812822574905
C         2.83736140644031   -1.83646487160750    2.72238270696699
C         1.91706667090995   -1.41559723441517    1.78063612839656
C         1.80078117079549   -2.07915487821298    0.56521427952789
C         0.78428396986014   -1.62230039945828   -0.44969224198259
C        -0.67372547798339   -1.82656116890774    0.04096726445110
C        -1.57229263160854   -2.47207360094177   -0.98707591421828
C        -2.81489502049052   -1.93822402686522   -1.29941261247247
C        -3.62256039436561   -2.54851989866444   -2.24418286101877
C        -3.20246911465243   -3.70414450367790   -2.87822939298972
C        -1.97592165109662   -4.25757727131383   -2.55044170878901
C        -1.16758133639767   -3.64778772129236   -1.60876451132115
N        -1.10336230232084   -0.48252250493573    0.40243323413705
C        -1.56722906240511   -0.22824607956080    1.66665380762440
C        -1.68282594471300    1.20974444640005    2.04981416521556
C        -2.35100761267511    2.15249078875599    1.27433894012486
C        -2.43532381560908    3.46353020198356    1.71179582953962
C        -1.85600333492533    3.84799526113723    2.90912231442571
C        -1.20505199704066    2.89946480428330    3.67880751277324
I        -0.31847578469831    3.47062894262469    5.51102235953034
C        -1.12262254489155    1.58349796340801    3.26791811189160
O        -1.85727399833509   -1.12828651531968    2.42294667934542
C        -0.40584988702385    0.44890712470184   -0.44165861965481
C        -1.17327736451380    0.63880826360475   -1.77102171606728
O        -0.62484201119653   -0.03150032836390   -2.77317904476876
O        -2.14991949907062    1.32718387445072   -1.87481986763260
N         0.87521915458476   -0.17816369000580   -0.64731776156989
C         1.97529632085724    0.39718785634129   -1.19592335823233
C         1.88636935785884    1.89166496908047   -1.28753536680654
C         1.79137805786178    2.64707381348603   -0.12422199274922
C         1.69306740317414    4.02189857261858   -0.21686593902887
I         1.48648041130003    5.15688317307964    1.55490624652761
C         1.70417910376097    4.65892994189704   -1.44525411263626
C         1.82732189496148    3.90129862131681   -2.59740389163408
C         1.91822734409594    2.52168858947626   -2.52363328766688
O         2.94117366572718   -0.23835931408046   -1.55167737686690
H         2.54527347351575   -3.67867872034063   -0.64301421972673
H         4.17650408104279   -4.43563227569033    1.03562106425033
H         4.36989039969740   -3.25378666849383    3.19306201306712
H         2.92124322333918   -1.31347339014401    3.66345379761082
H         1.28430059409304   -0.56448301128296    1.99195339931882
H         0.95993006507345   -2.12550805385147   -1.40635351207956
H        -0.69574614794120   -2.43290775745236    0.95571056368410
H        -3.16268122062181   -1.04818515613598   -0.79660685579830
H        -4.58500855211768   -2.11890133887614   -2.47893881626810
H        -3.83270278994833   -4.17911198420706   -3.61487336601738
H        -1.64923405964486   -5.17006309274190   -3.02639987995016
H        -0.22128752893451   -4.09558251239253   -1.34356129267319
H        -2.80792798545440    1.86615392128117    0.33976394372677
H        -2.95435734386666    4.19542473754153    1.11226188087639
H        -1.91303241723913    4.87366142572641    3.23846054489676
H        -0.63146135514505    0.83755401410703    3.87468608163531
H        -0.33196504922367    1.43369860643202    0.03343081139893
H        -1.13654657698433    0.07505795143286   -3.59180707570246
H         1.80983895973869    2.16080834180419    0.84066104141603
H         1.62458466617498    5.73328501368415   -1.50491558139292
H         1.84929619849763    4.39431942182952   -3.55725515802125
H         2.01471114189586    1.92561570239652   -3.41799391762254

          :  Hamiltonian                  GFN2-xTB          :
         :: total energy            -105.229157807245 Eh    ::
         :: gradient norm              0.000644250844 Eh/a0 ::
         :: HOMO-LUMO gap              3.303599299915 eV    ::
         :: SCC energy              -106.772089897400 Eh    ::
         :: -> dispersion             -0.093813220883 Eh    ::
         :: repulsion energy           1.539521096730 Eh    ::

    * Orbital Energies and Occupations

         #    Occupation            Energy/Eh            Energy/eV
      -------------------------------------------------------------
         1        2.0000           -0.7908683             -21.5206
       ...           ...                  ...                  ...
        83        2.0000           -0.4328165             -11.7775
        84        2.0000           -0.4295830             -11.6895
        85        2.0000           -0.4228436             -11.5062
        86        2.0000           -0.4224186             -11.4946
        87        2.0000           -0.4209276             -11.4540
        88        2.0000           -0.4158046             -11.3146
        89        2.0000           -0.4147145             -11.2850
        90        2.0000           -0.4145576             -11.2807
        91        2.0000           -0.4140272             -11.2663
        92        2.0000           -0.4112588             -11.1909
        93        2.0000           -0.4105141             -11.1707
        94        2.0000           -0.4055949             -11.0368
        95        2.0000           -0.4048177             -11.0156 (HOMO)
        96                         -0.2834126              -7.7121 (LUMO)
        97                         -0.2742533              -7.4628
        98                         -0.2729200              -7.4265
        99                         -0.2653562              -7.2207
       100                         -0.2572101              -6.9990
       101                         -0.2433708              -6.6225
       102                         -0.2411636              -6.5624
       103                         -0.2400967              -6.5334
       104                         -0.2349632              -6.3937
       105                         -0.2322404              -6.3196
       106                         -0.2312231              -6.2919
       ...                                ...                  ...
       184                          0.6559982              17.8506
      -------------------------------------------------------------
                  HL-Gap            0.1214050 Eh            3.3036 eV

     #   Z          covCN         q      C6AA      Î±(0)
     1   6 C        2.924    -0.028    28.705     8.786
     2   6 C        2.920    -0.025    28.617     8.772
     3   6 C        2.921    -0.027    28.671     8.781
     4   6 C        2.919    -0.025    28.635     8.775
     5   6 C        2.924    -0.028    28.691     8.784
     6   6 C        2.974     0.007    27.859     8.658
     7   6 C        3.824     0.040    19.878     6.344
     8   6 C        3.840     0.036    19.941     6.353
     9   6 C        2.971     0.002    27.968     8.675
    10   6 C        2.923    -0.034    28.845     8.807
    11   6 C        2.920    -0.028    28.700     8.785
    12   6 C        2.920    -0.030    28.759     8.794
    13   6 C        2.920    -0.027    28.671     8.781
    14   6 C        2.925    -0.036    28.908     8.817
    15   7 N        2.766    -0.117    23.544     7.207
    16   6 C        2.765     0.273    22.387     7.749
    17   6 C        2.977    -0.018    28.458     8.751
    18   6 C        2.918    -0.037    28.909     8.817
    19   6 C        2.923    -0.023    28.589     8.768
    20   6 C        3.048    -0.027    28.634     8.776
    21   6 C        2.956     0.063    26.586     8.457
    22  53 I        1.226    -0.116   380.540    33.675
    23   6 C        3.060    -0.025    28.575     8.766
    24   8 O        0.859    -0.405    21.776     6.257
    25   6 C        3.775     0.089    19.126     6.231
    26   6 C        2.688     0.352    21.030     7.505
    27   8 O        1.659    -0.352    19.935     6.027
    28   8 O        0.856    -0.389    21.461     6.211
    29   7 N        2.769    -0.117    23.548     7.207
    30   6 C        2.761     0.273    22.381     7.747
    31   6 C        2.980    -0.017    28.435     8.747
    32   6 C        3.061    -0.036    28.840     8.807
    33   6 C        2.957     0.057    26.731     8.480
    34  53 I        1.228    -0.118   380.705    33.682
    35   6 C        3.046    -0.031    28.722     8.790
    36   6 C        2.923    -0.024    28.602     8.770
    37   6 C        2.921    -0.025    28.621     8.773
    38   8 O        0.859    -0.407    21.815     6.262
    39   1 H        0.926     0.037     2.493     2.469
    40   1 H        0.926     0.040     2.448     2.447
    41   1 H        0.926     0.039     2.457     2.451
    42   1 H        0.926     0.040     2.453     2.449
    43   1 H        0.925     0.020     2.733     2.585
    44   1 H        0.924     0.066     2.129     2.282
    45   1 H        0.924     0.088     1.895     2.153
    46   1 H        0.926     0.034     2.534     2.489
    47   1 H        0.926     0.039     2.463     2.454
    48   1 H        0.926     0.038     2.474     2.460
    49   1 H        0.926     0.040     2.454     2.450
    50   1 H        0.926     0.036     2.503     2.474
    51   1 H        0.926     0.059     2.211     2.325
    52   1 H        0.926     0.053     2.288     2.366
    53   1 H        0.926     0.062     2.170     2.304
    54   1 H        0.926     0.064     2.150     2.293
    55   1 H        0.924     0.068     2.104     2.268
    56   1 H        0.804     0.346     0.598     1.215
    57   1 H        0.926     0.046     2.375     2.410
    58   1 H        0.926     0.059     2.216     2.328
    59   1 H        0.926     0.053     2.282     2.363
    60   1 H        0.926     0.053     2.281     2.362

Wiberg/Mayer (AO) data.
largest (>0.10) Wiberg bond orders for each atom

     #   Z sym  total        # sym  WBO       # sym  WBO       # sym  WBO
 ---------------------------------------------------------------------------
     1   6 C    3.990 --     2 C    1.441     6 C    1.416    39 H    0.968
                             4 C    0.111
     2   6 C    3.992 --     3 C    1.442     1 C    1.441    40 H    0.970
                             5 C    0.112
     3   6 C    3.990 --     2 C    1.442     4 C    1.435    41 H    0.971
                             6 C    0.110
     4   6 C    3.992 --     5 C    1.449     3 C    1.435    42 H    0.971
                             1 C    0.111
     5   6 C    3.992 --     4 C    1.449     6 C    1.409    43 H    0.969
                             2 C    0.112
     6   6 C    3.985 --     1 C    1.416     5 C    1.409     7 C    0.989
                             3 C    0.110
     7   6 C    3.960 --     6 C    0.989    44 H    0.952    29 N    0.952
                             8 C    0.952
     8   6 C    3.958 --     9 C    0.989    15 N    0.964     7 C    0.952
                            45 H    0.939
     9   6 C    3.985 --    10 C    1.418    14 C    1.406     8 C    0.989
                            12 C    0.109
    10   6 C    3.991 --    11 C    1.438     9 C    1.418    46 H    0.967
                            13 C    0.110
    11   6 C    3.992 --    12 C    1.444    10 C    1.438    47 H    0.971
                            14 C    0.112
    12   6 C    3.992 --    11 C    1.444    13 C    1.434    48 H    0.971
                             9 C    0.109
    13   6 C    3.991 --    14 C    1.450    12 C    1.434    49 H    0.970
                            10 C    0.110
    14   6 C    3.991 --    13 C    1.450     9 C    1.406    50 H    0.967
                            11 C    0.112
    15   7 N    3.449 --    16 C    1.174    25 C    0.990     8 C    0.964
                            24 O    0.182
    16   6 C    3.941 --    24 O    1.708    15 N    1.174    17 C    0.977
    17   6 C    3.987 --    18 C    1.394    23 C    1.393    16 C    0.977
                            20 C    0.105
    18   6 C    3.989 --    19 C    1.440    17 C    1.394    51 H    0.964
                            21 C    0.100
    19   6 C    3.991 --    18 C    1.440    20 C    1.435    52 H    0.967
                            23 C    0.108
    20   6 C    3.989 --    19 C    1.435    21 C    1.417    53 H    0.967
                            17 C    0.105
    21   6 C    3.956 --    23 C    1.431    20 C    1.417    22 I    0.974
                            18 C    0.100
    22  53 I    1.089 --    21 C    0.974
    23   6 C    3.988 --    21 C    1.431    17 C    1.393    54 H    0.966
                            19 C    0.108
    24   8 O    2.038 --    16 C    1.708    15 N    0.182
    25   6 C    3.974 --    15 N    0.990    29 N    0.986    55 H    0.932
                            26 C    0.906
    26   6 C    3.919 --    28 O    1.771    27 O    1.170    25 C    0.906
    27   8 O    2.234 --    26 C    1.170    56 H    0.854    28 O    0.184
    28   8 O    2.058 --    26 C    1.771    27 O    0.184
    29   7 N    3.463 --    30 C    1.207    25 C    0.986     7 C    0.952
                            38 O    0.193
    30   6 C    3.947 --    38 O    1.705    29 N    1.207    31 C    0.955
    31   6 C    3.987 --    37 C    1.411    32 C    1.396    30 C    0.955
                            35 C    0.108
    32   6 C    3.990 --    33 C    1.430    31 C    1.396    57 H    0.967
                            36 C    0.109
    33   6 C    3.956 --    32 C    1.430    35 C    1.418    34 I    0.972
                            37 C    0.101
    34  53 I    1.089 --    33 C    0.972
    35   6 C    3.989 --    36 C    1.438    33 C    1.418    58 H    0.968
                            31 C    0.108
    36   6 C    3.990 --    35 C    1.438    37 C    1.436    59 H    0.967
                            32 C    0.109
    37   6 C    3.990 --    36 C    1.436    31 C    1.411    60 H    0.968
                            33 C    0.101
    38   8 O    2.032 --    30 C    1.705    29 N    0.193
    39   1 H    0.999 --     1 C    0.968
    40   1 H    0.998 --     2 C    0.970
    41   1 H    0.998 --     3 C    0.971
    42   1 H    0.998 --     4 C    0.971
    43   1 H    1.000 --     5 C    0.969
    44   1 H    0.995 --     7 C    0.952
    45   1 H    0.992 --     8 C    0.939
    46   1 H    0.999 --    10 C    0.967
    47   1 H    0.998 --    11 C    0.971
    48   1 H    0.998 --    12 C    0.971
    49   1 H    0.998 --    13 C    0.970
    50   1 H    0.999 --    14 C    0.967
    51   1 H    0.995 --    18 C    0.964
    52   1 H    0.997 --    19 C    0.967
    53   1 H    0.996 --    20 C    0.967
    54   1 H    0.996 --    23 C    0.966
    55   1 H    0.995 --    25 C    0.932
    56   1 H    0.880 --    27 O    0.854
    57   1 H    0.998 --    32 C    0.967
    58   1 H    0.996 --    35 C    0.968
    59   1 H    0.997 --    36 C    0.967
    60   1 H    0.996 --    37 C    0.968
 ---------------------------------------------------------------------------

molecular dipole:
                 x           y           z       tot (Debye)
 q only:       -0.427      -0.264      -1.889
   full:       -0.653      -0.414      -3.083       8.078

           -------------------------------------------------
          | TOTAL ENERGY             -105.229157807245 Eh   |
          | GRADIENT NORM               0.000644250844 Eh/Î± |
          | HOMO-LUMO GAP               3.303599299915 eV   |
           -------------------------------------------------

 * finished run on 2022/03/17 at 00:50:20.497
