   * xtb version 6.3.3 (4ae9cef) compiled by 'conda@95abc7406d43' on 2020-10-14
          program call               : xtb acid_218.xyz --opt --chrg 0 --uhf 0 --gfn 2
          number of atoms            :                    62
          number of electrons        :                   194
          charge                     :                     0
          spin                       :                   0.0

   ID    Z sym.   atoms
    1    6 C      1-14, 16-19, 21-24, 26, 27, 31-38
    2    7 N      15, 20, 30, 39
    3    8 O      25, 28, 29, 40
    4    1 H      41-62

          :  Hamiltonian                  GFN2-xTB          :
 * total energy  :  -107.6302058 Eh     change       -0.1093142E-08 Eh
 * total energy  :  -107.6434926 Eh     change       -0.1328684E-01 Eh
 * total energy  :  -107.6470395 Eh     change       -0.3546869E-02 Eh
 * total energy  :  -107.6472247 Eh     change       -0.1852077E-03 Eh
 * total energy  :  -107.6483616 Eh     change       -0.1136881E-02 Eh
 * total energy  :  -107.6487009 Eh     change       -0.3393385E-03 Eh
 * total energy  :  -107.6490614 Eh     change       -0.3605100E-03 Eh
 * total energy  :  -107.6493050 Eh     change       -0.2435469E-03 Eh
 * total energy  :  -107.6496311 Eh     change       -0.3260755E-03 Eh
 * total energy  :  -107.6499330 Eh     change       -0.3019592E-03 Eh
 * total energy  :  -107.6512957 Eh     change       -0.1566620E-04 Eh
 * total energy  :  -107.6513062 Eh     change       -0.1047016E-04 Eh
 * total energy  :  -107.6513153 Eh     change       -0.9074483E-05 Eh
 * total energy  :  -107.6513271 Eh     change       -0.1185202E-04 Eh
 * total energy  :  -107.6513366 Eh     change       -0.9520656E-05 Eh
 * total energy  :  -107.6513318 Eh     change        0.4837335E-05 Eh
 * total energy  :  -107.6513408 Eh     change       -0.9021729E-05 Eh
 * total energy  :  -107.6513461 Eh     change       -0.5274372E-05 Eh
 * total energy  :  -107.6513498 Eh     change       -0.3674318E-05 Eh
   *** GEOMETRY OPTIMIZATION CONVERGED AFTER 42 ITERATIONS ***

 final structure:
================
62
 xtb: 6.3.3 (4ae9cef)
C        -0.86115338806558   -2.44138750542563   -1.95735067661143
C        -1.17754634461551   -3.33877822576343   -2.96119014938560
C        -1.94577838528671   -4.45476272873340   -2.67961056200334
C        -2.39772330993907   -4.67001089099102   -1.38911984431260
C        -2.08473000837946   -3.77161682351762   -0.38501275735224
C        -1.31474637192092   -2.65125050089070   -0.66219259990913
C        -0.97007728744830   -1.68449770309046    0.44460788878830
C         0.51830116391294   -1.72515543978900    0.82117873286355
C         0.80202483579659   -1.63037259842347    2.30337436574997
C         1.95271686823995   -2.22842884289662    2.80369140355393
C         2.27878307326037   -2.11160886603526    4.14294670791173
C         1.45930069493298   -1.39406119303337    4.99782019697451
C         0.31314216832417   -0.79389409388301    4.50616748165597
C        -0.01522164721643   -0.90881898409753    3.16591829932256
N         1.06402205120997   -0.54840743312817    0.13980463915013
C         2.37251774302861   -0.47502722635700   -0.20009805938240
C         2.86307896190354    0.83429160988445   -0.74470527246197
C         2.49253951583623    1.32850020513710   -2.00094014209644
C         1.54557408029650    0.64458602689849   -2.79553634077160
N         0.75041894939854    0.12376433641992   -3.43759219471639
C         3.05208979190701    2.51175915611849   -2.48717463168558
C         3.97729643323168    3.19772584512862   -1.72569581387438
C         4.35761435105873    2.70441416365489   -0.48643363427143
C         3.81217599693130    1.52638477958407   -0.00557803591543
O         3.13284367439650   -1.40709649855698   -0.04575713339554
C         0.04889135837617    0.46038658721428    0.04897955948974
C         0.08556100590888    1.45739527910386    1.23304041065669
O         1.30792447016480    1.57513293163904    1.74358300755141
O        -0.85925146077963    2.09172389630914    1.60304812651780
N        -1.17601908218871   -0.29901762683289    0.02382461223994
C        -2.43077222433891    0.13821000805593   -0.26534493024143
C        -2.52642573047110    1.53021767103911   -0.80334763851079
C        -2.00994197683274    1.84804488151433   -2.05124657257521
C        -2.17045002382683    3.12469135024754   -2.56500003045797
C        -2.84918470538350    4.09104703593066   -1.83869804551861
C        -3.38228923290411    3.78350226403238   -0.60104504560141
C        -3.23102344654121    2.49929887375327   -0.08161399391486
C        -3.76753595256360    2.18470697463372    1.19085757778723
N        -4.20748983496846    1.96134543923494    2.22440633368667
O        -3.39905934137560   -0.57411867573310   -0.12304032758630
H        -0.26384508600744   -1.57294073801033   -2.19163539096236
H        -0.82318776297595   -3.16009709084585   -3.96508309778532
H        -2.19528108109928   -5.15315672168979   -3.46463653162186
H        -3.00193097910542   -5.53612338429333   -1.16420803092426
H        -2.44747257042545   -3.93491176793447    0.61894291427103
H        -1.60944127640425   -1.90280927163473    1.30648171857835
H         1.01546462560571   -2.60821059276431    0.40845489952372
H         2.59788946640308   -2.77544219078831    2.13334416744714
H         3.17442783950684   -2.58268301041589    4.51947278542305
H         1.71136421407553   -1.30361929191710    6.04396374064341
H        -0.33331387345635   -0.23330827962817    5.16495386373927
H        -0.91805158553368   -0.43374538614987    2.80968539889665
H         2.75693601853139    2.87463297311014   -3.46066429248546
H         4.40931193224559    4.11222592409243   -2.10230866984732
H         5.08986436932627    3.23504870466702    0.10279405763398
H         4.11500327475620    1.12814167749590    0.95034765792463
H         0.15776335432420    1.07532231328298   -0.85680337399062
H         1.31123273568599    2.19860797401883    2.48914633546616
H        -1.49989584694347    1.09111763554158   -2.63060041362867
H        -1.76818572380171    3.36185930216559   -3.53849083342370
H        -2.96961527014260    5.08505094473770   -2.24281417970171
H        -3.91943220763727    4.52622281860646   -0.03026763652447

          :  Hamiltonian                  GFN2-xTB          :
         :: total energy            -107.651349779979 Eh    ::
         :: gradient norm              0.000923163910 Eh/a0 ::
         :: HOMO-LUMO gap              2.651881383021 eV    ::
         :: SCC energy              -109.429567553096 Eh    ::
         :: -> dispersion             -0.092636278705 Eh    ::
         :: repulsion energy           1.774683343996 Eh    ::

    * Orbital Energies and Occupations

         #    Occupation            Energy/Eh            Energy/eV
      -------------------------------------------------------------
         1        2.0000           -0.7897512             -21.4902
       ...           ...                  ...                  ...
        85        2.0000           -0.4324855             -11.7685
        86        2.0000           -0.4298443             -11.6967
        87        2.0000           -0.4227394             -11.5033
        88        2.0000           -0.4210076             -11.4562
        89        2.0000           -0.4204562             -11.4412
        90        2.0000           -0.4176563             -11.3650
        91        2.0000           -0.4169491             -11.3458
        92        2.0000           -0.4149695             -11.2919
        93        2.0000           -0.4140968             -11.2681
        94        2.0000           -0.4048915             -11.0177
        95        2.0000           -0.4032702             -10.9735
        96        2.0000           -0.4009439             -10.9102
        97        2.0000           -0.3964903             -10.7890 (HOMO)
        98                         -0.2990354              -8.1372 (LUMO)
        99                         -0.2770807              -7.5397
       100                         -0.2747726              -7.4769
       101                         -0.2703398              -7.3563
       102                         -0.2542933              -6.9197
       103                         -0.2424322              -6.5969
       104                         -0.2346575              -6.3854
       105                         -0.2328321              -6.3357
       106                         -0.2277159              -6.1965
       107                         -0.2246250              -6.1124
       108                         -0.2211138              -6.0168
       ...                                ...                  ...
       182                          1.1806204              32.1263
      -------------------------------------------------------------
                  HL-Gap            0.0974548 Eh            2.6519 eV

     #   Z          covCN         q      C6AA      Î±(0)
     1   6 C        2.924    -0.032    28.797     8.800
     2   6 C        2.920    -0.025    28.638     8.776
     3   6 C        2.920    -0.028    28.701     8.785
     4   6 C        2.920    -0.026    28.642     8.776
     5   6 C        2.924    -0.029    28.727     8.790
     6   6 C        2.974     0.005    27.895     8.663
     7   6 C        3.826     0.040    19.879     6.344
     8   6 C        3.835     0.037    19.930     6.351
     9   6 C        2.972    -0.001    28.042     8.686
    10   6 C        2.925    -0.031    28.784     8.798
    11   6 C        2.919    -0.027    28.672     8.781
    12   6 C        2.920    -0.029    28.732     8.790
    13   6 C        2.920    -0.030    28.738     8.791
    14   6 C        2.922    -0.037    28.929     8.820
    15   7 N        2.769    -0.105    23.308     7.170
    16   6 C        2.760     0.274    22.373     7.746
    17   6 C        2.978    -0.006    28.154     8.704
    18   6 C        2.975     0.014    27.703     8.634
    19   6 C        1.912     0.112    28.345     8.598
    20   7 N        0.911    -0.233    26.109     7.390
    21   6 C        2.928    -0.019    28.475     8.751
    22   6 C        2.918    -0.024    28.593     8.769
    23   6 C        2.919    -0.019    28.473     8.750
    24   6 C        2.925    -0.016    28.413     8.741
    25   8 O        0.859    -0.414    21.955     6.282
    26   6 C        3.760     0.096    19.038     6.220
    27   6 C        2.686     0.349    21.065     7.511
    28   8 O        1.659    -0.365    20.181     6.064
    29   8 O        0.856    -0.383    21.336     6.193
    30   7 N        2.769    -0.116    23.535     7.205
    31   6 C        2.762     0.278    22.300     7.733
    32   6 C        2.982    -0.007    28.189     8.709
    33   6 C        2.920    -0.033    28.816     8.803
    34   6 C        2.919    -0.023    28.589     8.768
    35   6 C        2.918    -0.026    28.642     8.776
    36   6 C        2.927    -0.018    28.455     8.748
    37   6 C        2.976     0.036    27.187     8.553
    38   6 C        1.911     0.126    28.018     8.548
    39   7 N        0.911    -0.218    25.748     7.339
    40   8 O        0.859    -0.405    21.782     6.257
    41   1 H        0.926     0.037     2.485     2.465
    42   1 H        0.926     0.042     2.423     2.434
    43   1 H        0.926     0.036     2.498     2.472
    44   1 H        0.926     0.038     2.474     2.460
    45   1 H        0.926     0.037     2.483     2.464
    46   1 H        0.924     0.071     2.076     2.253
    47   1 H        0.924     0.079     1.988     2.205
    48   1 H        0.926     0.055     2.255     2.349
    49   1 H        0.926     0.040     2.448     2.447
    50   1 H        0.926     0.037     2.485     2.465
    51   1 H        0.926     0.040     2.452     2.449
    52   1 H        0.926     0.034     2.531     2.488
    53   1 H        0.926     0.050     2.317     2.380
    54   1 H        0.926     0.050     2.323     2.383
    55   1 H        0.926     0.051     2.305     2.374
    56   1 H        0.926     0.057     2.230     2.335
    57   1 H        0.923     0.065     2.138     2.287
    58   1 H        0.804     0.347     0.595     1.212
    59   1 H        0.926     0.049     2.331     2.387
    60   1 H        0.926     0.044     2.391     2.418
    61   1 H        0.926     0.044     2.393     2.419
    62   1 H        0.926     0.051     2.313     2.378

Wiberg/Mayer (AO) data.
largest (>0.10) Wiberg bond orders for each atom

     #   Z sym  total        # sym  WBO       # sym  WBO       # sym  WBO
 ---------------------------------------------------------------------------
     1   6 C    3.991 --     2 C    1.444     6 C    1.414    41 H    0.961
                             4 C    0.112
     2   6 C    3.992 --     1 C    1.444     3 C    1.439    42 H    0.970
                             5 C    0.112
     3   6 C    3.991 --     4 C    1.439     2 C    1.439    43 H    0.971
                             6 C    0.109
     4   6 C    3.992 --     5 C    1.444     3 C    1.439    44 H    0.971
                             1 C    0.112
     5   6 C    3.989 --     4 C    1.444     6 C    1.414    45 H    0.968
                             2 C    0.112
     6   6 C    3.984 --     1 C    1.414     5 C    1.414     7 C    0.985
                             3 C    0.109
     7   6 C    3.957 --     6 C    0.985     8 C    0.967    46 H    0.951
                            30 N    0.950
     8   6 C    3.956 --     9 C    0.983     7 C    0.967    47 H    0.954
                            15 N    0.941
     9   6 C    3.985 --    14 C    1.415    10 C    1.412     8 C    0.983
                            12 C    0.109
    10   6 C    3.989 --    11 C    1.446     9 C    1.412    48 H    0.966
                            13 C    0.112
    11   6 C    3.992 --    10 C    1.446    12 C    1.438    49 H    0.970
                            14 C    0.111
    12   6 C    3.990 --    13 C    1.440    11 C    1.438    50 H    0.971
                             9 C    0.109
    13   6 C    3.992 --    14 C    1.441    12 C    1.440    51 H    0.971
                            10 C    0.112
    14   6 C    3.992 --    13 C    1.441     9 C    1.415    52 H    0.964
                            11 C    0.111
    15   7 N    3.482 --    16 C    1.220    26 C    1.000     8 C    0.941
                            25 O    0.194
    16   6 C    3.950 --    25 O    1.688    15 N    1.220    17 C    0.957
    17   6 C    3.986 --    24 C    1.416    18 C    1.332    16 C    0.957
                            22 C    0.103
    18   6 C    3.989 --    21 C    1.357    17 C    1.332    19 C    1.096
    19   6 C    3.947 --    20 N    2.786    18 C    1.096
    20   7 N    2.982 --    19 C    2.786
    21   6 C    3.990 --    22 C    1.457    18 C    1.357    53 H    0.969
                            24 C    0.105
    22   6 C    3.991 --    21 C    1.457    23 C    1.426    54 H    0.969
                            17 C    0.103
    23   6 C    3.965 --    24 C    1.439    22 C    1.426    55 H    0.969
    24   6 C    3.989 --    23 C    1.439    17 C    1.416    56 H    0.967
                            21 C    0.105
    25   8 O    2.024 --    16 C    1.688    15 N    0.194
    26   6 C    3.978 --    15 N    1.000    30 N    0.992    57 H    0.920
                            27 C    0.905
    27   6 C    3.918 --    29 O    1.784    28 O    1.153    26 C    0.905
    28   8 O    2.216 --    27 C    1.153    58 H    0.853    29 O    0.182
    29   8 O    2.069 --    27 C    1.784    28 O    0.182
    30   7 N    3.456 --    31 C    1.199    26 C    0.992     7 C    0.950
                            40 O    0.191
    31   6 C    3.948 --    40 O    1.705    30 N    1.199    32 C    0.961
    32   6 C    3.987 --    33 C    1.417    37 C    1.336    31 C    0.961
                            35 C    0.104
    33   6 C    3.990 --    34 C    1.435    32 C    1.417    59 H    0.963
                            36 C    0.105
    34   6 C    3.967 --    33 C    1.435    35 C    1.430    60 H    0.970
                            37 C    0.101
    35   6 C    3.991 --    36 C    1.452    34 C    1.430    61 H    0.969
                            32 C    0.104
    36   6 C    3.990 --    35 C    1.452    37 C    1.369    62 H    0.969
                            33 C    0.105
    37   6 C    3.990 --    36 C    1.369    32 C    1.336    38 C    1.086
                            34 C    0.101
    38   6 C    3.947 --    39 N    2.816    37 C    1.086
    39   7 N    2.984 --    38 C    2.816
    40   8 O    2.036 --    31 C    1.705    30 N    0.191
    41   1 H    0.999 --     1 C    0.961
    42   1 H    0.998 --     2 C    0.970
    43   1 H    0.998 --     3 C    0.971
    44   1 H    0.998 --     4 C    0.971
    45   1 H    0.999 --     5 C    0.968
    46   1 H    0.994 --     7 C    0.951
    47   1 H    0.993 --     8 C    0.954
    48   1 H    0.997 --    10 C    0.966
    49   1 H    0.998 --    11 C    0.970
    50   1 H    0.998 --    12 C    0.971
    51   1 H    0.998 --    13 C    0.971
    52   1 H    0.999 --    14 C    0.964
    53   1 H    0.997 --    21 C    0.969
    54   1 H    0.996 --    22 C    0.969
    55   1 H    0.997 --    23 C    0.969
    56   1 H    0.995 --    24 C    0.967
    57   1 H    0.995 --    26 C    0.920
    58   1 H    0.879 --    28 O    0.853
    59   1 H    0.996 --    33 C    0.963
    60   1 H    0.997 --    34 C    0.970
    61   1 H    0.996 --    35 C    0.969
    62   1 H    0.997 --    36 C    0.969
 ---------------------------------------------------------------------------

molecular dipole:
                 x           y           z       tot (Debye)
 q only:        2.037       1.388      -0.024
   full:        2.685       2.151      -0.204       8.760

           -------------------------------------------------
          | TOTAL ENERGY             -107.651349779979 Eh   |
          | GRADIENT NORM               0.000923163910 Eh/Î± |
          | HOMO-LUMO GAP               2.651881383021 eV   |
           -------------------------------------------------

 * finished run on 2022/03/16 at 22:38:44.010
