   * xtb version 6.3.3 (4ae9cef) compiled by 'conda@95abc7406d43' on 2020-10-14
          program call               : xtb acid_81.xyz --opt --chrg 0 --uhf 0 --gfn 2
          number of atoms            :                    66
          number of electrons        :                   226
          charge                     :                     0
          spin                       :                   0.0

   ID    Z sym.   atoms
    1    6 C      1-14, 16-22, 26, 28, 29, 33-37, 41-43
    2    7 N      15, 32
    3    9 F      23-25, 38-40
    4    8 O      27, 30, 31, 44
    5    1 H      45-66

          :  Hamiltonian                  GFN2-xTB          :
 * total energy  :  -130.2862306 Eh     change       -0.1022215E-08 Eh
 * total energy  :  -130.3013137 Eh     change       -0.1508311E-01 Eh
 * total energy  :  -130.3059274 Eh     change       -0.4613649E-02 Eh
 * total energy  :  -130.3068954 Eh     change       -0.9680117E-03 Eh
 * total energy  :  -130.3073067 Eh     change       -0.4113460E-03 Eh
 * total energy  :  -130.3074800 Eh     change       -0.1732079E-03 Eh
 * total energy  :  -130.3076353 Eh     change       -0.1553734E-03 Eh
 * total energy  :  -130.3078044 Eh     change       -0.1690775E-03 Eh
 * total energy  :  -130.3079949 Eh     change       -0.1905093E-03 Eh
 * total energy  :  -130.3081586 Eh     change       -0.1636353E-03 Eh
 * total energy  :  -130.3114843 Eh     change       -0.2160900E-04 Eh
 * total energy  :  -130.3114967 Eh     change       -0.1247835E-04 Eh
 * total energy  :  -130.3115074 Eh     change       -0.1061522E-04 Eh
 * total energy  :  -130.3115146 Eh     change       -0.7260720E-05 Eh
 * total energy  :  -130.3115292 Eh     change       -0.1461652E-04 Eh
 * total energy  :  -130.3115406 Eh     change       -0.1138437E-04 Eh
 * total energy  :  -130.3115557 Eh     change       -0.1510396E-04 Eh
 * total energy  :  -130.3115636 Eh     change       -0.7859129E-05 Eh
 * total energy  :  -130.3115685 Eh     change       -0.4877078E-05 Eh
   *** GEOMETRY OPTIMIZATION CONVERGED AFTER 95 ITERATIONS ***

 final structure:
================
66
 xtb: 6.3.3 (4ae9cef)
C         1.12652238852675   -4.31710822539016    1.52587783658244
C         1.50892522017268   -4.92951717360911    2.70637557631732
C         1.47176356386051   -4.22661737964365    3.89787719972329
C         1.05129321223904   -2.90727991383926    3.90639291384353
C         0.66746750011028   -2.29566434694876    2.72750017965586
C         0.70197913652264   -2.99722350221646    1.52852867293824
C         0.27011802590158   -2.32442002593064    0.25003569138585
C        -1.22395094821359   -1.92511040832050    0.26651206110874
C        -1.96608591275325   -2.35315410510327   -0.98006002059657
C        -2.69951921197245   -1.45997711910058   -1.74477206059332
C        -3.36411778232645   -1.89009683048014   -2.88010867223006
C        -3.30963743988868   -3.21955745817473   -3.25674772352355
C        -2.59948777781174   -4.12236623124676   -2.48347025881847
C        -1.93449514438674   -3.69252574452013   -1.35040622069851
N        -1.19189086074862   -0.48240808493000    0.44872207912069
C        -2.07733090965714    0.15223182113574    1.26348015888302
C        -1.84991555700725    1.63352173593599    1.36147951854758
C        -1.23734452099872    2.18818397424033    2.47881858792729
C        -1.02625737807899    3.55433237674293    2.55037476883538
C        -1.42044411250488    4.37869001120343    1.51027514137029
C        -2.04775600790552    3.82255186258728    0.40534722618634
C        -2.49615096732654    4.67775886227954   -0.74636175943580
F        -2.01781282022528    5.92631171435733   -0.69732566123359
F        -2.10405458058668    4.16544702318639   -1.92975889682723
F        -3.83431813346506    4.78254746234393   -0.81438669536459
C        -2.27557237448561    2.45587838303312    0.32949828838794
O        -2.97710741348572   -0.42509035499489    1.82739565340912
C         0.05037992480944    0.05791171295526   -0.03726823511310
C        -0.05560176388799    0.51428236201760   -1.51600389687081
O        -0.20229867321365    1.83215755962820   -1.58673059164065
O         0.00558652611074   -0.22208294451788   -2.45585745687852
N         0.96346827060685   -1.05101469644473    0.08042942177253
C         2.31006903049880   -0.98710354477670   -0.06139847727338
C         2.80593771118046    0.42050062461000   -0.25143728727242
C         2.87006961694699    0.96519717113820   -1.52450376562699
C         3.26533694101991    2.28789842684400   -1.67990476601852
C         3.22028723975553    2.87231276339827   -3.06329486775661
F         1.94883173416380    2.90050435046704   -3.52842883452744
F         3.66875998421637    4.13027154884428   -3.12888501607693
F         3.92385476712820    2.16158855185857   -3.95437229477028
C         3.62979785425787    3.05758556705267   -0.58548080368257
C         3.60354154514908    2.49081926762113    0.67774069527019
C         3.18354306683512    1.18307710594951    0.84777529237667
O         3.02809616543552   -1.95753014229027   -0.01386349943695
H         1.16868438787617   -4.86283006322562    0.59523097357210
H         1.84138212025510   -5.95658366042316    2.69464962541392
H         1.77286945930052   -4.70358501738170    4.81848861139159
H         1.02216814383189   -2.35438168049393    4.83379667499697
H         0.33858340010207   -1.26535721585152    2.73746260482231
H         0.49943223190368   -2.96770492100652   -0.60583768443768
H        -1.73376565088867   -2.35436057057142    1.13890474371937
H        -2.76198674739283   -0.42187059705098   -1.45343740454634
H        -3.92573178722330   -1.18197110336986   -3.47074186505376
H        -3.82425844642904   -3.55318554976073   -4.14514040517760
H        -2.56422938401280   -5.16484447976936   -2.76270389970227
H        -1.39290228529925   -4.40193919275199   -0.74142930545085
H        -0.92911816877695    1.54651131789995    3.29074324319060
H        -0.54981098465668    3.98100765925779    3.41887242039373
H        -1.24709618584031    5.44255263152665    1.55516010319185
H        -2.78319660615128    2.04210349227413   -0.52829157642169
H         0.36600391232686    0.92761789725110    0.55597344206943
H        -0.26259325209942    2.14884182616015   -2.50642495440989
H         2.61412951121910    0.37002041213963   -2.38836055035337
H         3.93398168528840    4.08347777366402   -0.72265069950834
H         3.90267719358452    3.07719873495908    1.53252054450461
H         3.15029931858071    0.74356729959782    1.83360515642843

          :  Hamiltonian                  GFN2-xTB          :
         :: total energy            -130.311568469025 Eh    ::
         :: gradient norm              0.000621914232 Eh/a0 ::
         :: HOMO-LUMO gap              3.266251668682 eV    ::
         :: SCC energy              -131.932427688000 Eh    ::
         :: -> dispersion             -0.093033954058 Eh    ::
         :: repulsion energy           1.617228926710 Eh    ::

    * Orbital Energies and Occupations

         #    Occupation            Energy/Eh            Energy/eV
      -------------------------------------------------------------
         1        2.0000           -0.8890593             -24.1925
       ...           ...                  ...                  ...
       101        2.0000           -0.4538697             -12.3504
       102        2.0000           -0.4476507             -12.1812
       103        2.0000           -0.4435371             -12.0693
       104        2.0000           -0.4368000             -11.8859
       105        2.0000           -0.4346530             -11.8275
       106        2.0000           -0.4296674             -11.6918
       107        2.0000           -0.4244097             -11.5488
       108        2.0000           -0.4188962             -11.3987
       109        2.0000           -0.4186756             -11.3927
       110        2.0000           -0.4169265             -11.3451
       111        2.0000           -0.4146710             -11.2838
       112        2.0000           -0.4099235             -11.1546
       113        2.0000           -0.4077825             -11.0963 (HOMO)
       114                         -0.2877499              -7.8301 (LUMO)
       115                         -0.2844869              -7.7413
       116                         -0.2791547              -7.5962
       117                         -0.2757047              -7.5023
       118                         -0.2724858              -7.4147
       119                         -0.2450627              -6.6685
       120                         -0.2399231              -6.5286
       121                         -0.2360807              -6.4241
       122                         -0.2358938              -6.4190
       123                         -0.2331267              -6.3437
       124                         -0.2325015              -6.3267
       ...                                ...                  ...
       198                          0.6557559              17.8440
      -------------------------------------------------------------
                  HL-Gap            0.1200325 Eh            3.2663 eV

     #   Z          covCN         q      C6AA      Î±(0)
     1   6 C        2.924    -0.027    28.670     8.781
     2   6 C        2.920    -0.024    28.601     8.770
     3   6 C        2.921    -0.027    28.680     8.782
     4   6 C        2.919    -0.027    28.672     8.781
     5   6 C        2.924    -0.031    28.770     8.796
     6   6 C        2.974     0.008    27.835     8.654
     7   6 C        3.821     0.040    19.888     6.346
     8   6 C        3.828     0.038    19.922     6.351
     9   6 C        2.971     0.006    27.883     8.662
    10   6 C        2.924    -0.023    28.591     8.769
    11   6 C        2.920    -0.023    28.588     8.768
    12   6 C        2.920    -0.027    28.674     8.781
    13   6 C        2.920    -0.025    28.624     8.774
    14   6 C        2.926    -0.035    28.881     8.813
    15   7 N        2.768    -0.106    23.311     7.171
    16   6 C        2.761     0.272    22.405     7.751
    17   6 C        2.977    -0.008    28.223     8.714
    18   6 C        2.922    -0.020    28.497     8.754
    19   6 C        2.921    -0.022    28.548     8.762
    20   6 C        2.919    -0.022    28.554     8.763
    21   6 C        2.977    -0.019    28.467     8.752
    22   6 C        3.337     0.487    17.269     6.580
    23   9 F        0.791    -0.201    11.245     3.961
    24   9 F        0.791    -0.212    11.357     3.981
    25   9 F        0.791    -0.203    11.267     3.965
    26   6 C        2.926    -0.016    28.422     8.743
    27   8 O        0.859    -0.397    21.621     6.234
    28   6 C        3.759     0.086    19.201     6.247
    29   6 C        2.686     0.349    21.071     7.512
    30   8 O        1.659    -0.374    20.357     6.091
    31   8 O        0.856    -0.364    20.981     6.141
    32   7 N        2.771    -0.110    23.391     7.183
    33   6 C        2.761     0.272    22.397     7.750
    34   6 C        2.979    -0.011    28.275     8.722
    35   6 C        2.925    -0.024    28.598     8.770
    36   6 C        2.978    -0.021    28.535     8.762
    37   6 C        3.337     0.487    17.259     6.577
    38   9 F        0.791    -0.219    11.428     3.993
    39   9 F        0.791    -0.200    11.230     3.959
    40   9 F        0.791    -0.199    11.224     3.957
    41   6 C        2.919    -0.023    28.578     8.766
    42   6 C        2.921    -0.022    28.548     8.762
    43   6 C        2.922    -0.021    28.535     8.760
    44   8 O        0.858    -0.397    21.629     6.235
    45   1 H        0.926     0.042     2.426     2.436
    46   1 H        0.926     0.042     2.418     2.431
    47   1 H        0.926     0.039     2.457     2.451
    48   1 H        0.926     0.036     2.505     2.475
    49   1 H        0.925     0.020     2.737     2.587
    50   1 H        0.924     0.074     2.044     2.236
    51   1 H        0.924     0.085     1.931     2.173
    52   1 H        0.926     0.020     2.738     2.587
    53   1 H        0.926     0.040     2.448     2.446
    54   1 H        0.926     0.041     2.441     2.443
    55   1 H        0.926     0.041     2.440     2.443
    56   1 H        0.926     0.034     2.526     2.485
    57   1 H        0.926     0.057     2.233     2.337
    58   1 H        0.926     0.062     2.179     2.309
    59   1 H        0.926     0.070     2.091     2.261
    60   1 H        0.926     0.059     2.212     2.326
    61   1 H        0.923     0.058     2.227     2.334
    62   1 H        0.804     0.362     0.561     1.177
    63   1 H        0.926     0.067     2.119     2.277
    64   1 H        0.926     0.070     2.088     2.260
    65   1 H        0.926     0.061     2.185     2.312
    66   1 H        0.926     0.057     2.239     2.340

Wiberg/Mayer (AO) data.
largest (>0.10) Wiberg bond orders for each atom

     #   Z sym  total        # sym  WBO       # sym  WBO       # sym  WBO
 ---------------------------------------------------------------------------
     1   6 C    3.989 --     2 C    1.441     6 C    1.417    45 H    0.968
                             4 C    0.111
     2   6 C    3.991 --     3 C    1.442     1 C    1.441    46 H    0.970
                             5 C    0.112
     3   6 C    3.990 --     2 C    1.442     4 C    1.435    47 H    0.971
                             6 C    0.110
     4   6 C    3.992 --     5 C    1.449     3 C    1.435    48 H    0.971
                             1 C    0.111
     5   6 C    3.992 --     4 C    1.449     6 C    1.409    49 H    0.970
                             2 C    0.112
     6   6 C    3.985 --     1 C    1.417     5 C    1.409     7 C    0.988
                             3 C    0.110
     7   6 C    3.956 --     6 C    0.988     8 C    0.956    50 H    0.952
                            32 N    0.949
     8   6 C    3.955 --     9 C    0.984    15 N    0.961     7 C    0.956
                            51 H    0.942
     9   6 C    3.984 --    10 C    1.422    14 C    1.405     8 C    0.984
                            12 C    0.110
    10   6 C    3.992 --    11 C    1.437     9 C    1.422    52 H    0.967
                            13 C    0.110
    11   6 C    3.992 --    12 C    1.445    10 C    1.437    53 H    0.971
                            14 C    0.113
    12   6 C    3.992 --    11 C    1.445    13 C    1.433    54 H    0.971
                             9 C    0.110
    13   6 C    3.991 --    14 C    1.451    12 C    1.433    55 H    0.970
                            10 C    0.110
    14   6 C    3.991 --    13 C    1.451     9 C    1.405    56 H    0.968
                            11 C    0.113
    15   7 N    3.476 --    16 C    1.203    28 C    0.990     8 C    0.961
                            27 O    0.195
    16   6 C    3.950 --    27 O    1.712    15 N    1.203    17 C    0.951
    17   6 C    3.988 --    26 C    1.412    18 C    1.405    16 C    0.951
                            20 C    0.109
    18   6 C    3.990 --    19 C    1.444    17 C    1.405    57 H    0.968
                            21 C    0.107
    19   6 C    3.989 --    18 C    1.444    20 C    1.437    58 H    0.968
                            26 C    0.112
    20   6 C    3.987 --    19 C    1.437    21 C    1.417    59 H    0.966
                            17 C    0.109
    21   6 C    3.976 --    20 C    1.417    26 C    1.413    22 C    0.950
                            18 C    0.107
    22   6 C    3.826 --    23 F    0.955    21 C    0.950    25 F    0.946
                            24 F    0.939
    23   9 F    1.079 --    22 C    0.955
    24   9 F    1.065 --    22 C    0.939
    25   9 F    1.075 --    22 C    0.946
    26   6 C    3.989 --    21 C    1.413    17 C    1.412    60 H    0.966
                            19 C    0.112
    27   8 O    2.046 --    16 C    1.712    15 N    0.195
    28   6 C    3.974 --    15 N    0.990    32 N    0.987    61 H    0.946
                            29 C    0.897
    29   6 C    3.923 --    31 O    1.795    30 O    1.159    28 C    0.897
    30   8 O    2.218 --    29 C    1.159    62 H    0.840    31 O    0.188
    31   8 O    2.084 --    29 C    1.795    30 O    0.188
    32   7 N    3.473 --    33 C    1.214    28 C    0.987     7 C    0.949
                            44 O    0.199
    33   6 C    3.953 --    44 O    1.712    32 N    1.214    34 C    0.945
    34   6 C    3.987 --    35 C    1.416    43 C    1.404    33 C    0.945
                            41 C    0.109
    35   6 C    3.988 --    34 C    1.416    36 C    1.409    63 H    0.965
                            42 C    0.112
    36   6 C    3.975 --    41 C    1.419    35 C    1.409    37 C    0.950
                            43 C    0.107
    37   6 C    3.826 --    39 F    0.957    40 F    0.953    36 C    0.950
                            38 F    0.929
    38   9 F    1.058 --    37 C    0.929
    39   9 F    1.080 --    37 C    0.957
    40   9 F    1.081 --    37 C    0.953
    41   6 C    3.987 --    42 C    1.435    36 C    1.419    64 H    0.966
                            34 C    0.109
    42   6 C    3.989 --    43 C    1.446    41 C    1.435    65 H    0.968
                            35 C    0.112
    43   6 C    3.990 --    42 C    1.446    34 C    1.404    66 H    0.968
                            36 C    0.107
    44   8 O    2.043 --    33 C    1.712    32 N    0.199
    45   1 H    0.998 --     1 C    0.968
    46   1 H    0.998 --     2 C    0.970
    47   1 H    0.998 --     3 C    0.971
    48   1 H    0.998 --     4 C    0.971
    49   1 H    1.000 --     5 C    0.970
    50   1 H    0.994 --     7 C    0.952
    51   1 H    0.992 --     8 C    0.942
    52   1 H    1.000 --    10 C    0.967
    53   1 H    0.998 --    11 C    0.971
    54   1 H    0.998 --    12 C    0.971
    55   1 H    0.998 --    13 C    0.970
    56   1 H    0.999 --    14 C    0.968
    57   1 H    0.996 --    18 C    0.968
    58   1 H    0.995 --    19 C    0.968
    59   1 H    0.995 --    20 C    0.966
    60   1 H    0.997 --    26 C    0.966
    61   1 H    0.996 --    28 C    0.946
    62   1 H    0.868 --    30 O    0.840
    63   1 H    0.996 --    35 C    0.965
    64   1 H    0.995 --    41 C    0.966
    65   1 H    0.995 --    42 C    0.968
    66   1 H    0.996 --    43 C    0.968
 ---------------------------------------------------------------------------

molecular dipole:
                 x           y           z       tot (Debye)
 q only:        0.327      -0.366       2.071
   full:        0.405       0.188       1.921       5.014

           -------------------------------------------------
          | TOTAL ENERGY             -130.311568469025 Eh   |
          | GRADIENT NORM               0.000621914232 Eh/Î± |
          | HOMO-LUMO GAP               3.266251668682 eV   |
           -------------------------------------------------

 * finished run on 2022/03/17 at 02:08:10.711
