   * xtb version 6.3.3 (4ae9cef) compiled by 'conda@95abc7406d43' on 2020-10-14
          program call               : xtb acid_13.xyz --opt --chrg 0 --uhf 0 --gfn 2
          number of atoms            :                    72
          number of electrons        :                   218
          charge                     :                     0
          spin                       :                   0.0

   ID    Z sym.   atoms
    1    6 C      1-22, 24-29, 32, 33, 37-42
    2    7 N      23, 36
    3    8 O      30, 31, 34, 35, 43, 44
    4    1 H      45-72

          :  Hamiltonian                  GFN2-xTB          :
 * total energy  :  -121.6472941 Eh     change       -0.7181185E-08 Eh
 * total energy  :  -121.6621634 Eh     change       -0.1486931E-01 Eh
 * total energy  :  -121.6664498 Eh     change       -0.4286360E-02 Eh
 * total energy  :  -121.6678658 Eh     change       -0.1416053E-02 Eh
 * total energy  :  -121.6686837 Eh     change       -0.8178462E-03 Eh
 * total energy  :  -121.6691119 Eh     change       -0.4282838E-03 Eh
 * total energy  :  -121.6695704 Eh     change       -0.4584299E-03 Eh
 * total energy  :  -121.6699181 Eh     change       -0.3476997E-03 Eh
 * total energy  :  -121.6702171 Eh     change       -0.2990393E-03 Eh
 * total energy  :  -121.6704962 Eh     change       -0.2790653E-03 Eh
 * total energy  :  -121.6722055 Eh     change        0.9737623E-05 Eh
 * total energy  :  -121.6722219 Eh     change       -0.1635361E-04 Eh
 * total energy  :  -121.6722153 Eh     change        0.6587314E-05 Eh
 * total energy  :  -121.6722295 Eh     change       -0.1418344E-04 Eh
 * total energy  :  -121.6722334 Eh     change       -0.3954470E-05 Eh
 * total energy  :  -121.6722174 Eh     change        0.1599708E-04 Eh
 * total energy  :  -121.6722411 Eh     change       -0.2369378E-04 Eh
 * total energy  :  -121.6722379 Eh     change        0.3210340E-05 Eh
 * total energy  :  -121.6722382 Eh     change       -0.3428098E-06 Eh
   *** GEOMETRY OPTIMIZATION CONVERGED AFTER 68 ITERATIONS ***

 final structure:
================
72
 xtb: 6.3.3 (4ae9cef)
C        -3.93732991000793    2.91534702989245    2.56882170415806
C        -4.04048015642574    3.73144640226826    1.47914316022602
C        -3.41262836885339    3.37112822167027    0.27931663411090
C        -2.67956419901529    2.22062331783700    0.19394793311136
C        -2.52479358459667    1.36572547910885    1.30746789347301
C        -3.18867278960299    1.72088582479876    2.51423926262978
C        -3.08638586602420    0.88083881771934    3.64237584327232
C        -2.35149735000115   -0.26716864706147    3.58670371193417
C        -1.66984552823923   -0.60695726334543    2.41076254932616
C        -1.73853692704189    0.18028076208451    1.29049035042633
C        -0.92522932976562   -0.16614112163106    0.06803961953379
C         0.44296042963248    0.55212981812042    0.07400793558756
C         0.49160313097989    1.67555277877198   -0.92859399529409
C         0.64546744449353    1.35806155143602   -2.25525569258253
C         0.65979138608959    2.34574408077908   -3.24650813359992
C         0.49554237654206    3.65659887001101   -2.90302009512006
C         0.31270537016561    4.02720971635997   -1.55526190223505
C         0.31581291344051    3.03043472550326   -0.53990242446491
C         0.11626871411961    3.44816141476820    0.79455242933824
C        -0.08180409459081    4.76436300455492    1.10360522848133
C        -0.08733785154031    5.74220476366081    0.09922342299829
C         0.11111280478430    5.37807403900374   -1.20115336758840
N         1.39839394906712   -0.50505604751355   -0.24891735729629
C         2.73006113954277   -0.17835414710052   -0.18737747310311
C         3.71661319822370   -1.25984195216660   -0.22175489708828
C         5.08737583964400   -1.13877793453728   -0.11721521201499
C         5.88740047911105    0.10571806087763   -0.02322543433959
C         5.59201922386699   -2.46340124954149   -0.12988778045560
C         4.51481523605739   -3.28461631336000   -0.23578491683974
O         3.37570582053478   -2.57867210720769   -0.29118640725844
O         3.07542338670975    0.98841767760527   -0.15015875647864
C         0.83074444938899   -1.78833429086555    0.06946623532909
C         1.23890761446008   -2.18192401764032    1.52642205324858
O         0.86177879099326   -3.39512831701148    1.91466421641607
O         1.84097559895340   -1.43350924586021    2.23615079103477
N        -0.59450579665634   -1.58557559295837   -0.04005246359822
C        -1.54191275169884   -2.38943990668835   -0.60619740617804
C        -1.22100332789785   -3.78755320333711   -0.92061961760423
C        -1.95624862613705   -4.66106412066124   -1.69169540495243
C        -3.24758124633471   -4.41893176037108   -2.37725026130854
C        -1.22517496382079   -5.87970168712384   -1.70057286034214
C        -0.11983703582871   -5.67731936327997   -0.94154257734228
O        -0.09412130657012   -4.41828177358015   -0.46338639037287
O        -2.65421458283630   -1.94925279602125   -0.84402225316449
H        -4.42856146311799    3.17125763475444    3.49698848876633
H        -4.61021839416439    4.64753551369679    1.53030741220708
H        -3.50905185835907    4.01131483324746   -0.58503106470432
H        -2.21701987483367    1.97263245268900   -0.74730418131286
H        -3.60027053000635    1.16472313736258    4.54948507878992
H        -2.27386430986453   -0.91637146080897    4.44589198468048
H        -1.07833036417368   -1.50986385642253    2.40448098628896
H        -1.49779774571680    0.08740999342944   -0.83136975962854
H         0.67483288547479    0.92032507390135    1.07904701489108
H         0.76807801831163    0.32339016726430   -2.54353190422838
H         0.79623489883946    2.05879646205188   -4.27886912893164
H         0.49806610457946    4.42959233525093   -3.65822601134781
H         0.11220983790151    2.72479875016564    1.59410442217242
H        -0.23723927174935    5.05813897522493    2.13124320352742
H        -0.24575006468320    6.77781859103608    0.36230276929076
H         0.11335168487337    6.12078156549485   -1.98667050314254
H         6.10937300459340    0.48090042705073   -1.02197097033902
H         5.31973960922002    0.87332165839738    0.49492803370532
H         6.82531415759532   -0.08577476247234    0.49223093195596
H         6.62003139557843   -2.75512217338526   -0.06305161664089
H         4.42781903254338   -4.35280975419499   -0.28070290320121
H         1.17739183521327   -2.55923582780639   -0.62874196465306
H         0.43699400596594   -3.90155969429684    1.19742108782260
H        -3.26271454388424   -4.91849030229024   -3.34339984132792
H        -3.41699613949189   -3.35344389210207   -2.49812630575226
H        -4.06158416256784   -4.81884802113232   -1.77337465281165
H        -1.50107676406535   -6.78080477463740   -2.20804904539976
H         0.69826331266350   -6.31435654943322   -0.66887045469419

          :  Hamiltonian                  GFN2-xTB          :
         :: total energy            -121.672238234725 Eh    ::
         :: gradient norm              0.000449343274 Eh/a0 ::
         :: HOMO-LUMO gap              2.502359133976 eV    ::
         :: SCC energy              -123.492293950879 Eh    ::
         :: -> dispersion             -0.105309848941 Eh    ::
         :: repulsion energy           1.817131451992 Eh    ::

    * Orbital Energies and Occupations

         #    Occupation            Energy/Eh            Energy/eV
      -------------------------------------------------------------
         1        2.0000           -0.7787994             -21.1922
       ...           ...                  ...                  ...
        97        2.0000           -0.4186861             -11.3930
        98        2.0000           -0.4171352             -11.3508
        99        2.0000           -0.4152926             -11.3007
       100        2.0000           -0.4136313             -11.2555
       101        2.0000           -0.4123728             -11.2212
       102        2.0000           -0.4020002             -10.9390
       103        2.0000           -0.3997463             -10.8777
       104        2.0000           -0.3991121             -10.8604
       105        2.0000           -0.3958383             -10.7713
       106        2.0000           -0.3947334             -10.7412
       107        2.0000           -0.3887100             -10.5773
       108        2.0000           -0.3755697             -10.2198
       109        2.0000           -0.3710500             -10.0968 (HOMO)
       110                         -0.2790900              -7.5944 (LUMO)
       111                         -0.2611546              -7.1064
       112                         -0.2592478              -7.0545
       113                         -0.2556803              -6.9574
       114                         -0.2510493              -6.8314
       115                         -0.2271816              -6.1819
       116                         -0.2235635              -6.0835
       117                         -0.2114021              -5.7525
       118                         -0.1901646              -5.1746
       119                         -0.1897689              -5.1639
       120                         -0.1854695              -5.0469
       ...                                ...                  ...
       204                          0.7015000              19.0888
      -------------------------------------------------------------
                  HL-Gap            0.0919600 Eh            2.5024 eV

     #   Z          covCN         q      C6AA      Î±(0)
     1   6 C        2.921    -0.034    28.852     8.808
     2   6 C        2.915    -0.029    28.713     8.787
     3   6 C        2.917    -0.028    28.692     8.784
     4   6 C        2.917    -0.032    28.808     8.802
     5   6 C        2.984     0.011    27.767     8.644
     6   6 C        2.988     0.016    27.648     8.625
     7   6 C        2.920    -0.036    28.887     8.814
     8   6 C        2.914    -0.029    28.713     8.787
     9   6 C        2.921    -0.031    28.765     8.795
    10   6 C        2.967     0.001    28.001     8.680
    11   6 C        3.833     0.044    19.819     6.334
    12   6 C        3.836     0.049    19.730     6.319
    13   6 C        2.968     0.011    27.777     8.645
    14   6 C        2.923    -0.032    28.798     8.800
    15   6 C        2.914    -0.030    28.740     8.791
    16   6 C        2.921    -0.036    28.892     8.814
    17   6 C        2.989     0.017    27.632     8.623
    18   6 C        2.983     0.016    27.651     8.626
    19   6 C        2.917    -0.030    28.737     8.791
    20   6 C        2.917    -0.028    28.701     8.785
    21   6 C        2.915    -0.029    28.722     8.788
    22   6 C        2.921    -0.034    28.855     8.809
    23   7 N        2.761    -0.124    23.682     7.228
    24   6 C        2.763     0.269    22.464     7.762
    25   6 C        3.099     0.069    26.344     8.411
    26   6 C        3.064     0.014    27.645     8.622
    27   6 C        3.754    -0.114    22.744     6.800
    28   6 C        3.008    -0.068    29.682     8.937
    29   6 C        3.047     0.078    26.209     8.396
    30   8 O        1.727    -0.213    17.529     5.653
    31   8 O        0.860    -0.422    22.133     6.308
    32   6 C        3.759     0.076    19.359     6.273
    33   6 C        2.685     0.353    21.004     7.500
    34   8 O        1.658    -0.366    20.209     6.069
    35   8 O        0.856    -0.353    20.762     6.109
    36   7 N        2.757    -0.120    23.601     7.215
    37   6 C        2.763     0.258    22.660     7.796
    38   6 C        3.081     0.063    26.500     8.439
    39   6 C        3.059     0.015    27.609     8.617
    40   6 C        3.754    -0.116    22.785     6.806
    41   6 C        3.006    -0.065    29.604     8.925
    42   6 C        3.028     0.076    26.280     8.409
    43   8 O        1.727    -0.224    17.715     5.683
    44   8 O        0.861    -0.430    22.290     6.330
    45   1 H        0.926     0.035     2.519     2.482
    46   1 H        0.926     0.033     2.542     2.493
    47   1 H        0.926     0.032     2.563     2.503
    48   1 H        0.926     0.030     2.587     2.515
    49   1 H        0.926     0.036     2.496     2.471
    50   1 H        0.926     0.037     2.487     2.466
    51   1 H        0.926     0.026     2.637     2.539
    52   1 H        0.924     0.072     2.059     2.244
    53   1 H        0.924     0.061     2.182     2.310
    54   1 H        0.926     0.027     2.626     2.534
    55   1 H        0.926     0.033     2.551     2.498
    56   1 H        0.926     0.035     2.520     2.483
    57   1 H        0.926     0.031     2.575     2.509
    58   1 H        0.926     0.032     2.561     2.503
    59   1 H        0.926     0.032     2.558     2.501
    60   1 H        0.926     0.033     2.539     2.492
    61   1 H        0.925     0.062     2.172     2.305
    62   1 H        0.925     0.082     1.957     2.187
    63   1 H        0.925     0.052     2.292     2.367
    64   1 H        0.926     0.049     2.327     2.385
    65   1 H        0.926     0.050     2.321     2.382
    66   1 H        0.924     0.074     2.043     2.235
    67   1 H        0.804     0.342     0.606     1.223
    68   1 H        0.925     0.056     2.249     2.345
    69   1 H        0.925     0.081     1.964     2.192
    70   1 H        0.925     0.068     2.109     2.271
    71   1 H        0.926     0.055     2.252     2.347
    72   1 H        0.926     0.058     2.217     2.328

Wiberg/Mayer (AO) data.
largest (>0.10) Wiberg bond orders for each atom

     #   Z sym  total        # sym  WBO       # sym  WBO       # sym  WBO
 ---------------------------------------------------------------------------
     1   6 C    3.991 --     2 C    1.556     6 C    1.280    45 H    0.968
                             4 C    0.119
     2   6 C    3.992 --     1 C    1.556     3 C    1.324    46 H    0.971
     3   6 C    3.992 --     4 C    1.553     2 C    1.324    47 H    0.971
     4   6 C    3.992 --     3 C    1.553     5 C    1.284    48 H    0.961
                             1 C    0.119
     5   6 C    3.989 --     4 C    1.284     6 C    1.254    10 C    1.248
     6   6 C    3.990 --     1 C    1.280     7 C    1.277     5 C    1.254
     7   6 C    3.990 --     8 C    1.557     6 C    1.277    49 H    0.968
                            10 C    0.114
     8   6 C    3.992 --     7 C    1.557     9 C    1.322    50 H    0.970
     9   6 C    3.991 --    10 C    1.530     8 C    1.322    51 H    0.965
    10   6 C    3.983 --     9 C    1.530     5 C    1.248    11 C    0.990
                             7 C    0.114
    11   6 C    3.957 --    10 C    0.990    36 N    0.956    12 C    0.949
                            52 H    0.943
    12   6 C    3.961 --    13 C    0.992    23 N    0.955    11 C    0.949
                            53 H    0.947
    13   6 C    3.984 --    14 C    1.520    18 C    1.253    12 C    0.992
                            16 C    0.115
    14   6 C    3.991 --    13 C    1.520    15 C    1.330    54 H    0.968
    15   6 C    3.992 --    16 C    1.550    14 C    1.330    55 H    0.971
    16   6 C    3.990 --    15 C    1.550    17 C    1.281    56 H    0.968
                            13 C    0.115
    17   6 C    3.990 --    16 C    1.281    22 C    1.279    18 C    1.252
    18   6 C    3.989 --    19 C    1.281    13 C    1.253    17 C    1.252
    19   6 C    3.992 --    20 C    1.556    18 C    1.281    57 H    0.961
                            22 C    0.119
    20   6 C    3.992 --    19 C    1.556    21 C    1.321    58 H    0.971
    21   6 C    3.992 --    22 C    1.558    20 C    1.321    59 H    0.971
    22   6 C    3.991 --    21 C    1.558    17 C    1.279    60 H    0.968
                            19 C    0.119
    23   7 N    3.420 --    24 C    1.163    32 C    0.995    12 C    0.955
                            31 O    0.171
    24   6 C    3.958 --    31 O    1.654    23 N    1.163    25 C    1.045
    25   6 C    3.894 --    26 C    1.490    30 O    1.074    24 C    1.045
                            29 C    0.136
    26   6 C    3.984 --    25 C    1.490    28 C    1.282    27 C    1.043
    27   6 C    3.992 --    26 C    1.043    63 H    0.980    62 H    0.968
                            61 H    0.959
    28   6 C    3.982 --    29 C    1.596    26 C    1.282    64 H    0.973
    29   6 C    3.908 --    28 C    1.596    30 O    1.136    65 H    0.966
                            25 C    0.136
    30   8 O    2.415 --    29 C    1.136    25 C    1.074
    31   8 O    2.008 --    24 C    1.654    23 N    0.171
    32   6 C    3.967 --    23 N    0.995    36 N    0.984    66 H    0.936
                            33 C    0.886
    33   6 C    3.921 --    35 O    1.804    34 O    1.160    32 C    0.886
    34   8 O    2.223 --    33 C    1.160    67 H    0.823    35 O    0.172
    35   8 O    2.094 --    33 C    1.804    34 O    0.172
    36   7 N    3.464 --    37 C    1.195    32 C    0.984    11 C    0.956
                            44 O    0.185
    37   6 C    3.960 --    44 O    1.636    36 N    1.195    38 C    1.036
    38   6 C    3.889 --    39 C    1.507    43 O    1.054    37 C    1.036
                            42 C    0.137
    39   6 C    3.982 --    38 C    1.507    41 C    1.268    40 C    1.044
    40   6 C    3.990 --    39 C    1.044    68 H    0.975    69 H    0.972
                            70 H    0.956
    41   6 C    3.983 --    42 C    1.617    39 C    1.268    71 H    0.972
    42   6 C    3.904 --    41 C    1.617    43 O    1.114    72 H    0.965
                            38 C    0.137
    43   8 O    2.417 --    42 C    1.114    38 C    1.054
    44   8 O    2.000 --    37 C    1.636    36 N    0.185
    45   1 H    0.998 --     1 C    0.968
    46   1 H    0.998 --     2 C    0.971
    47   1 H    0.999 --     3 C    0.971
    48   1 H    0.999 --     4 C    0.961
    49   1 H    0.998 --     7 C    0.968
    50   1 H    0.998 --     8 C    0.970
    51   1 H    0.999 --     9 C    0.965
    52   1 H    0.994 --    11 C    0.943
    53   1 H    0.995 --    12 C    0.947
    54   1 H    0.999 --    14 C    0.968
    55   1 H    0.998 --    15 C    0.971
    56   1 H    0.998 --    16 C    0.968
    57   1 H    0.999 --    19 C    0.961
    58   1 H    0.999 --    20 C    0.971
    59   1 H    0.998 --    21 C    0.971
    60   1 H    0.998 --    22 C    0.968
    61   1 H    0.996 --    27 C    0.959
    62   1 H    0.993 --    27 C    0.968
    63   1 H    0.997 --    27 C    0.980
    64   1 H    0.997 --    28 C    0.973
    65   1 H    0.997 --    29 C    0.966
    66   1 H    0.994 --    32 C    0.936
    67   1 H    0.883 --    34 O    0.823
    68   1 H    0.996 --    40 C    0.975
    69   1 H    0.993 --    40 C    0.972
    70   1 H    0.995 --    40 C    0.956
    71   1 H    0.996 --    41 C    0.972
    72   1 H    0.996 --    42 C    0.965
 ---------------------------------------------------------------------------

molecular dipole:
                 x           y           z       tot (Debye)
 q only:       -0.306      -1.308      -1.052
   full:       -0.137      -2.083      -1.239       6.171

           -------------------------------------------------
          | TOTAL ENERGY             -121.672238234725 Eh   |
          | GRADIENT NORM               0.000449343274 Eh/Î± |
          | HOMO-LUMO GAP               2.502359133976 eV   |
           -------------------------------------------------

 * finished run on 2022/03/16 at 21:40:31.001
