   * xtb version 6.3.3 (4ae9cef) compiled by 'conda@95abc7406d43' on 2020-10-14
          program call               : xtb acid_443.xyz --opt --chrg 0 --uhf 0 --gfn 2
          number of atoms            :                    74
          number of electrons        :                   230
          charge                     :                     0
          spin                       :                   0.0

   ID    Z sym.   atoms
    1    6 C      1, 3-16, 18, 20-28, 31, 32, 36-44
    2    8 O      2, 17, 30, 33, 34, 46
    3    7 N      19, 35
    4   16 S      29, 45
    5    1 H      47-74

          :  Hamiltonian                  GFN2-xTB          :
 * total energy  :  -128.1084089 Eh     change       -0.3948287E-08 Eh
 * total energy  :  -128.1272049 Eh     change       -0.1879599E-01 Eh
 * total energy  :  -128.1335383 Eh     change       -0.6333460E-02 Eh
 * total energy  :  -128.1357573 Eh     change       -0.2218997E-02 Eh
 * total energy  :  -128.1370265 Eh     change       -0.1269194E-02 Eh
 * total energy  :  -128.1377419 Eh     change       -0.7154007E-03 Eh
 * total energy  :  -128.1382579 Eh     change       -0.5160028E-03 Eh
 * total energy  :  -128.1387997 Eh     change       -0.5417834E-03 Eh
 * total energy  :  -128.1394873 Eh     change       -0.6875322E-03 Eh
 * total energy  :  -128.1403801 Eh     change       -0.8928692E-03 Eh
 * total energy  :  -128.1682485 Eh     change       -0.1726033E-04 Eh
 * total energy  :  -128.1682653 Eh     change       -0.1684408E-04 Eh
 * total energy  :  -128.1682811 Eh     change       -0.1580536E-04 Eh
 * total energy  :  -128.1682939 Eh     change       -0.1278258E-04 Eh
 * total energy  :  -128.1683035 Eh     change       -0.9631347E-05 Eh
 * total energy  :  -128.1683108 Eh     change       -0.7261307E-05 Eh
 * total energy  :  -128.1683167 Eh     change       -0.5958923E-05 Eh
 * total energy  :  -128.1683220 Eh     change       -0.5213194E-05 Eh
 * total energy  :  -128.1683264 Eh     change       -0.4477944E-05 Eh
   *** GEOMETRY OPTIMIZATION CONVERGED AFTER 106 ITERATIONS ***

 final structure:
================
74
 xtb: 6.3.3 (4ae9cef)
C        -3.10695534186530   -1.08692518996746   -0.13219788066768
O        -2.67608868194529   -2.11549898085420    0.65199027254890
C        -3.62520797355106   -3.03532470836984    1.13707390560565
C        -4.43515953161145   -0.86546817395432   -0.47656066768044
C        -4.77870425177965    0.21114355090273   -1.27624001827657
C        -3.80879576570177    1.07602223139514   -1.74696937329908
C        -2.48565778685760    0.86528896244005   -1.40201171448700
C        -2.12372588646693   -0.19867563767292   -0.59053603436357
C        -0.67882726451710   -0.39960788893711   -0.21201985082320
C         0.19139828990645   -0.71433705126544   -1.44792748035253
C         0.64265571696621   -2.15098106840154   -1.48661957950599
C         0.12136906252220   -3.01259230855883   -2.43532672560625
C         0.51468429454492   -4.33846406722821   -2.49050722802506
C         1.45115720733951   -4.80600324779285   -1.58959861845902
C         1.98550514830534   -3.96129751257992   -0.63132083785194
C         1.58330537318012   -2.63348060975447   -0.56466499459324
O         2.04197063120635   -1.73967176282362    0.36284647526631
C         3.04431118530619   -2.15284750565800    1.25936488457922
N         1.30873979288192    0.21436427228067   -1.35907444803266
C         2.22375317818279    0.25436520611893   -2.35897431769444
C         3.36180562028976    1.17318240093979   -2.11931710808225
C         4.28621219577743    1.10205130317914   -1.13121711817320
C         5.27937219801557    2.11726538741944   -1.22261877451045
C         6.36827367625501    2.36654280643928   -0.38501924149331
C         7.20178591696936    3.42654841484989   -0.65847167386353
C         6.97318063497586    4.25213705493455   -1.75985392304733
C         5.90552089101075    4.02767579963850   -2.60352439355392
C         5.06492392261408    2.95921810181721   -2.33028279497803
S         3.66640407812139    2.46864216324264   -3.24129169949367
O         2.11744913373029   -0.42810452905053   -3.35736965812687
C         1.22367825332106    1.08685244263347   -0.21765736672676
C         1.34945305894444    2.57989233264198   -0.59614690598892
O         0.40394808007208    2.92939121429981   -1.47111692963537
O         2.24990326087204    3.29034293169349   -0.25494795403122
N        -0.08374101801240    0.80929367365329    0.33159535011744
C        -0.67702680274443    1.75761541242580    1.08633725866204
C        -1.95282892421351    1.36511121962289    1.71924149519470
C        -2.17736886846808    0.30208917617121    2.53111837696691
C        -3.52271392668422    0.23025824667084    2.98744872677258
C        -4.30222929273574    1.29171908560040    2.48613592057162
C        -5.65455983567961    1.39608463283089    2.77744913875178
C        -6.23010934028561    0.43142756096405    3.57773719548720
C        -5.47042947317720   -0.62175586982683    4.08962680851313
C        -4.12795292284798   -0.72773648803518    3.80473797228209
S        -3.35528640445499    2.37295662777179    1.50703703431659
O        -0.15663600331497    2.84917434034396    1.24603574331074
H        -4.36391368140496   -2.54640893328780    1.78045064027494
H        -3.05792604160645   -3.75803682722118    1.72155977822928
H        -4.13367802962872   -3.55470352036186    0.31924994379787
H        -5.21162122702164   -1.52273792252927   -0.11965201018495
H        -5.81642175437188    0.36955595687184   -1.52775271478202
H        -4.07889734490090    1.91334105575310   -2.37054626743655
H        -1.72100309241323    1.54692327978875   -1.74526638048877
H        -0.59929476434660   -1.21650875540544    0.51284253802796
H        -0.36105193733228   -0.50456228285934   -2.37277281939007
H        -0.59686458954479   -2.63255950667578   -3.14585791762128
H         0.10015595418809   -4.99611162360679   -3.23846886385437
H         1.77730627197651   -5.83471527250784   -1.62624171956189
H         2.71749078395003   -4.34979904133000    0.05890160653788
H         3.95280019210007   -2.46234843504594    0.73275323378287
H         3.26411505472202   -1.28357875301342    1.87881835715024
H         2.70075526027007   -2.96996419271200    1.90198804658844
H         4.27513038917500    0.35074870609950   -0.36162207034995
H         6.54144472001923    1.72933981344165    0.46932444573116
H         8.04446434983245    3.62748270975729   -0.01364513196951
H         7.64101973744157    5.07819464703127   -1.95271804567550
H         5.72218538232166    4.66276091653376   -3.45611360962359
H         2.00568651330295    0.87137229277880    0.52897500410418
H         0.48785462965350    3.87059724058739   -1.69178054490431
H        -1.42235662077628   -0.41553344756890    2.79711864151610
H        -6.23450140727615    2.21570146498428    2.38370492047594
H        -7.28119395393042    0.49237229914563    3.81586536467348
H        -5.94631646693536   -1.36012376496044    4.71793055541314
H        -3.53612183191368   -1.53858105586137    4.20288477204246

          :  Hamiltonian                  GFN2-xTB          :
         :: total energy            -128.168326432404 Eh    ::
         :: gradient norm              0.000394189824 Eh/a0 ::
         :: HOMO-LUMO gap              2.671051756444 eV    ::
         :: SCC energy              -130.007618896529 Eh    ::
         :: -> dispersion             -0.117454875960 Eh    ::
         :: repulsion energy           1.835582731824 Eh    ::

    * Orbital Energies and Occupations

         #    Occupation            Energy/Eh            Energy/eV
      -------------------------------------------------------------
         1        2.0000           -0.7508260             -20.4310
       ...           ...                  ...                  ...
       103        2.0000           -0.4211650             -11.4605
       104        2.0000           -0.4206538             -11.4466
       105        2.0000           -0.4148667             -11.2891
       106        2.0000           -0.4084736             -11.1151
       107        2.0000           -0.4070533             -11.0765
       108        2.0000           -0.4019637             -10.9380
       109        2.0000           -0.3986752             -10.8485
       110        2.0000           -0.3950307             -10.7493
       111        2.0000           -0.3917080             -10.6589
       112        2.0000           -0.3883768             -10.5683
       113        2.0000           -0.3866466             -10.5212
       114        2.0000           -0.3854568             -10.4888
       115        2.0000           -0.3726819             -10.1412 (HOMO)
       116                         -0.2745225              -7.4701 (LUMO)
       117                         -0.2592244              -7.0539
       118                         -0.2446366              -6.6569
       119                         -0.2393213              -6.5123
       120                         -0.2368288              -6.4444
       121                         -0.2323861              -6.3235
       122                         -0.2278225              -6.1994
       123                         -0.2259486              -6.1484
       124                         -0.2236491              -6.0858
       125                         -0.2216136              -6.0304
       126                         -0.2159076              -5.8751
       ...                                ...                  ...
       222                          0.7132206              19.4077
      -------------------------------------------------------------
                  HL-Gap            0.0981593 Eh            2.6711 eV

     #   Z          covCN         q      C6AA      Î±(0)
     1   6 C        2.867     0.138    24.992     8.195
     2   8 O        1.705    -0.276    18.577     5.819
     3   6 C        3.644     0.037    20.289     6.475
     4   6 C        2.917    -0.065    29.624     8.925
     5   6 C        2.921    -0.030    28.740     8.791
     6   6 C        2.917    -0.038    28.936     8.821
     7   6 C        2.924    -0.036    28.885     8.814
     8   6 C        2.973    -0.025    28.626     8.776
     9   6 C        3.815     0.039    19.906     6.350
    10   6 C        3.826     0.051    19.699     6.316
    11   6 C        2.972    -0.012    28.306     8.727
    12   6 C        2.925    -0.027    28.681     8.783
    13   6 C        2.917    -0.037    28.925     8.819
    14   6 C        2.921    -0.030    28.751     8.793
    15   6 C        2.918    -0.065    29.617     8.924
    16   6 C        2.867     0.141    24.934     8.185
    17   8 O        1.705    -0.280    18.649     5.831
    18   6 C        3.643     0.042    20.211     6.463
    19   7 N        2.765    -0.104    23.270     7.164
    20   6 C        2.787     0.271    22.421     7.756
    21   6 C        2.991    -0.009    28.242     8.717
    22   6 C        3.071    -0.047    29.081     8.842
    23   6 C        3.143     0.009    27.562     8.590
    24   6 C        2.916    -0.030    28.760     8.794
    25   6 C        2.918    -0.032    28.807     8.801
    26   6 C        2.924    -0.030    28.746     8.792
    27   6 C        2.933    -0.035    28.883     8.814
    28   6 C        3.010     0.038    27.143     8.546
    29  16 S        2.275    -0.024   142.052    20.060
    30   8 O        0.859    -0.421    22.096     6.302
    31   6 C        3.760     0.097    19.031     6.219
    32   6 C        2.687     0.370    20.733     7.452
    33   8 O        1.659    -0.368    20.235     6.073
    34   8 O        0.856    -0.385    21.392     6.201
    35   7 N        2.769    -0.100    23.207     7.155
    36   6 C        2.794     0.273    22.394     7.752
    37   6 C        2.992    -0.001    28.053     8.688
    38   6 C        3.067    -0.048    29.111     8.847
    39   6 C        3.142     0.004    27.677     8.609
    40   6 C        3.009     0.030    27.313     8.573
    41   6 C        2.933    -0.037    28.911     8.818
    42   6 C        2.923    -0.031    28.783     8.798
    43   6 C        2.918    -0.036    28.895     8.815
    44   6 C        2.915    -0.034    28.855     8.809
    45  16 S        2.271    -0.010   141.488    20.020
    46   8 O        0.860    -0.424    22.160     6.311
    47   1 H        0.924     0.044     2.391     2.418
    48   1 H        0.925     0.063     2.165     2.301
    49   1 H        0.924     0.044     2.390     2.418
    50   1 H        0.926     0.040     2.448     2.447
    51   1 H        0.926     0.042     2.423     2.434
    52   1 H        0.926     0.045     2.385     2.415
    53   1 H        0.926     0.054     2.267     2.355
    54   1 H        0.924     0.071     2.074     2.252
    55   1 H        0.924     0.067     2.116     2.275
    56   1 H        0.926     0.045     2.378     2.411
    57   1 H        0.926     0.042     2.418     2.432
    58   1 H        0.926     0.040     2.445     2.445
    59   1 H        0.926     0.040     2.451     2.448
    60   1 H        0.924     0.042     2.419     2.432
    61   1 H        0.925     0.058     2.223     2.332
    62   1 H        0.924     0.041     2.439     2.442
    63   1 H        0.926     0.037     2.486     2.466
    64   1 H        0.926     0.037     2.493     2.469
    65   1 H        0.926     0.036     2.503     2.474
    66   1 H        0.926     0.038     2.471     2.458
    67   1 H        0.926     0.043     2.412     2.429
    68   1 H        0.923     0.069     2.092     2.262
    69   1 H        0.804     0.343     0.604     1.221
    70   1 H        0.926     0.046     2.375     2.410
    71   1 H        0.926     0.045     2.385     2.415
    72   1 H        0.926     0.040     2.446     2.446
    73   1 H        0.926     0.036     2.501     2.473
    74   1 H        0.926     0.039     2.467     2.456

Wiberg/Mayer (AO) data.
largest (>0.10) Wiberg bond orders for each atom

     #   Z sym  total        # sym  WBO       # sym  WBO       # sym  WBO
 ---------------------------------------------------------------------------
     1   6 C    3.934 --     4 C    1.379     8 C    1.327     2 O    1.059
     2   8 O    2.230 --     1 C    1.059     3 C    0.981
     3   6 C    3.942 --     2 O    0.981    48 H    0.979    49 H    0.976
                            47 H    0.973
     4   6 C    3.987 --     5 C    1.437     1 C    1.379    50 H    0.965
                             7 C    0.103
     5   6 C    3.990 --     6 C    1.440     4 C    1.437    51 H    0.971
                             8 C    0.106
     6   6 C    3.991 --     5 C    1.440     7 C    1.430    52 H    0.970
     7   6 C    3.988 --     8 C    1.431     6 C    1.430    53 H    0.964
                             4 C    0.103
     8   6 C    3.982 --     7 C    1.431     1 C    1.327     9 C    0.992
                             5 C    0.106
     9   6 C    3.962 --     8 C    0.992    35 N    0.958    10 C    0.952
                            54 H    0.950
    10   6 C    3.964 --    11 C    0.991    19 N    0.957     9 C    0.952
                            55 H    0.952
    11   6 C    3.982 --    12 C    1.437    16 C    1.327    10 C    0.991
                            14 C    0.107
    12   6 C    3.988 --    11 C    1.437    13 C    1.426    56 H    0.967
                            15 C    0.103
    13   6 C    3.991 --    14 C    1.445    12 C    1.426    57 H    0.970
    14   6 C    3.990 --    13 C    1.445    15 C    1.433    58 H    0.971
                            11 C    0.107
    15   6 C    3.987 --    14 C    1.433    16 C    1.385    59 H    0.965
                            12 C    0.103
    16   6 C    3.934 --    15 C    1.385    11 C    1.327    17 O    1.051
    17   8 O    2.220 --    16 C    1.051    18 C    0.985
    18   6 C    3.946 --    17 O    0.985    61 H    0.979    60 H    0.977
                            62 H    0.976
    19   7 N    3.474 --    20 C    1.211    31 C    0.986    10 C    0.957
                            30 O    0.194
    20   6 C    3.952 --    30 O    1.677    19 N    1.211    21 C    0.982
    21   6 C    3.956 --    22 C    1.631    29 S    1.120    20 C    0.982
    22   6 C    3.986 --    21 C    1.631    23 C    1.197    63 H    0.962
                            29 S    0.101
    23   6 C    3.988 --    24 C    1.327    28 C    1.285    22 C    1.197
    24   6 C    3.988 --    25 C    1.500    23 C    1.327    64 H    0.968
                            27 C    0.111
    25   6 C    3.991 --    24 C    1.500    26 C    1.380    65 H    0.971
    26   6 C    3.988 --    27 C    1.476    25 C    1.380    66 H    0.970
    27   6 C    3.990 --    26 C    1.476    28 C    1.377    67 H    0.968
                            24 C    0.111
    28   6 C    3.956 --    27 C    1.377    23 C    1.285    29 S    1.110
    29  16 S    2.552 --    21 C    1.120    28 C    1.110    22 C    0.101
    30   8 O    2.016 --    20 C    1.677    19 N    0.194
    31   6 C    3.963 --    19 N    0.986    35 N    0.977    68 H    0.940
                            32 C    0.908
    32   6 C    3.926 --    34 O    1.774    33 O    1.138    31 C    0.908
    33   8 O    2.202 --    32 C    1.138    69 H    0.857    34 O    0.171
    34   8 O    2.064 --    32 C    1.774    33 O    0.171
    35   7 N    3.484 --    36 C    1.234    31 C    0.977     9 C    0.958
                            46 O    0.191
    36   6 C    3.950 --    46 O    1.637    35 N    1.234    37 C    0.993
    37   6 C    3.957 --    38 C    1.620    45 S    1.122    36 C    0.993
    38   6 C    3.986 --    37 C    1.620    39 C    1.201    70 H    0.962
                            45 S    0.100
    39   6 C    3.988 --    44 C    1.325    40 C    1.281    38 C    1.201
    40   6 C    3.956 --    41 C    1.376    39 C    1.281    45 S    1.117
    41   6 C    3.990 --    42 C    1.477    40 C    1.376    71 H    0.968
                            44 C    0.110
    42   6 C    3.987 --    41 C    1.477    43 C    1.379    72 H    0.970
    43   6 C    3.991 --    44 C    1.499    42 C    1.379    73 H    0.971
    44   6 C    3.987 --    43 C    1.499    39 C    1.325    74 H    0.968
                            41 C    0.110
    45  16 S    2.562 --    37 C    1.122    40 C    1.117    38 C    0.100
    46   8 O    2.045 --    36 C    1.637    35 N    0.191
    47   1 H    0.998 --     3 C    0.973
    48   1 H    0.996 --     3 C    0.979
    49   1 H    0.998 --     3 C    0.976
    50   1 H    0.998 --     4 C    0.965
    51   1 H    0.998 --     5 C    0.971
    52   1 H    0.998 --     6 C    0.970
    53   1 H    0.996 --     7 C    0.964
    54   1 H    0.994 --     9 C    0.950
    55   1 H    0.995 --    10 C    0.952
    56   1 H    0.997 --    12 C    0.967
    57   1 H    0.998 --    13 C    0.970
    58   1 H    0.998 --    14 C    0.971
    59   1 H    0.998 --    15 C    0.965
    60   1 H    0.998 --    18 C    0.977
    61   1 H    0.996 --    18 C    0.979
    62   1 H    0.998 --    18 C    0.976
    63   1 H    0.998 --    22 C    0.962
    64   1 H    0.999 --    24 C    0.968
    65   1 H    0.998 --    25 C    0.971
    66   1 H    0.998 --    26 C    0.970
    67   1 H    0.998 --    27 C    0.968
    68   1 H    0.994 --    31 C    0.940
    69   1 H    0.882 --    33 O    0.857
    70   1 H    0.998 --    38 C    0.962
    71   1 H    0.998 --    41 C    0.968
    72   1 H    0.998 --    42 C    0.970
    73   1 H    0.998 --    43 C    0.971
    74   1 H    0.998 --    44 C    0.968
 ---------------------------------------------------------------------------

molecular dipole:
                 x           y           z       tot (Debye)
 q only:       -1.639      -1.779       0.892
   full:       -1.498      -2.167       1.420       7.607

           -------------------------------------------------
          | TOTAL ENERGY             -128.168326432404 Eh   |
          | GRADIENT NORM               0.000394189824 Eh/Î± |
          | HOMO-LUMO GAP               2.671051756444 eV   |
           -------------------------------------------------

 * finished run on 2022/03/17 at 01:17:42.163
