   * xtb version 6.3.3 (4ae9cef) compiled by 'conda@95abc7406d43' on 2020-10-14
          program call               : xtb acid_217.xyz --opt --chrg 0 --uhf 0 --gfn 2
          number of atoms            :                    78
          number of electrons        :                   266
          charge                     :                     0
          spin                       :                   0.0

   ID    Z sym.   atoms
    1    6 C      1-22, 24-27, 32-34, 36, 37, 41-44, 49-51
    2    7 N      23, 40
    3    9 F      28-30, 45-47
    4    8 O      31, 35, 38, 39, 48, 52
    5    1 H      53-78

          :  Hamiltonian                  GFN2-xTB          :
 * total energy  :  -153.3417081 Eh     change       -0.4962743E-08 Eh
 * total energy  :  -153.3584947 Eh     change       -0.1678660E-01 Eh
 * total energy  :  -153.3638857 Eh     change       -0.5391000E-02 Eh
 * total energy  :  -153.3654591 Eh     change       -0.1573450E-02 Eh
 * total energy  :  -153.3667236 Eh     change       -0.1264486E-02 Eh
 * total energy  :  -153.3674098 Eh     change       -0.6861834E-03 Eh
 * total energy  :  -153.3679164 Eh     change       -0.5066347E-03 Eh
 * total energy  :  -153.3683541 Eh     change       -0.4376793E-03 Eh
 * total energy  :  -153.3687227 Eh     change       -0.3685360E-03 Eh
 * total energy  :  -153.3690729 Eh     change       -0.3502678E-03 Eh
 * total energy  :  -153.3728490 Eh     change       -0.6921941E-04 Eh
 * total energy  :  -153.3728682 Eh     change       -0.1916871E-04 Eh
 * total energy  :  -153.3729029 Eh     change       -0.3470866E-04 Eh
 * total energy  :  -153.3729188 Eh     change       -0.1595991E-04 Eh
 * total energy  :  -153.3729284 Eh     change       -0.9542302E-05 Eh
 * total energy  :  -153.3729274 Eh     change        0.1003523E-05 Eh
 * total energy  :  -153.3729370 Eh     change       -0.9649912E-05 Eh
 * total energy  :  -153.3729425 Eh     change       -0.5453274E-05 Eh
 * total energy  :  -153.3729464 Eh     change       -0.3866848E-05 Eh
   *** GEOMETRY OPTIMIZATION CONVERGED AFTER 55 ITERATIONS ***

 final structure:
================
78
 xtb: 6.3.3 (4ae9cef)
C        -1.68570252838680   -1.03528685537552   -1.42287646745401
C        -2.75139671728582   -1.84112638563844   -1.70374264458299
C        -3.59533199422145   -2.31491128867246   -0.67692942573037
C        -4.73159888454173   -3.10617903826901   -0.94212396499459
C        -5.53180388277390   -3.54052081112081    0.07734491049794
C        -5.22970993659691   -3.20918297787825    1.40788699406355
C        -4.13432724613801   -2.44493229097648    1.69764264590374
C        -3.29368041853387   -1.97462552228181    0.66738781847850
C        -2.18269536933423   -1.14896099876372    0.92892831906646
C        -1.40920338277353   -0.66271279217156   -0.09163562405295
C        -0.27270253273997    0.27752573490048    0.19877116354911
C         1.10324844390739   -0.35097204497261   -0.11785182702926
C         1.68118197157754   -1.02768066608595    1.09276116587865
C         1.68576690208410   -2.39291923401984    1.18690925079033
C         2.17388251950720   -3.03974376813007    2.33996975227185
C         2.18747785014574   -4.44497503669477    2.45967091290395
C         2.67528759485734   -5.04433820249370    3.58699267211766
C         3.17119639275452   -4.26739572311920    4.64576096974502
C         3.16868285616887   -2.90303360780252    4.56097700153516
C         2.67113189540072   -2.25455005161047    3.41227907996604
C         2.64937177240144   -0.84918347712308    3.29105741225883
C         2.15880359091011   -0.25159834284927    2.16712137188828
N         1.88473213870782    0.79450730919491   -0.56752264341136
C         3.23548408411235    0.75163200062473   -0.68996629513882
C         3.83214929714962    2.01325391824869   -1.22131102615519
C         4.40592476772832    2.20827567410378   -2.44737130242346
C         4.49226972906336    1.30726155708336   -3.62933475794283
F         4.00247545317251    1.89016079060781   -4.74357124640653
F         5.74431387438526    0.93540079127283   -3.92700722296539
F         3.77913962531647    0.19127408103710   -3.44613335458147
O         4.89650985033566    3.46003868614290   -2.55330392087337
C         4.65579434950161    4.08425207651968   -1.38715919810406
C         5.10779187537808    5.48832239686646   -1.22970953062359
C         4.00377390835271    3.24276330741568   -0.53133973849246
O         3.91083318596614   -0.19191622811336   -0.35288253402704
C         1.02313294286830    1.78254850545850   -1.16338049257863
C         0.96983441553822    1.64133333517499   -2.70415447715691
O         1.57303906821787    2.65196095677331   -3.30978580139858
O         0.48752857933194    0.69510693387997   -3.25581482577165
N        -0.28515457569462    1.48041868196400   -0.62058745439094
C        -1.34093235978272    2.14594597066474   -1.14453573968245
C        -2.66489299020403    1.81541683176438   -0.56478516589210
C        -3.80208627871484    1.47908454317435   -1.24980758015669
C        -4.06030519596740    1.28621634473101   -2.70595375896162
F        -2.94335653049197    1.06318905987076   -3.39749934115999
F        -4.66433197928408    2.34698879063936   -3.26893736384223
F        -4.87172382555536    0.23795933156200   -2.93023399562606
O        -4.82545937998562    1.26985910845563   -0.39932875806766
C        -4.36649968530069    1.48881042158346    0.84606815115534
C        -5.29941759992792    1.30000655794214    1.98360746014596
C        -3.04656712102187    1.83160585951710    0.80370912419063
O        -1.18262987632532    2.99743113054963   -1.99736570637576
H        -1.06585197158158   -0.65602759103684   -2.22144224835375
H        -2.97183868861155   -2.11351696663151   -2.72492058542964
H        -4.96013537463073   -3.35562306857404   -1.96761909946059
H        -6.40329237233170   -4.14277864519716   -0.13204854814936
H        -5.87218940532930   -3.56354730118184    2.20072430071959
H        -3.89562536617718   -2.18578216344023    2.71969447428825
H        -1.96287176040082   -0.88484368368868    1.95423029212380
H        -0.29684645123539    0.56741924867091    1.25931434782882
H         1.00566868071966   -1.07135403113213   -0.94017092398528
H         1.31677701250813   -2.99538302408040    0.36927638256243
H         1.80701782239604   -5.03831831404110    1.64082042729873
H         2.68487722654679   -6.12115589038387    3.67154841034137
H         3.55571095951457   -4.75835261904498    5.52776691108882
H         3.55043301194240   -2.30102383307186    5.37340691599442
H         3.02997390894119   -0.25170336069103    4.10729622084035
H         2.14927986462754    0.82604493514112    2.08262672590967
H         4.73326155699771    6.09553932180241   -2.05163942460609
H         4.74609068994014    5.88962973247856   -0.28830197868267
H         6.19589241787889    5.53802630076263   -1.24488552879735
H         3.69363009949447    3.45561307068649    0.47065394819719
H         1.32849094951262    2.80942830378829   -0.91929915738151
H         1.50232533881492    2.57467830057116   -4.27690475376207
H        -6.20651592281795    1.88052843646153    1.82866621181223
H        -4.82332848732660    1.61065718447876    2.90791661629477
H        -5.58061105935848    0.24989189976639    2.05834710228875
H        -2.41957332325523    2.08015441409479    1.63403997067070

          :  Hamiltonian                  GFN2-xTB          :
         :: total energy            -153.372946359118 Eh    ::
         :: gradient norm              0.000686259352 Eh/a0 ::
         :: HOMO-LUMO gap              2.957854848128 eV    ::
         :: SCC energy              -155.262882067157 Eh    ::
         :: -> dispersion             -0.115596426496 Eh    ::
         :: repulsion energy           1.886623905624 Eh    ::

    * Orbital Energies and Occupations

         #    Occupation            Energy/Eh            Energy/eV
      -------------------------------------------------------------
         1        2.0000           -0.8852901             -24.0900
       ...           ...                  ...                  ...
       121        2.0000           -0.4286121             -11.6631
       122        2.0000           -0.4265108             -11.6060
       123        2.0000           -0.4258670             -11.5884
       124        2.0000           -0.4248252             -11.5601
       125        2.0000           -0.4238005             -11.5322
       126        2.0000           -0.4216172             -11.4728
       127        2.0000           -0.4193508             -11.4111
       128        2.0000           -0.4178049             -11.3690
       129        2.0000           -0.4116982             -11.2029
       130        2.0000           -0.4058482             -11.0437
       131        2.0000           -0.4021154             -10.9421
       132        2.0000           -0.3908905             -10.6367
       133        2.0000           -0.3843527             -10.4588 (HOMO)
       134                         -0.2756535              -7.5009 (LUMO)
       135                         -0.2688987              -7.3171
       136                         -0.2658885              -7.2352
       137                         -0.2603879              -7.0855
       138                         -0.2578487              -7.0164
       139                         -0.2444360              -6.6514
       140                         -0.2371779              -6.4539
       141                         -0.2351800              -6.3996
       142                         -0.2314715              -6.2987
       143                         -0.2032203              -5.5299
       144                         -0.1994003              -5.4260
       ...                                ...                  ...
       234                          0.6912940              18.8111
      -------------------------------------------------------------
                  HL-Gap            0.1086992 Eh            2.9579 eV

     #   Z          covCN         q      C6AA      Î±(0)
     1   6 C        2.918    -0.045    29.129     8.850
     2   6 C        2.918    -0.033    28.823     8.804
     3   6 C        2.987     0.014    27.686     8.631
     4   6 C        2.918    -0.031    28.767     8.795
     5   6 C        2.916    -0.028    28.700     8.785
     6   6 C        2.916    -0.029    28.734     8.790
     7   6 C        2.918    -0.038    28.941     8.822
     8   6 C        2.987     0.012    27.744     8.640
     9   6 C        2.922    -0.046    29.150     8.854
    10   6 C        2.970    -0.006    28.167     8.705
    11   6 C        3.821     0.037    19.930     6.353
    12   6 C        3.831     0.046    19.786     6.329
    13   6 C        2.970     0.012    27.743     8.640
    14   6 C        2.923    -0.036    28.891     8.815
    15   6 C        2.987     0.018    27.594     8.617
    16   6 C        2.918    -0.033    28.815     8.803
    17   6 C        2.916    -0.028    28.703     8.785
    18   6 C        2.916    -0.029    28.716     8.787
    19   6 C        2.918    -0.034    28.840     8.806
    20   6 C        2.988     0.015    27.668     8.628
    21   6 C        2.917    -0.033    28.814     8.802
    22   6 C        2.919    -0.030    28.759     8.794
    23   7 N        2.767    -0.108    23.366     7.179
    24   6 C        2.756     0.277    22.317     7.736
    25   6 C        3.061    -0.040    28.927     8.820
    26   6 C        3.125     0.074    26.160     8.375
    27   6 C        3.330     0.489    17.324     6.605
    28   9 F        0.791    -0.204    11.277     3.967
    29   9 F        0.791    -0.190    11.133     3.941
    30   9 F        0.792    -0.196    11.199     3.953
    31   8 O        1.730    -0.164    16.765     5.528
    32   6 C        3.098     0.134    24.956     8.187
    33   6 C        3.753    -0.125    22.952     6.832
    34   6 C        3.026    -0.075    29.850     8.962
    35   8 O        0.859    -0.394    21.568     6.227
    36   6 C        3.773     0.090    19.118     6.230
    37   6 C        2.688     0.362    20.860     7.475
    38   8 O        1.659    -0.362    20.118     6.055
    39   8 O        0.856    -0.375    21.184     6.171
    40   7 N        2.767    -0.104    23.288     7.167
    41   6 C        2.766     0.276    22.336     7.740
    42   6 C        3.060    -0.033    28.751     8.793
    43   6 C        3.121     0.080    26.054     8.359
    44   6 C        3.330     0.489    17.322     6.605
    45   9 F        0.792    -0.187    11.100     3.936
    46   9 F        0.791    -0.194    11.171     3.948
    47   9 F        0.792    -0.198    11.209     3.955
    48   8 O        1.730    -0.165    16.793     5.533
    49   6 C        3.096     0.132    25.001     8.195
    50   6 C        3.753    -0.124    22.936     6.829
    51   6 C        3.024    -0.076    29.857     8.963
    52   8 O        0.860    -0.422    22.133     6.308
    53   1 H        0.926     0.067     2.122     2.278
    54   1 H        0.926     0.050     2.315     2.379
    55   1 H        0.926     0.043     2.409     2.427
    56   1 H        0.926     0.037     2.492     2.468
    57   1 H        0.926     0.033     2.539     2.492
    58   1 H        0.926     0.030     2.580     2.512
    59   1 H        0.925     0.029     2.596     2.520
    60   1 H        0.923     0.051     2.302     2.373
    61   1 H        0.924     0.066     2.126     2.280
    62   1 H        0.926     0.039     2.466     2.456
    63   1 H        0.926     0.036     2.498     2.472
    64   1 H        0.926     0.034     2.526     2.485
    65   1 H        0.926     0.034     2.537     2.491
    66   1 H        0.926     0.034     2.532     2.488
    67   1 H        0.926     0.037     2.484     2.465
    68   1 H        0.926     0.027     2.631     2.537
    69   1 H        0.925     0.081     1.971     2.195
    70   1 H        0.925     0.070     2.089     2.260
    71   1 H        0.925     0.080     1.979     2.200
    72   1 H        0.927     0.058     2.227     2.334
    73   1 H        0.923     0.077     2.010     2.217
    74   1 H        0.804     0.356     0.575     1.191
    75   1 H        0.925     0.080     1.976     2.198
    76   1 H        0.925     0.069     2.093     2.262
    77   1 H        0.925     0.079     1.987     2.204
    78   1 H        0.927     0.057     2.229     2.335

Wiberg/Mayer (AO) data.
largest (>0.10) Wiberg bond orders for each atom

     #   Z sym  total        # sym  WBO       # sym  WBO       # sym  WBO
 ---------------------------------------------------------------------------
     1   6 C    3.988 --     2 C    1.565    10 C    1.292    53 H    0.959
     2   6 C    3.990 --     1 C    1.565     3 C    1.275    54 H    0.967
                             9 C    0.113
     3   6 C    3.990 --     4 C    1.282     2 C    1.275     8 C    1.251
     4   6 C    3.991 --     5 C    1.556     3 C    1.282    55 H    0.968
                             7 C    0.118
     5   6 C    3.989 --     4 C    1.556     6 C    1.321    56 H    0.971
     6   6 C    3.992 --     7 C    1.557     5 C    1.321    57 H    0.971
     7   6 C    3.989 --     6 C    1.557     8 C    1.278    58 H    0.968
                             4 C    0.118
     8   6 C    3.990 --     9 C    1.282     7 C    1.278     3 C    1.251
     9   6 C    3.989 --    10 C    1.524     8 C    1.282    59 H    0.965
                             2 C    0.113
    10   6 C    3.984 --     9 C    1.524     1 C    1.292    11 C    0.992
    11   6 C    3.958 --    10 C    0.992    40 N    0.955    60 H    0.952
                            12 C    0.949
    12   6 C    3.955 --    13 C    0.993    23 N    0.952    61 H    0.951
                            11 C    0.949
    13   6 C    3.983 --    14 C    1.528    22 C    1.290    12 C    0.993
    14   6 C    3.989 --    13 C    1.528    15 C    1.280    62 H    0.965
                            21 C    0.113
    15   6 C    3.990 --    14 C    1.280    16 C    1.279    20 C    1.252
    16   6 C    3.989 --    17 C    1.557    15 C    1.279    63 H    0.968
                            19 C    0.118
    17   6 C    3.992 --    16 C    1.557    18 C    1.322    64 H    0.971
    18   6 C    3.990 --    19 C    1.555    17 C    1.322    65 H    0.971
    19   6 C    3.992 --    18 C    1.555    20 C    1.283    66 H    0.968
                            16 C    0.118
    20   6 C    3.990 --    19 C    1.283    21 C    1.274    15 C    1.252
    21   6 C    3.992 --    22 C    1.567    20 C    1.274    67 H    0.968
                            14 C    0.113
    22   6 C    3.991 --    21 C    1.567    13 C    1.290    68 H    0.968
    23   7 N    3.468 --    24 C    1.210    36 C    0.987    12 C    0.952
                            35 O    0.197
    24   6 C    3.955 --    35 O    1.708    23 N    1.210    25 C    0.958
    25   6 C    3.979 --    26 C    1.535    34 C    1.266    24 C    0.958
    26   6 C    3.897 --    25 C    1.535    31 O    1.114    27 C    0.960
                            32 C    0.133
    27   6 C    3.846 --    26 C    0.960    30 F    0.957    29 F    0.953
                            28 F    0.938
    28   9 F    1.070 --    27 C    0.938
    29   9 F    1.087 --    27 C    0.953
    30   9 F    1.081 --    27 C    0.957
    31   8 O    2.454 --    32 C    1.129    26 C    1.114
    32   6 C    3.907 --    34 C    1.561    31 O    1.129    33 C    1.033
                            26 C    0.133
    33   6 C    3.987 --    32 C    1.033    70 H    0.981    69 H    0.966
                            71 H    0.962
    34   6 C    3.975 --    32 C    1.561    25 C    1.266    72 H    0.973
    35   8 O    2.049 --    24 C    1.708    23 N    0.197
    36   6 C    3.964 --    23 N    0.987    40 N    0.978    73 H    0.946
                            37 C    0.900
    37   6 C    3.923 --    39 O    1.782    38 O    1.166    36 C    0.900
    38   8 O    2.225 --    37 C    1.166    74 H    0.846    39 O    0.183
    39   8 O    2.077 --    37 C    1.782    38 O    0.183
    40   7 N    3.473 --    41 C    1.224    36 C    0.978    11 C    0.955
                            52 O    0.195
    41   6 C    3.954 --    52 O    1.667    40 N    1.224    42 C    0.981
    42   6 C    3.980 --    43 C    1.527    51 C    1.261    41 C    0.981
    43   6 C    3.901 --    42 C    1.527    48 O    1.120    44 C    0.958
                            49 C    0.131
    44   6 C    3.851 --    45 F    0.964    43 C    0.958    47 F    0.947
                            46 F    0.946
    45   9 F    1.090 --    44 C    0.964
    46   9 F    1.081 --    44 C    0.946
    47   9 F    1.076 --    44 C    0.947
    48   8 O    2.454 --    49 C    1.124    43 C    1.120
    49   6 C    3.906 --    51 C    1.568    48 O    1.124    50 C    1.033
                            43 C    0.131
    50   6 C    3.987 --    49 C    1.033    76 H    0.982    75 H    0.966
                            77 H    0.961
    51   6 C    3.975 --    49 C    1.568    42 C    1.261    78 H    0.972
    52   8 O    2.024 --    41 C    1.667    40 N    0.195
    53   1 H    0.995 --     1 C    0.959
    54   1 H    0.997 --     2 C    0.967
    55   1 H    0.998 --     4 C    0.968
    56   1 H    0.998 --     5 C    0.971
    57   1 H    0.998 --     6 C    0.971
    58   1 H    0.999 --     7 C    0.968
    59   1 H    0.999 --     9 C    0.965
    60   1 H    0.997 --    11 C    0.952
    61   1 H    0.995 --    12 C    0.951
    62   1 H    0.998 --    14 C    0.965
    63   1 H    0.998 --    16 C    0.968
    64   1 H    0.998 --    17 C    0.971
    65   1 H    0.998 --    18 C    0.971
    66   1 H    0.998 --    19 C    0.968
    67   1 H    0.998 --    21 C    0.968
    68   1 H    0.999 --    22 C    0.968
    69   1 H    0.993 --    33 C    0.966
    70   1 H    0.995 --    33 C    0.981
    71   1 H    0.993 --    33 C    0.962
    72   1 H    0.996 --    34 C    0.973
    73   1 H    0.993 --    36 C    0.946
    74   1 H    0.873 --    38 O    0.846
    75   1 H    0.993 --    50 C    0.966
    76   1 H    0.995 --    50 C    0.982
    77   1 H    0.993 --    50 C    0.961
    78   1 H    0.996 --    51 C    0.972
 ---------------------------------------------------------------------------

molecular dipole:
                 x           y           z       tot (Debye)
 q only:       -0.791       0.778       3.689
   full:       -0.774       1.004       3.458       9.362

           -------------------------------------------------
          | TOTAL ENERGY             -153.372946359118 Eh   |
          | GRADIENT NORM               0.000686259352 Eh/Î± |
          | HOMO-LUMO GAP               2.957854848128 eV   |
           -------------------------------------------------

 * finished run on 2022/03/16 at 22:38:27.312
