   * xtb version 6.3.3 (4ae9cef) compiled by 'conda@95abc7406d43' on 2020-10-14
          program call               : xtb acid_166.xyz --opt --chrg 0 --uhf 0 --gfn 2
          number of atoms            :                    78
          number of electrons        :                   242
          charge                     :                     0
          spin                       :                   0.0

   ID    Z sym.   atoms
    1    6 C      1-22, 24-26, 28-33, 35, 36, 40-42, 44-49
    2    7 N      23, 39
    3   16 S      27, 43
    4    8 O      34, 37, 38, 50
    5    1 H      51-78

          :  Hamiltonian                  GFN2-xTB          :
 * total energy  :  -132.8510814 Eh     change       -0.2731525E-08 Eh
 * total energy  :  -132.8711996 Eh     change       -0.2011816E-01 Eh
 * total energy  :  -132.8775558 Eh     change       -0.6356196E-02 Eh
 * total energy  :  -132.8797293 Eh     change       -0.2173459E-02 Eh
 * total energy  :  -132.8815297 Eh     change       -0.1800419E-02 Eh
 * total energy  :  -132.8824186 Eh     change       -0.8889522E-03 Eh
 * total energy  :  -132.8830078 Eh     change       -0.5891650E-03 Eh
 * total energy  :  -132.8834032 Eh     change       -0.3954055E-03 Eh
 * total energy  :  -132.8837191 Eh     change       -0.3158653E-03 Eh
 * total energy  :  -132.8840280 Eh     change       -0.3089047E-03 Eh
 * total energy  :  -132.9008471 Eh     change       -0.2212861E-04 Eh
 * total energy  :  -132.9008684 Eh     change       -0.2127942E-04 Eh
 * total energy  :  -132.9008855 Eh     change       -0.1717980E-04 Eh
 * total energy  :  -132.9008973 Eh     change       -0.1180075E-04 Eh
 * total energy  :  -132.9009063 Eh     change       -0.9010607E-05 Eh
 * total energy  :  -132.9009143 Eh     change       -0.7914001E-05 Eh
 * total energy  :  -132.9009212 Eh     change       -0.6984348E-05 Eh
 * total energy  :  -132.9009271 Eh     change       -0.5899970E-05 Eh
 * total energy  :  -132.9009316 Eh     change       -0.4461974E-05 Eh
   *** GEOMETRY OPTIMIZATION CONVERGED AFTER 81 ITERATIONS ***

 final structure:
================
78
 xtb: 6.3.3 (4ae9cef)
C         3.69531575162475   -1.05744224381951    3.01827639131724
C         3.58125443210803   -2.36297594458352    2.63591825049118
C         2.66930405918186   -2.71747237779063    1.63205391077865
C         1.91630610003886   -1.76396968329112    1.00584449325493
C         2.03142680431317   -0.39914568097636    1.35082864095368
C         2.92046659955856   -0.05051597754280    2.40541676856925
C         3.01309947108552    1.29054513297901    2.82921857161858
C         2.25007175450886    2.25879730520698    2.24333421542590
C         1.41105024938846    1.93076138769994    1.17265865465700
C         1.31729075268141    0.64377123871569    0.70312023477475
C         0.46652111179715    0.38433554106313   -0.51405482800256
C        -1.04578552647532    0.47912515766906   -0.20062479012830
C        -1.60256775209372   -0.85346955952909    0.22347360985715
C        -1.96377021708065   -0.99366602251787    1.54090802394632
C        -2.46368641194961   -2.20110120815154    2.04165678745812
C        -2.59993827848217   -3.27526707099417    1.21176415198322
C        -2.22275877074805   -3.18688880134247   -0.14382775318444
C        -1.69939666379847   -1.96655474703537   -0.65729730572759
C        -1.32341569528695   -1.93026886849069   -2.01969932839802
C        -1.46891023475096   -3.02885485338486   -2.82174455140703
C        -1.99730814323051   -4.22408811460006   -2.31492117119348
C        -2.36352289099985   -4.29815966045925   -1.00148243611813
N        -1.60200824803115    1.08819841164012   -1.39854980486139
C        -2.79757339757880    0.90107184764714   -2.00983525629715
C        -3.82075534377836    0.16035776092291   -1.23718176753651
C        -4.44799673037179   -0.93946035217560   -1.71964931938872
S        -5.55029916738546   -1.65483305532821   -0.60479990671655
C        -5.21884089789065   -0.40619561811643    0.56316215490254
C        -4.27567502823083    0.51720397344269    0.07486240585710
C        -3.94660618330359    1.62338065326525    0.85961055595537
C        -4.51130911329992    1.75840964634276    2.10803845601756
C        -5.41382715748557    0.81209717861405    2.59276037644293
C        -5.78350937984339   -0.27031838759782    1.82206403087458
O        -2.99485392680644    1.34584462871778   -3.12610676867497
C        -0.59561765068765    1.87181881877695   -2.08326269295083
C        -0.63587018697236    1.62580263353705   -3.60737107651850
O        -0.85204354440850    2.73627626712118   -4.28176799139854
O        -0.39549695534177    0.55077616468848   -4.08800976002832
N         0.65788495177428    1.39954258598444   -1.53707073661934
C         1.83402028000427    1.72567251298303   -2.12973895043064
C         3.01994242264695    1.03708426835769   -1.54355245669214
C         3.32266413974559   -0.26662070606286   -1.73839806193520
S         4.74214573470164   -0.78417317776288   -0.89571156721342
C         4.96325807354285    0.81251383269651   -0.24088810930824
C         3.97328169102408    1.69863518848925   -0.70224413995986
C         4.01574029507215    3.03398408192583   -0.30205468429722
C         5.01526753633072    3.44944014238163    0.54804481427718
C         5.97577417568516    2.55329044030661    1.01669636969116
C         5.96256276378786    1.23135361022820    0.62403034617392
O         1.89501241859202    2.53721605567979   -3.02863711423150
H         4.37962476899203   -0.77059099588255    3.80371608774715
H         4.17971594732450   -3.12809815674688    3.10711299577153
H         2.56424898617529   -3.75486768577277    1.35169681023318
H         1.21227831268288   -2.07498836491111    0.24945613507415
H         3.69502441771102    1.53511252869512    3.63015841089107
H         2.30474120840528    3.28286518132770    2.57978526579475
H         0.85312324906933    2.71683516079046    0.68388778970342
H         0.69228603199727   -0.59769784987207   -0.93829908967266
H        -1.17638075338954    1.18266579830590    0.63596515868768
H        -1.87472664740013   -0.15072091114235    2.21113270801725
H        -2.74579375416734   -2.26455548089709    3.08139479912992
H        -2.99817623994327   -4.21026476214370    1.57759468565158
H        -0.92810454359440   -1.03152539985029   -2.46312301797126
H        -1.17729489503530   -2.96844553466523   -3.85931091772901
H        -2.11143509731763   -5.07780359316789   -2.96629854161706
H        -2.77152145525704   -5.21165852968136   -0.59333336151759
H        -4.29092955062240   -1.40534364287555   -2.67277707915269
H        -3.26808951983306    2.36995775143056    0.47509572415002
H        -4.25840976088249    2.61066357520365    2.72112620467734
H        -5.83980799625060    0.93819641530615    3.57643063821786
H        -6.49958347226064   -0.99374011309559    2.17877970802841
H        -0.73138844738402    2.95155667045327   -1.90791281120475
H        -0.85224094178315    2.56329585385034   -5.23627455925454
H         2.79871874676171   -0.97834695370049   -2.34690989829119
H         3.27477245534564    3.72348352106716   -0.67634360500251
H         5.05975165457395    4.48224457125169    0.85953267871902
H         6.74519399502216    2.90166867643615    1.68912328263323
H         6.70808722821710    0.53423391480443    0.97333191223770

          :  Hamiltonian                  GFN2-xTB          :
         :: total energy            -132.900931610870 Eh    ::
         :: gradient norm              0.000220238419 Eh/a0 ::
         :: HOMO-LUMO gap              2.796507759527 eV    ::
         :: SCC energy              -135.028396555797 Eh    ::
         :: -> dispersion             -0.143045922074 Eh    ::
         :: repulsion energy           2.120265874649 Eh    ::

    * Orbital Energies and Occupations

         #    Occupation            Energy/Eh            Energy/eV
      -------------------------------------------------------------
         1        2.0000           -0.7416803             -20.1821
       ...           ...                  ...                  ...
       109        2.0000           -0.4268950             -11.6164
       110        2.0000           -0.4159767             -11.3193
       111        2.0000           -0.4140446             -11.2667
       112        2.0000           -0.4111570             -11.1882
       113        2.0000           -0.4083309             -11.1112
       114        2.0000           -0.4062463             -11.0545
       115        2.0000           -0.4039605             -10.9923
       116        2.0000           -0.4032357             -10.9726
       117        2.0000           -0.3961661             -10.7802
       118        2.0000           -0.3931997             -10.6995
       119        2.0000           -0.3894570             -10.5977
       120        2.0000           -0.3866664             -10.5217
       121        2.0000           -0.3820739             -10.3968 (HOMO)
       122                         -0.2793041              -7.6003 (LUMO)
       123                         -0.2750395              -7.4842
       124                         -0.2682295              -7.2989
       125                         -0.2610922              -7.1047
       126                         -0.2433457              -6.6218
       127                         -0.2428701              -6.6088
       128                         -0.2399131              -6.5284
       129                         -0.2375862              -6.4650
       130                         -0.2345330              -6.3820
       131                         -0.2336064              -6.3568
       132                         -0.2244575              -6.1078
       ...                                ...                  ...
       238                          0.7005498              19.0629
      -------------------------------------------------------------
                  HL-Gap            0.1027698 Eh            2.7965 eV

     #   Z          covCN         q      C6AA      Î±(0)
     1   6 C        2.921    -0.032    28.803     8.801
     2   6 C        2.915    -0.026    28.663     8.779
     3   6 C        2.917    -0.025    28.638     8.776
     4   6 C        2.917    -0.034    28.855     8.809
     5   6 C        2.984     0.007    27.854     8.657
     6   6 C        2.989     0.015    27.659     8.627
     7   6 C        2.921    -0.035    28.872     8.812
     8   6 C        2.914    -0.030    28.739     8.791
     9   6 C        2.923    -0.034    28.856     8.809
    10   6 C        2.968    -0.011    28.281     8.723
    11   6 C        3.820     0.042    19.860     6.342
    12   6 C        3.825     0.045    19.798     6.332
    13   6 C        2.966    -0.010    28.263     8.720
    14   6 C        2.925    -0.035    28.880     8.813
    15   6 C        2.913    -0.030    28.761     8.794
    16   6 C        2.921    -0.033    28.832     8.805
    17   6 C        2.988     0.014    27.698     8.633
    18   6 C        2.983     0.006    27.877     8.661
    19   6 C        2.916    -0.042    29.053     8.839
    20   6 C        2.917    -0.026    28.649     8.777
    21   6 C        2.914    -0.028    28.692     8.784
    22   6 C        2.921    -0.033    28.833     8.806
    23   7 N        2.761    -0.116    23.517     7.202
    24   6 C        2.766     0.279    22.282     7.731
    25   6 C        3.129    -0.032    28.601     8.756
    26   6 C        2.937    -0.002    28.088     8.692
    27  16 S        2.251    -0.026   142.139    20.066
    28   6 C        3.009     0.032    27.271     8.566
    29   6 C        3.143     0.001    27.757     8.621
    30   6 C        2.916    -0.033    28.825     8.804
    31   6 C        2.919    -0.033    28.811     8.802
    32   6 C        2.923    -0.031    28.766     8.796
    33   6 C        2.933    -0.036    28.893     8.815
    34   8 O        0.860    -0.427    22.219     6.320
    35   6 C        3.773     0.106    18.876     6.191
    36   6 C        2.689     0.381    20.546     7.418
    37   8 O        1.660    -0.338    19.693     5.991
    38   8 O        0.856    -0.410    21.889     6.273
    39   7 N        2.766    -0.122    23.646     7.222
    40   6 C        2.761     0.278    22.290     7.732
    41   6 C        3.126    -0.033    28.613     8.759
    42   6 C        2.937    -0.012    28.325     8.729
    43  16 S        2.250    -0.042   142.775    20.111
    44   6 C        3.008     0.032    27.263     8.565
    45   6 C        3.148     0.005    27.633     8.599
    46   6 C        2.916    -0.029    28.725     8.789
    47   6 C        2.919    -0.033    28.813     8.802
    48   6 C        2.924    -0.031    28.777     8.797
    49   6 C        2.933    -0.037    28.926     8.820
    50   8 O        0.859    -0.422    22.130     6.307
    51   1 H        0.926     0.037     2.487     2.466
    52   1 H        0.926     0.038     2.475     2.460
    53   1 H        0.926     0.037     2.487     2.466
    54   1 H        0.926     0.027     2.628     2.535
    55   1 H        0.926     0.038     2.473     2.459
    56   1 H        0.926     0.038     2.478     2.462
    57   1 H        0.926     0.033     2.546     2.495
    58   1 H        0.924     0.055     2.253     2.347
    59   1 H        0.923     0.047     2.361     2.403
    60   1 H        0.926     0.027     2.635     2.539
    61   1 H        0.926     0.036     2.502     2.473
    62   1 H        0.926     0.040     2.447     2.446
    63   1 H        0.926     0.053     2.284     2.363
    64   1 H        0.926     0.044     2.396     2.420
    65   1 H        0.926     0.036     2.501     2.473
    66   1 H        0.926     0.036     2.504     2.475
    67   1 H        0.926     0.059     2.207     2.323
    68   1 H        0.926     0.033     2.541     2.493
    69   1 H        0.926     0.039     2.466     2.456
    70   1 H        0.926     0.042     2.425     2.435
    71   1 H        0.926     0.046     2.373     2.409
    72   1 H        0.923     0.065     2.141     2.288
    73   1 H        0.804     0.347     0.596     1.212
    74   1 H        0.926     0.050     2.317     2.380
    75   1 H        0.926     0.044     2.400     2.422
    76   1 H        0.926     0.039     2.461     2.453
    77   1 H        0.926     0.040     2.451     2.448
    78   1 H        0.926     0.042     2.416     2.431

Wiberg/Mayer (AO) data.
largest (>0.10) Wiberg bond orders for each atom

     #   Z sym  total        # sym  WBO       # sym  WBO       # sym  WBO
 ---------------------------------------------------------------------------
     1   6 C    3.991 --     2 C    1.558     6 C    1.279    51 H    0.968
                             4 C    0.118
     2   6 C    3.992 --     1 C    1.558     3 C    1.322    52 H    0.970
     3   6 C    3.991 --     4 C    1.554     2 C    1.322    53 H    0.971
     4   6 C    3.992 --     3 C    1.554     5 C    1.283    54 H    0.961
                             1 C    0.118
     5   6 C    3.989 --     4 C    1.283    10 C    1.253     6 C    1.252
     6   6 C    3.990 --     7 C    1.280     1 C    1.279     5 C    1.252
     7   6 C    3.990 --     8 C    1.549     6 C    1.280    55 H    0.968
                            10 C    0.113
     8   6 C    3.992 --     7 C    1.549     9 C    1.329    56 H    0.970
     9   6 C    3.990 --    10 C    1.519     8 C    1.329    57 H    0.967
    10   6 C    3.984 --     9 C    1.519     5 C    1.253    11 C    0.990
                             7 C    0.113
    11   6 C    3.964 --    10 C    0.990    39 N    0.960    12 C    0.945
                            58 H    0.945
    12   6 C    3.964 --    13 C    0.995    23 N    0.960    59 H    0.949
                            11 C    0.945
    13   6 C    3.983 --    14 C    1.520    18 C    1.250    12 C    0.995
                            16 C    0.114
    14   6 C    3.989 --    13 C    1.520    15 C    1.326    60 H    0.967
    15   6 C    3.992 --    16 C    1.553    14 C    1.326    61 H    0.970
    16   6 C    3.990 --    15 C    1.553    17 C    1.279    62 H    0.968
                            13 C    0.114
    17   6 C    3.990 --    22 C    1.280    16 C    1.279    18 C    1.252
    18   6 C    3.989 --    19 C    1.284    17 C    1.252    13 C    1.250
    19   6 C    3.990 --    20 C    1.551    18 C    1.284    63 H    0.958
                            22 C    0.119
    20   6 C    3.991 --    19 C    1.551    21 C    1.324    64 H    0.970
    21   6 C    3.992 --    22 C    1.556    20 C    1.324    65 H    0.970
    22   6 C    3.991 --    21 C    1.556    17 C    1.280    66 H    0.968
                            19 C    0.119
    23   7 N    3.468 --    24 C    1.217    35 C    0.977    12 C    0.960
                            34 O    0.187
    24   6 C    3.946 --    34 O    1.653    23 N    1.217    25 C    0.978
    25   6 C    3.982 --    26 C    1.629    29 C    1.154    24 C    0.978
    26   6 C    3.959 --    25 C    1.629    27 S    1.172    67 H    0.968
    27  16 S    2.569 --    26 C    1.172    28 C    1.103
    28   6 C    3.957 --    33 C    1.379    29 C    1.293    27 S    1.103
    29   6 C    3.987 --    30 C    1.334    28 C    1.293    25 C    1.154
    30   6 C    3.992 --    31 C    1.494    29 C    1.334    68 H    0.967
                            33 C    0.111
    31   6 C    3.991 --    30 C    1.494    32 C    1.383    69 H    0.971
    32   6 C    3.990 --    33 C    1.475    31 C    1.383    70 H    0.970
    33   6 C    3.990 --    32 C    1.475    28 C    1.379    71 H    0.968
                            30 C    0.111
    34   8 O    2.040 --    24 C    1.653    23 N    0.187
    35   6 C    3.958 --    23 N    0.977    39 N    0.975    72 H    0.945
                            36 C    0.908
    36   6 C    3.924 --    38 O    1.741    37 O    1.180    35 C    0.908
    37   8 O    2.243 --    36 C    1.180    73 H    0.854    38 O    0.177
    38   8 O    2.039 --    36 C    1.741    37 O    0.177
    39   7 N    3.460 --    40 C    1.212    35 C    0.975    11 C    0.960
                            50 O    0.192
    40   6 C    3.947 --    50 O    1.687    39 N    1.212    41 C    0.955
    41   6 C    3.983 --    42 C    1.646    45 C    1.155    40 C    0.955
    42   6 C    3.957 --    41 C    1.646    43 S    1.155    74 H    0.969
    43  16 S    2.558 --    42 C    1.155    44 C    1.105
    44   6 C    3.957 --    49 C    1.376    45 C    1.293    43 S    1.105
    45   6 C    3.987 --    46 C    1.334    44 C    1.293    41 C    1.155
    46   6 C    3.991 --    47 C    1.495    45 C    1.334    75 H    0.967
                            49 C    0.111
    47   6 C    3.991 --    46 C    1.495    48 C    1.383    76 H    0.971
    48   6 C    3.991 --    49 C    1.476    47 C    1.383    77 H    0.970
    49   6 C    3.990 --    48 C    1.476    44 C    1.376    78 H    0.968
                            46 C    0.111
    50   8 O    2.026 --    40 C    1.687    39 N    0.192
    51   1 H    0.998 --     1 C    0.968
    52   1 H    0.998 --     2 C    0.970
    53   1 H    0.998 --     3 C    0.971
    54   1 H    0.999 --     4 C    0.961
    55   1 H    0.998 --     7 C    0.968
    56   1 H    0.998 --     8 C    0.970
    57   1 H    0.998 --     9 C    0.967
    58   1 H    0.997 --    11 C    0.945
    59   1 H    0.997 --    12 C    0.949
    60   1 H    0.999 --    14 C    0.967
    61   1 H    0.998 --    15 C    0.970
    62   1 H    0.997 --    16 C    0.968
    63   1 H    0.997 --    19 C    0.958
    64   1 H    0.998 --    20 C    0.970
    65   1 H    0.998 --    21 C    0.970
    66   1 H    0.998 --    22 C    0.968
    67   1 H    0.996 --    26 C    0.968
    68   1 H    0.999 --    30 C    0.967
    69   1 H    0.998 --    31 C    0.971
    70   1 H    0.998 --    32 C    0.970
    71   1 H    0.997 --    33 C    0.968
    72   1 H    0.995 --    35 C    0.945
    73   1 H    0.879 --    37 O    0.854
    74   1 H    0.997 --    42 C    0.969
    75   1 H    0.998 --    46 C    0.967
    76   1 H    0.997 --    47 C    0.971
    77   1 H    0.998 --    48 C    0.970
    78   1 H    0.998 --    49 C    0.968
 ---------------------------------------------------------------------------

molecular dipole:
                 x           y           z       tot (Debye)
 q only:        0.050      -1.007       2.806
   full:        0.012      -0.650       2.711       7.087

           -------------------------------------------------
          | TOTAL ENERGY             -132.900931610870 Eh   |
          | GRADIENT NORM               0.000220238419 Eh/Î± |
          | HOMO-LUMO GAP               2.796507759527 eV   |
           -------------------------------------------------

 * finished run on 2022/03/16 at 22:00:27.327
