   * xtb version 6.3.3 (4ae9cef) compiled by 'conda@95abc7406d43' on 2020-10-14
          program call               : xtb acid_310.xyz --opt --chrg 0 --uhf 0 --gfn 2
          number of atoms            :                    96
          number of electrons        :                   262
          charge                     :                     0
          spin                       :                   0.0

   ID    Z sym.   atoms
    1    6 C      1-22, 24-34, 36, 37, 41-51
    2    7 N      23, 40
    3    8 O      35, 38, 39, 52
    4    1 H      53-96

          :  Hamiltonian                  GFN2-xTB          :
 * total energy  :  -143.0961800 Eh     change       -0.5102748E-08 Eh
 * total energy  :  -143.1153948 Eh     change       -0.1921478E-01 Eh
 * total energy  :  -143.1207672 Eh     change       -0.5372440E-02 Eh
 * total energy  :  -143.1224770 Eh     change       -0.1709746E-02 Eh
 * total energy  :  -143.1238044 Eh     change       -0.1327378E-02 Eh
 * total energy  :  -143.1246230 Eh     change       -0.8186775E-03 Eh
 * total energy  :  -143.1253194 Eh     change       -0.6963371E-03 Eh
 * total energy  :  -143.1260365 Eh     change       -0.7171126E-03 Eh
 * total energy  :  -143.1267611 Eh     change       -0.7245706E-03 Eh
 * total energy  :  -143.1273946 Eh     change       -0.6335562E-03 Eh
 * total energy  :  -143.1299463 Eh     change       -0.9356690E-05 Eh
 * total energy  :  -143.1299567 Eh     change       -0.1031489E-04 Eh
 * total energy  :  -143.1299695 Eh     change       -0.1289674E-04 Eh
 * total energy  :  -143.1299835 Eh     change       -0.1399753E-04 Eh
 * total energy  :  -143.1299966 Eh     change       -0.1309168E-04 Eh
 * total energy  :  -143.1300103 Eh     change       -0.1368919E-04 Eh
 * total energy  :  -143.1300256 Eh     change       -0.1532120E-04 Eh
 * total energy  :  -143.1300392 Eh     change       -0.1357110E-04 Eh
 * total energy  :  -143.1300422 Eh     change       -0.3020614E-05 Eh
   *** GEOMETRY OPTIMIZATION CONVERGED AFTER 44 ITERATIONS ***

 final structure:
================
96
 xtb: 6.3.3 (4ae9cef)
C        -3.36706422502634   -0.80730913083501   -3.12112529582802
C        -2.36428424329231   -0.18751008705545   -3.80955894361488
C        -1.17897651989838    0.15401745920882   -3.14563935899581
C        -1.01163735476636   -0.13977003796663   -1.82100832506374
C        -2.02275099970024   -0.78190319443808   -1.07301963546941
C        -3.23109680486645   -1.11016984236266   -1.74999359670276
C        -4.28417095813745   -1.73114124037617   -1.04874206971600
C        -4.15519528411877   -2.02309027663345    0.27728067908872
C        -2.96494160060854   -1.71493886392763    0.94481055603186
C        -1.91075051301587   -1.10755790510970    0.30754138678573
C        -0.65813956761601   -0.88604846835150    1.12443605726038
C         0.49672825799540   -1.82829991162361    0.67187134484145
C         0.96394504056238   -2.78164712082393    1.75418723779591
C         1.04965499297461   -2.34782727418834    3.05647896017903
C         1.45505170666696   -3.19545576185922    4.09469513788841
C         1.76215195531358   -4.49751590964910    3.82935794152426
C         1.70256549247689   -4.99032799998534    2.51033719935954
C         1.32047268641969   -4.12640393045991    1.44405502722354
C         1.32418145157602   -4.66092707322224    0.13575639749630
C         1.65109900953457   -5.96864427918653   -0.09501898130861
C         1.99638169000411   -6.82176631283832    0.96185270864836
C         2.02839795516192   -6.33560115501271    2.23689997331667
N         1.57311554147033   -0.92480574328860    0.23391574951657
C         2.10258329371019   -1.09440513501220   -1.03221562828283
C         2.92644857525896    0.02028845149235   -1.56828404792964
C         2.72326570779643    0.35811450863213   -2.90391435163495
C         3.43824538929097    1.40095377604658   -3.45508943556006
C         4.36299835496194    2.09971905332569   -2.69541321543110
C         4.60886212887831    1.75724734859959   -1.37095712759098
C         5.61770621289662    2.48218778332645   -0.49503442808132
C         6.68270083771027    1.48297014393158   -0.02109623104748
C         6.32448650504619    3.61955951588295   -1.23705505785208
C         4.88562979796443    3.07948843575117    0.71617509865583
C         3.87871046714892    0.70595838084658   -0.82493487778949
O         1.89984675870304   -2.11152113147038   -1.66122477112192
C         1.34803222865408    0.36068090358480    0.85231074307309
C         2.09611739020824    0.48655505229984    2.20231931825523
O         3.14891708773956   -0.32996204088375    2.31976673103858
O         1.78603693924812    1.26897866523357    3.04775481977729
N        -0.08168319033996    0.44739352418265    1.04218090216723
C        -0.73693243903551    1.61679317077418    0.77694086395233
C        -2.18602422643590    1.61005844745643    1.10842959001809
C        -3.10366182664267    2.07121517217316    0.17692569527957
C        -4.46472050058753    2.11726794078870    0.46125619921597
C        -5.42807298364739    2.65076331388879   -0.58687974070724
C        -5.33654215188408    1.77940832623783   -1.84587694031717
C        -6.88268202057295    2.64635923566426   -0.10879012067648
C        -5.03715066824491    4.09651818461957   -0.92369255091644
C        -4.87572303961191    1.68938360671062    1.71786968919774
C        -3.96053031744494    1.25924456317514    2.66514830077767
C        -2.61280689873789    1.22023472656290    2.37244471987364
O        -0.14868701891353    2.58363261488429    0.33712895926488
H        -4.29084358295170   -1.07183136104649   -3.61539712977040
H        -2.47788161045941    0.04602670927398   -4.85772800828695
H        -0.39188630103170    0.65858759586189   -3.68618563395765
H        -0.08625735007850    0.14611161193680   -1.35444588583403
H        -5.19171488004065   -1.97250195350219   -1.58337090293749
H        -4.95965612117294   -2.49440262316651    0.82123921729957
H        -2.88083082880380   -1.96454837845908    1.99285168242114
H        -0.91618741878124   -1.10926377794469    2.16588796217422
H         0.17519026520952   -2.39649256548704   -0.20479720915856
H         0.80102227564606   -1.32952801052488    3.31699590494222
H         1.51045136305379   -2.80501472915051    5.09923948477050
H         2.05883355150993   -5.16888578824579    4.62194571398369
H         1.10529302724586   -4.03351532748519   -0.71176258889336
H         1.64914005352176   -6.34922550530442   -1.10552201544977
H         2.24583961825895   -7.85282858498053    0.75943430863181
H         2.30929801374486   -6.97266159868412    3.06346283929156
H         2.00457001592237   -0.20090196837683   -3.48333650408396
H         3.27735390776104    1.67742998193761   -4.48658856643437
H         4.89618014400482    2.91306256952191   -3.15887102089257
H         6.24951236388505    0.69685153323659    0.59115747852006
H         7.43424155351206    1.99663062473783    0.57393198817367
H         7.17447564674352    1.02121168963818   -0.87507052196911
H         7.03543513995287    4.09994046883080   -0.56833066040009
H         5.61303494429461    4.37336393759611   -1.56581381395210
H         6.87494537037360    3.24491938934548   -2.09720558460042
H         4.07567477691762    3.72798058186822    0.38891878103393
H         5.57712436886438    3.66830686037544    1.31430728295420
H         4.46520789846287    2.30827228498048    1.35595172527961
H         4.07747091252904    0.40693378824796    0.19149236582874
H         1.67392964550486    1.20891608273124    0.22938379023768
H         3.14425230987347   -1.00409660834255    1.61530037943095
H        -2.72785842742569    2.39048108514090   -0.78323831682199
H        -5.60860797151626    0.75316307264086   -1.60947380559142
H        -4.33048071487580    1.77642121517768   -2.25551272934614
H        -6.01601825916635    2.15287318757290   -2.60915948590093
H        -7.52332666486626    3.03501167126359   -0.89774984265999
H        -7.00938992175305    3.27839157665081    0.76698663043901
H        -7.21466083900109    1.63760656537331    0.12618011384032
H        -5.07528302220350    4.71449754216078   -0.02916413344921
H        -4.03136251447426    4.14922797271558   -1.32992611817286
H        -5.72535613640515    4.50891092620048   -1.65854250262002
H        -5.91934743499408    1.69945724098863    1.98615223598743
H        -4.30804825951319    0.95784390426349    3.64264751961692
H        -1.89358500947123    0.91682663173443    3.11815832046540

          :  Hamiltonian                  GFN2-xTB          :
         :: total energy            -143.130042240405 Eh    ::
         :: gradient norm              0.000204681568 Eh/a0 ::
         :: HOMO-LUMO gap              3.044017204239 eV    ::
         :: SCC energy              -145.445370299462 Eh    ::
         :: -> dispersion             -0.141513247791 Eh    ::
         :: repulsion energy           2.309130391219 Eh    ::

    * Orbital Energies and Occupations

         #    Occupation            Energy/Eh            Energy/eV
      -------------------------------------------------------------
         1        2.0000           -0.7615766             -20.7236
       ...           ...                  ...                  ...
       119        2.0000           -0.4193478             -11.4110
       120        2.0000           -0.4164716             -11.3328
       121        2.0000           -0.4142689             -11.2728
       122        2.0000           -0.4115410             -11.1986
       123        2.0000           -0.4084143             -11.1135
       124        2.0000           -0.4064584             -11.0603
       125        2.0000           -0.4060057             -11.0480
       126        2.0000           -0.4038273             -10.9887
       127        2.0000           -0.3994672             -10.8701
       128        2.0000           -0.3941683             -10.7259
       129        2.0000           -0.3933150             -10.7026
       130        2.0000           -0.3865530             -10.5186
       131        2.0000           -0.3845198             -10.4633 (HOMO)
       132                         -0.2726543              -7.4193 (LUMO)
       133                         -0.2686904              -7.3114
       134                         -0.2639570              -7.1826
       135                         -0.2519830              -6.8568
       136                         -0.2468706              -6.7177
       137                         -0.2382233              -6.4824
       138                         -0.2362769              -6.4294
       139                         -0.2341611              -6.3718
       140                         -0.2255076              -6.1364
       141                         -0.2068434              -5.6285
       142                         -0.2016427              -5.4870
       ...                                ...                  ...
       252                          0.6875232              18.7085
      -------------------------------------------------------------
                  HL-Gap            0.1118656 Eh            3.0440 eV

     #   Z          covCN         q      C6AA      Î±(0)
     1   6 C        2.922    -0.032    28.802     8.801
     2   6 C        2.915    -0.028    28.698     8.785
     3   6 C        2.917    -0.026    28.654     8.778
     4   6 C        2.918    -0.030    28.751     8.793
     5   6 C        2.982     0.011    27.773     8.645
     6   6 C        2.989     0.016    27.651     8.626
     7   6 C        2.922    -0.034    28.856     8.809
     8   6 C        2.913    -0.030    28.743     8.791
     9   6 C        2.926    -0.036    28.902     8.816
    10   6 C        2.964    -0.010    28.257     8.719
    11   6 C        3.819     0.037    19.933     6.354
    12   6 C        3.831     0.038    19.907     6.348
    13   6 C        2.963    -0.017    28.429     8.746
    14   6 C        2.922    -0.039    28.962     8.825
    15   6 C        2.913    -0.030    28.760     8.794
    16   6 C        2.921    -0.034    28.852     8.808
    17   6 C        2.988     0.014    27.700     8.633
    18   6 C        2.983     0.008    27.841     8.655
    19   6 C        2.916    -0.040    28.999     8.831
    20   6 C        2.917    -0.027    28.671     8.781
    21   6 C        2.914    -0.028    28.703     8.785
    22   6 C        2.922    -0.035    28.870     8.811
    23   7 N        2.750    -0.161    24.470     7.347
    24   6 C        2.765     0.271    22.416     7.754
    25   6 C        2.972    -0.025    28.612     8.774
    26   6 C        2.927    -0.022    28.567     8.765
    27   6 C        2.918    -0.027    28.683     8.782
    28   6 C        2.925    -0.033    28.812     8.803
    29   6 C        2.973     0.016    27.645     8.624
    30   6 C        3.903     0.026    20.085     6.370
    31   6 C        3.761    -0.107    22.585     6.775
    32   6 C        3.761    -0.110    22.646     6.784
    33   6 C        3.761    -0.107    22.589     6.775
    34   6 C        2.929    -0.042    29.035     8.837
    35   8 O        0.859    -0.420    22.080     6.300
    36   6 C        3.777     0.083    19.231     6.248
    37   6 C        2.686     0.348    21.084     7.514
    38   8 O        1.658    -0.366    20.204     6.068
    39   8 O        0.856    -0.347    20.641     6.091
    40   7 N        2.756    -0.129    23.793     7.245
    41   6 C        2.765     0.278    22.299     7.733
    42   6 C        2.977    -0.015    28.391     8.740
    43   6 C        2.932    -0.026    28.641     8.777
    44   6 C        2.973     0.013    27.726     8.637
    45   6 C        3.903     0.026    20.087     6.371
    46   6 C        3.762    -0.105    22.552     6.770
    47   6 C        3.761    -0.109    22.626     6.781
    48   6 C        3.762    -0.107    22.595     6.776
    49   6 C        2.926    -0.037    28.928     8.820
    50   6 C        2.919    -0.030    28.755     8.794
    51   6 C        2.922    -0.032    28.796     8.800
    52   8 O        0.859    -0.429    22.260     6.326
    53   1 H        0.926     0.036     2.502     2.474
    54   1 H        0.926     0.035     2.516     2.481
    55   1 H        0.926     0.035     2.520     2.482
    56   1 H        0.926     0.027     2.632     2.537
    57   1 H        0.926     0.037     2.495     2.470
    58   1 H        0.926     0.037     2.494     2.469
    59   1 H        0.926     0.030     2.586     2.515
    60   1 H        0.924     0.051     2.310     2.377
    61   1 H        0.924     0.075     2.032     2.229
    62   1 H        0.926     0.034     2.536     2.490
    63   1 H        0.926     0.040     2.450     2.447
    64   1 H        0.926     0.038     2.479     2.462
    65   1 H        0.926     0.061     2.186     2.312
    66   1 H        0.926     0.037     2.493     2.469
    67   1 H        0.926     0.033     2.541     2.493
    68   1 H        0.926     0.034     2.533     2.489
    69   1 H        0.926     0.049     2.334     2.389
    70   1 H        0.926     0.039     2.458     2.452
    71   1 H        0.926     0.048     2.351     2.398
    72   1 H        0.925     0.037     2.487     2.466
    73   1 H        0.925     0.043     2.413     2.429
    74   1 H        0.925     0.035     2.522     2.483
    75   1 H        0.925     0.041     2.441     2.443
    76   1 H        0.925     0.039     2.456     2.451
    77   1 H        0.925     0.037     2.492     2.469
    78   1 H        0.925     0.040     2.454     2.450
    79   1 H        0.925     0.044     2.399     2.422
    80   1 H        0.925     0.037     2.491     2.468
    81   1 H        0.926     0.033     2.545     2.495
    82   1 H        0.923     0.093     1.853     2.129
    83   1 H        0.804     0.332     0.631     1.248
    84   1 H        0.926     0.042     2.424     2.435
    85   1 H        0.925     0.033     2.547     2.496
    86   1 H        0.925     0.035     2.512     2.479
    87   1 H        0.925     0.040     2.453     2.449
    88   1 H        0.925     0.039     2.463     2.454
    89   1 H        0.925     0.038     2.476     2.461
    90   1 H        0.925     0.036     2.509     2.477
    91   1 H        0.925     0.037     2.491     2.468
    92   1 H        0.925     0.041     2.429     2.437
    93   1 H        0.925     0.039     2.457     2.451
    94   1 H        0.926     0.043     2.408     2.427
    95   1 H        0.926     0.036     2.508     2.477
    96   1 H        0.926     0.035     2.516     2.480

Wiberg/Mayer (AO) data.
largest (>0.10) Wiberg bond orders for each atom

     #   Z sym  total        # sym  WBO       # sym  WBO       # sym  WBO
 ---------------------------------------------------------------------------
     1   6 C    3.991 --     2 C    1.555     6 C    1.280    53 H    0.968
                             4 C    0.118
     2   6 C    3.992 --     1 C    1.555     3 C    1.325    54 H    0.971
     3   6 C    3.992 --     4 C    1.551     2 C    1.325    55 H    0.970
     4   6 C    3.992 --     3 C    1.551     5 C    1.286    56 H    0.963
                             1 C    0.118
     5   6 C    3.989 --     4 C    1.286    10 C    1.251     6 C    1.251
     6   6 C    3.990 --     1 C    1.280     7 C    1.278     5 C    1.251
     7   6 C    3.990 --     8 C    1.552     6 C    1.278    57 H    0.967
                            10 C    0.115
     8   6 C    3.992 --     7 C    1.552     9 C    1.328    58 H    0.970
     9   6 C    3.990 --    10 C    1.521     8 C    1.328    59 H    0.967
    10   6 C    3.984 --     9 C    1.521     5 C    1.251    11 C    0.992
                             7 C    0.115
    11   6 C    3.965 --    10 C    0.992    40 N    0.964    12 C    0.950
                            60 H    0.948
    12   6 C    3.958 --    13 C    0.989    11 C    0.950    23 N    0.949
                            61 H    0.947
    13   6 C    3.983 --    14 C    1.524    18 C    1.252    12 C    0.989
                            16 C    0.115
    14   6 C    3.990 --    13 C    1.524    15 C    1.325    62 H    0.960
    15   6 C    3.991 --    16 C    1.552    14 C    1.325    63 H    0.970
    16   6 C    3.990 --    15 C    1.552    17 C    1.281    64 H    0.968
                            13 C    0.115
    17   6 C    3.990 --    16 C    1.281    22 C    1.279    18 C    1.251
    18   6 C    3.988 --    19 C    1.285    13 C    1.252    17 C    1.251
    19   6 C    3.989 --    20 C    1.553    18 C    1.285    65 H    0.954
                            22 C    0.119
    20   6 C    3.991 --    19 C    1.553    21 C    1.323    66 H    0.971
    21   6 C    3.992 --    22 C    1.556    20 C    1.323    67 H    0.971
    22   6 C    3.991 --    21 C    1.556    17 C    1.279    68 H    0.968
                            19 C    0.119
    23   7 N    3.418 --    24 C    1.149    36 C    0.985    12 C    0.949
                            35 O    0.168
    24   6 C    3.939 --    35 O    1.702    23 N    1.149    25 C    0.994
    25   6 C    3.985 --    34 C    1.403    26 C    1.380    24 C    0.994
                            28 C    0.102
    26   6 C    3.988 --    27 C    1.453    25 C    1.380    69 H    0.967
                            29 C    0.106
    27   6 C    3.991 --    26 C    1.453    28 C    1.432    70 H    0.970
                            34 C    0.106
    28   6 C    3.990 --    27 C    1.432    29 C    1.414    71 H    0.965
                            25 C    0.102
    29   6 C    3.985 --    28 C    1.414    34 C    1.409    30 C    0.985
                            26 C    0.106
    30   6 C    3.991 --    32 C    1.000    31 C    0.986    33 C    0.986
                            29 C    0.985
    31   6 C    3.995 --    74 H    0.987    30 C    0.986    73 H    0.984
                            72 H    0.983
    32   6 C    3.996 --    30 C    1.000    77 H    0.985    76 H    0.984
                            75 H    0.984
    33   6 C    3.994 --    78 H    0.986    30 C    0.986    79 H    0.984
                            80 H    0.983
    34   6 C    3.991 --    29 C    1.409    25 C    1.403    81 H    0.959
                            27 C    0.106
    35   8 O    2.029 --    24 C    1.702    23 N    0.168
    36   6 C    3.962 --    23 N    0.985    40 N    0.980    82 H    0.920
                            37 C    0.909
    37   6 C    3.923 --    39 O    1.810    38 O    1.136    36 C    0.909
    38   8 O    2.213 --    37 C    1.136    83 H    0.842    39 O    0.168
    39   8 O    2.095 --    37 C    1.810    38 O    0.168
    40   7 N    3.441 --    41 C    1.182    36 C    0.980    11 C    0.964
                            52 O    0.180
    41   6 C    3.942 --    52 O    1.690    40 N    1.182    42 C    0.980
    42   6 C    3.986 --    43 C    1.413    51 C    1.385    41 C    0.980
                            49 C    0.104
    43   6 C    3.989 --    42 C    1.413    44 C    1.408    84 H    0.963
                            50 C    0.107
    44   6 C    3.985 --    49 C    1.417    43 C    1.408    45 C    0.984
                            51 C    0.108
    45   6 C    3.991 --    47 C    1.000    46 C    0.987    48 C    0.986
                            44 C    0.984
    46   6 C    3.996 --    45 C    0.987    85 H    0.985    87 H    0.984
                            86 H    0.982
    47   6 C    3.996 --    45 C    1.000    90 H    0.985    89 H    0.985
                            88 H    0.984
    48   6 C    3.995 --    91 H    0.987    45 C    0.986    93 H    0.984
                            92 H    0.983
    49   6 C    3.991 --    50 C    1.431    44 C    1.417    94 H    0.965
                            42 C    0.104
    50   6 C    3.991 --    51 C    1.453    49 C    1.431    95 H    0.970
                            43 C    0.107
    51   6 C    3.990 --    50 C    1.453    42 C    1.385    96 H    0.969
                            44 C    0.108
    52   8 O    2.019 --    41 C    1.690    40 N    0.180
    53   1 H    0.998 --     1 C    0.968
    54   1 H    0.998 --     2 C    0.971
    55   1 H    0.998 --     3 C    0.970
    56   1 H    0.999 --     4 C    0.963
    57   1 H    0.998 --     7 C    0.967
    58   1 H    0.998 --     8 C    0.970
    59   1 H    0.999 --     9 C    0.967
    60   1 H    0.997 --    11 C    0.948
    61   1 H    0.994 --    12 C    0.947
    62   1 H    0.998 --    14 C    0.960
    63   1 H    0.997 --    15 C    0.970
    64   1 H    0.997 --    16 C    0.968
    65   1 H    0.996 --    19 C    0.954
    66   1 H    0.998 --    20 C    0.971
    67   1 H    0.998 --    21 C    0.971
    68   1 H    0.998 --    22 C    0.968
    69   1 H    0.997 --    26 C    0.967
    70   1 H    0.998 --    27 C    0.970
    71   1 H    0.997 --    28 C    0.965
    72   1 H    0.999 --    31 C    0.983
    73   1 H    0.997 --    31 C    0.984
    74   1 H    0.999 --    31 C    0.987
    75   1 H    0.998 --    32 C    0.984
    76   1 H    0.998 --    32 C    0.984
    77   1 H    0.999 --    32 C    0.985
    78   1 H    0.998 --    33 C    0.986
    79   1 H    0.997 --    33 C    0.984
    80   1 H    0.999 --    33 C    0.983
    81   1 H    0.999 --    34 C    0.959
    82   1 H    0.991 --    36 C    0.920
    83   1 H    0.889 --    38 O    0.842
    84   1 H    0.998 --    43 C    0.963
    85   1 H    0.999 --    46 C    0.985
    86   1 H    0.999 --    46 C    0.982
    87   1 H    0.998 --    46 C    0.984
    88   1 H    0.998 --    47 C    0.984
    89   1 H    0.999 --    47 C    0.985
    90   1 H    0.999 --    47 C    0.985
    91   1 H    0.999 --    48 C    0.987
    92   1 H    0.998 --    48 C    0.983
    93   1 H    0.998 --    48 C    0.984
    94   1 H    0.998 --    49 C    0.965
    95   1 H    0.998 --    50 C    0.970
    96   1 H    0.998 --    51 C    0.969
 ---------------------------------------------------------------------------

molecular dipole:
                 x           y           z       tot (Debye)
 q only:       -0.696      -0.948      -0.529
   full:       -0.704      -1.067      -0.698       3.702

           -------------------------------------------------
          | TOTAL ENERGY             -143.130042240405 Eh   |
          | GRADIENT NORM               0.000204681568 Eh/Î± |
          | HOMO-LUMO GAP               3.044017204239 eV   |
           -------------------------------------------------

 * finished run on 2022/03/16 at 23:40:38.572
