   * xtb version 6.3.3 (4ae9cef) compiled by 'conda@95abc7406d43' on 2020-10-14
          program call               : xtb acid_189.xyz --opt --chrg 0 --uhf 0 --gfn 2
          number of atoms            :                    62
          number of electrons        :                   194
          charge                     :                     0
          spin                       :                   0.0

   ID    Z sym.   atoms
    1    6 C      1-14, 16-18, 20, 21, 23, 25, 26, 30-32, 34, 35, 37
    2    7 N      15, 29
    3   16 S      19, 33
    4    8 O      22, 24, 27, 28, 36, 38
    5    1 H      39-62

          :  Hamiltonian                  GFN2-xTB          :
 * total energy  :  -108.9441072 Eh     change       -0.4556014E-08 Eh
 * total energy  :  -108.9554780 Eh     change       -0.1137085E-01 Eh
 * total energy  :  -108.9591556 Eh     change       -0.3677563E-02 Eh
 * total energy  :  -108.9606411 Eh     change       -0.1485467E-02 Eh
 * total energy  :  -108.9615540 Eh     change       -0.9129376E-03 Eh
 * total energy  :  -108.9621217 Eh     change       -0.5676724E-03 Eh
 * total energy  :  -108.9625325 Eh     change       -0.4108201E-03 Eh
 * total energy  :  -108.9628303 Eh     change       -0.2978502E-03 Eh
 * total energy  :  -108.9630369 Eh     change       -0.2065723E-03 Eh
 * total energy  :  -108.9631873 Eh     change       -0.1503501E-03 Eh
 * total energy  :  -108.9639233 Eh     change       -0.1052997E-04 Eh
 * total energy  :  -108.9639334 Eh     change       -0.1009097E-04 Eh
 * total energy  :  -108.9639448 Eh     change       -0.1140643E-04 Eh
 * total energy  :  -108.9639623 Eh     change       -0.1747461E-04 Eh
 * total energy  :  -108.9639802 Eh     change       -0.1793354E-04 Eh
 * total energy  :  -108.9639939 Eh     change       -0.1370513E-04 Eh
 * total energy  :  -108.9640054 Eh     change       -0.1151783E-04 Eh
 * total energy  :  -108.9640168 Eh     change       -0.1142044E-04 Eh
 * total energy  :  -108.9640214 Eh     change       -0.4522074E-05 Eh
   *** GEOMETRY OPTIMIZATION CONVERGED AFTER 34 ITERATIONS ***

 final structure:
================
62
 xtb: 6.3.3 (4ae9cef)
C        -1.42680723450596   -0.95419806001246   -2.14537259905193
C        -2.31533657070031   -1.53852913164756   -3.02918394392439
C        -3.27295569719713   -2.42645376842339   -2.56772469752304
C        -3.33524339171663   -2.73520375071652   -1.21936008062182
C        -2.44751955250466   -2.15108206336280   -0.33345431112188
C        -1.49294782964862   -1.25274592080506   -0.78983789383991
C        -0.52532200396148   -0.61782517452283    0.17403351713184
C         0.92019829442298   -1.12965287827805   -0.01224420431424
C         1.32389399785186   -2.03503387619679    1.12323553407280
C         1.75307728730384   -1.49642474974778    2.32935169403425
C         2.08804982239012   -2.32815524422231    3.38208883551917
C         1.98403093391303   -3.70190127773374    3.24295333779936
C         1.54853434853329   -4.24143760894617    2.04499367668343
C         1.22010692919705   -3.41132963971232    0.98771806830109
N         1.72974086450271    0.07807005558711   -0.04688376863279
C         3.06656698556747   -0.04089899822962   -0.29914938639081
C         3.82269433457633    1.23448311451531   -0.36770708101293
C         4.70566521358417    1.50145444413373   -1.36805394431978
S         5.49351296884344    3.00409246963213   -1.16563946311806
C         4.65967482372646    3.28994200217656    0.31439959664532
C         3.80500266337196    2.27387121816423    0.61701365934273
O         3.00126684296308    2.16554228034239    1.71328844350067
C         3.14552103046170    3.15779903476794    2.70357539037580
O         3.59662412100457   -1.12467879395184   -0.41066274686634
C         0.94029700209415    1.24794533616721   -0.29202065217915
C         1.10026307775818    1.75735114804406   -1.76073416424709
O         0.46117463366680    2.87570187398596   -2.02428544025363
O         1.77501932540823    1.16750573572828   -2.55594651931581
N        -0.42063407211921    0.82013108511328   -0.02072839197810
C        -1.41911813782237    1.70375083754769    0.12507939831695
C        -2.73983017389563    1.12198822124978    0.47472507321143
C        -3.14447234821582    0.70475711840901    1.70224218966709
S        -4.75421991979159    0.11465021189691    1.68616046740585
C        -4.90156354597074    0.43050164036361    0.00057971689109
C        -3.76223401491850    0.97018518462749   -0.51604137768235
O        -3.50210929213614    1.33137378963972   -1.79128336945632
C        -4.53755150634592    1.14688480690472   -2.72807215623518
O        -1.24851989829177    2.90672210266389   -0.05206615063204
H        -0.68217117938845   -0.26306990568808   -2.51173213821548
H        -2.25930180776196   -1.29807106591671   -4.08009093987253
H        -3.96694475351847   -2.88140027073763   -3.25930226731269
H        -4.07719082735974   -3.42993435799946   -0.85494967791922
H        -2.49656074567081   -2.39075886151272    0.71917472935823
H        -0.85052683003282   -0.81735462229249    1.20375588005319
H         1.02195452455772   -1.66889656657886   -0.96391206790525
H         1.84344209002673   -0.42465487478995    2.43352881864918
H         2.43304746270545   -1.90317211611082    4.31330106249447
H         2.24796850516150   -4.35048576468609    4.06514778937919
H         1.47086443427837   -5.31247844788713    1.93065592625057
H         0.88771546350268   -3.83190621111497    0.04987051487401
H         4.90556643257797    0.89130650656865   -2.22488726602190
H         4.86275671566223    4.18763768191283    0.86123388600141
H         2.47834061961843    2.87073750124475    3.51469079363629
H         2.85668628247258    4.14319475034290    2.32372253472434
H         4.17433596876289    3.20068190573614    3.07240723395872
H         1.20392305769431    2.07441263335737    0.38730346101124
H        -0.15919181414577    3.14464791114484   -1.28613372723991
H        -2.59332263307431    0.72492707980326    2.62129388946792
H        -5.82169751518776    0.19713308201241   -0.49346643387711
H        -4.14009852694509    1.49007086665706   -3.68093021805130
H        -5.41971798981345    1.73785086003336   -2.46390275525629
H        -4.81440624551121    0.09043251133896   -2.80176628438186

          :  Hamiltonian                  GFN2-xTB          :
         :: total energy            -108.964021353087 Eh    ::
         :: gradient norm              0.000815709587 Eh/a0 ::
         :: HOMO-LUMO gap              3.191321953989 eV    ::
         :: SCC energy              -110.414649151058 Eh    ::
         :: -> dispersion             -0.093548561595 Eh    ::
         :: repulsion energy           1.447377935222 Eh    ::

    * Orbital Energies and Occupations

         #    Occupation            Energy/Eh            Energy/eV
      -------------------------------------------------------------
         1        2.0000           -0.7507551             -20.4291
       ...           ...                  ...                  ...
        85        2.0000           -0.4310659             -11.7299
        86        2.0000           -0.4273397             -11.6285
        87        2.0000           -0.4232984             -11.5185
        88        2.0000           -0.4222682             -11.4905
        89        2.0000           -0.4180791             -11.3765
        90        2.0000           -0.4154936             -11.3062
        91        2.0000           -0.4088349             -11.1250
        92        2.0000           -0.4074692             -11.0878
        93        2.0000           -0.4016592             -10.9297
        94        2.0000           -0.3946206             -10.7382
        95        2.0000           -0.3933712             -10.7042
        96        2.0000           -0.3895541             -10.6003
        97        2.0000           -0.3847207             -10.4688 (HOMO)
        98                         -0.2674418              -7.2775 (LUMO)
        99                         -0.2536617              -6.9025
       100                         -0.2510365              -6.8311
       101                         -0.2452150              -6.6726
       102                         -0.2437469              -6.6327
       103                         -0.2412878              -6.5658
       104                         -0.2285305              -6.2186
       105                         -0.2270273              -6.1777
       106                         -0.2195478              -5.9742
       107                         -0.2184780              -5.9451
       108                         -0.2029306              -5.5220
       ...                                ...                  ...
       186                          0.7024351              19.1142
      -------------------------------------------------------------
                  HL-Gap            0.1172789 Eh            3.1913 eV

     #   Z          covCN         q      C6AA      Î±(0)
     1   6 C        2.923    -0.026    28.643     8.777
     2   6 C        2.920    -0.024    28.597     8.769
     3   6 C        2.920    -0.030    28.750     8.793
     4   6 C        2.919    -0.028    28.699     8.785
     5   6 C        2.923    -0.035    28.880     8.813
     6   6 C        2.974    -0.002    28.066     8.690
     7   6 C        3.817     0.038    19.930     6.354
     8   6 C        3.829     0.048    19.747     6.323
     9   6 C        2.975     0.012    27.754     8.642
    10   6 C        2.923    -0.031    28.777     8.797
    11   6 C        2.920    -0.027    28.668     8.780
    12   6 C        2.920    -0.029    28.723     8.789
    13   6 C        2.920    -0.026    28.648     8.777
    14   6 C        2.924    -0.030    28.759     8.794
    15   7 N        2.763    -0.111    23.415     7.187
    16   6 C        2.765     0.286    22.162     7.710
    17   6 C        3.166    -0.051    28.900     8.785
    18   6 C        2.942    -0.010    28.263     8.719
    19  16 S        2.306     0.008   140.719    19.965
    20   6 C        2.932    -0.071    29.759     8.947
    21   6 C        3.067     0.125    25.199     8.231
    22   8 O        1.704    -0.281    18.667     5.833
    23   6 C        3.650     0.038    20.243     6.463
    24   8 O        0.859    -0.414    21.957     6.282
    25   6 C        3.756     0.076    19.360     6.274
    26   6 C        2.684     0.350    21.052     7.509
    27   8 O        1.654    -0.369    20.267     6.077
    28   8 O        0.856    -0.372    21.136     6.164
    29   7 N        2.764    -0.102    23.233     7.159
    30   6 C        2.762     0.278    22.289     7.732
    31   6 C        3.174    -0.045    28.701     8.750
    32   6 C        2.936    -0.027    28.672     8.782
    33  16 S        2.310     0.004   140.887    19.977
    34   6 C        2.933    -0.070    29.755     8.946
    35   6 C        3.069     0.139    24.904     8.183
    36   8 O        1.704    -0.262    18.342     5.782
    37   6 C        3.654     0.035    20.286     6.467
    38   8 O        0.860    -0.451    22.736     6.393
    39   1 H        0.926     0.042     2.416     2.431
    40   1 H        0.926     0.043     2.403     2.424
    41   1 H        0.926     0.037     2.488     2.467
    42   1 H        0.926     0.039     2.456     2.451
    43   1 H        0.926     0.032     2.560     2.502
    44   1 H        0.923     0.050     2.323     2.384
    45   1 H        0.923     0.063     2.164     2.300
    46   1 H        0.926     0.038     2.469     2.457
    47   1 H        0.926     0.035     2.510     2.478
    48   1 H        0.926     0.036     2.498     2.471
    49   1 H        0.926     0.038     2.475     2.460
    50   1 H        0.926     0.035     2.520     2.482
    51   1 H        0.927     0.076     2.020     2.222
    52   1 H        0.927     0.053     2.287     2.365
    53   1 H        0.925     0.064     2.157     2.297
    54   1 H        0.924     0.042     2.427     2.436
    55   1 H        0.924     0.046     2.375     2.410
    56   1 H        0.923     0.078     2.001     2.212
    57   1 H        0.799     0.367     0.550     1.166
    58   1 H        0.926     0.057     2.240     2.340
    59   1 H        0.927     0.054     2.269     2.356
    60   1 H        0.925     0.072     2.062     2.246
    61   1 H        0.924     0.047     2.360     2.403
    62   1 H        0.924     0.042     2.424     2.435

Wiberg/Mayer (AO) data.
largest (>0.10) Wiberg bond orders for each atom

     #   Z sym  total        # sym  WBO       # sym  WBO       # sym  WBO
 ---------------------------------------------------------------------------
     1   6 C    3.991 --     2 C    1.446     6 C    1.410    39 H    0.967
                             4 C    0.112
     2   6 C    3.992 --     1 C    1.446     3 C    1.437    40 H    0.970
                             5 C    0.111
     3   6 C    3.990 --     4 C    1.439     2 C    1.437    41 H    0.971
                             6 C    0.109
     4   6 C    3.992 --     5 C    1.443     3 C    1.439    42 H    0.970
                             1 C    0.112
     5   6 C    3.991 --     4 C    1.443     6 C    1.413    43 H    0.968
                             2 C    0.111
     6   6 C    3.985 --     5 C    1.413     1 C    1.410     7 C    0.989
                             3 C    0.109
     7   6 C    3.961 --     6 C    0.989    29 N    0.956    44 H    0.954
                             8 C    0.952
     8   6 C    3.964 --     9 C    0.988    15 N    0.963     7 C    0.952
                            45 H    0.952
     9   6 C    3.985 --    14 C    1.415    10 C    1.411     8 C    0.988
                            12 C    0.110
    10   6 C    3.991 --    11 C    1.447     9 C    1.411    46 H    0.968
                            13 C    0.112
    11   6 C    3.992 --    10 C    1.447    12 C    1.437    47 H    0.971
                            14 C    0.111
    12   6 C    3.991 --    13 C    1.440    11 C    1.437    48 H    0.971
                             9 C    0.110
    13   6 C    3.992 --    14 C    1.443    12 C    1.440    49 H    0.971
                            10 C    0.112
    14   6 C    3.990 --    13 C    1.443     9 C    1.415    50 H    0.969
                            11 C    0.111
    15   7 N    3.443 --    16 C    1.179    25 C    1.003     8 C    0.963
                            24 O    0.180
    16   6 C    3.950 --    24 O    1.698    15 N    1.179    17 C    0.979
    17   6 C    3.978 --    18 C    1.588    21 C    1.180    16 C    0.979
    18   6 C    3.955 --    17 C    1.588    19 S    1.218    51 H    0.967
                            20 C    0.108
    19  16 S    2.643 --    18 C    1.218    20 C    1.169
    20   6 C    3.928 --    21 C    1.560    19 S    1.169    52 H    0.969
                            18 C    0.108
    21   6 C    3.932 --    20 C    1.560    17 C    1.180    22 O    1.043
    22   8 O    2.215 --    21 C    1.043    23 C    0.980
    23   6 C    3.942 --    53 H    0.980    22 O    0.980    55 H    0.978
                            54 H    0.978
    24   8 O    2.024 --    16 C    1.698    15 N    0.180
    25   6 C    3.957 --    15 N    1.003    29 N    0.966    56 H    0.930
                            26 C    0.886
    26   6 C    3.930 --    28 O    1.774    27 O    1.208    25 C    0.886
    27   8 O    2.236 --    26 C    1.208    57 H    0.762    28 O    0.182
    28   8 O    2.079 --    26 C    1.774    27 O    0.182
    29   7 N    3.513 --    30 C    1.280    25 C    0.966     7 C    0.956
                            38 O    0.190
    30   6 C    3.947 --    38 O    1.596    29 N    1.280    31 C    0.965
    31   6 C    3.978 --    32 C    1.599    35 C    1.172    30 C    0.965
                            33 S    0.107
    32   6 C    3.952 --    31 C    1.599    33 S    1.204    58 H    0.970
                            34 C    0.111
    33  16 S    2.634 --    32 C    1.204    34 C    1.168    31 C    0.107
    34   6 C    3.927 --    35 C    1.547    33 S    1.168    59 H    0.968
                            32 C    0.111
    35   6 C    3.938 --    34 C    1.547    31 C    1.172    36 O    1.071
    36   8 O    2.240 --    35 C    1.071    37 C    0.978
    37   6 C    3.939 --    60 H    0.979    36 O    0.978    61 H    0.977
                            62 H    0.976
    38   8 O    2.020 --    30 C    1.596    29 N    0.190
    39   1 H    0.998 --     1 C    0.967
    40   1 H    0.998 --     2 C    0.970
    41   1 H    0.998 --     3 C    0.971
    42   1 H    0.998 --     4 C    0.970
    43   1 H    0.999 --     5 C    0.968
    44   1 H    0.997 --     7 C    0.954
    45   1 H    0.996 --     8 C    0.952
    46   1 H    0.999 --    10 C    0.968
    47   1 H    0.998 --    11 C    0.971
    48   1 H    0.998 --    12 C    0.971
    49   1 H    0.998 --    13 C    0.971
    50   1 H    0.999 --    14 C    0.969
    51   1 H    0.994 --    18 C    0.967
    52   1 H    0.996 --    20 C    0.969
    53   1 H    0.996 --    23 C    0.980
    54   1 H    0.998 --    23 C    0.978
    55   1 H    0.998 --    23 C    0.978
    56   1 H    0.993 --    25 C    0.930
    57   1 H    0.865 --    27 O    0.762
    58   1 H    0.996 --    32 C    0.970
    59   1 H    0.996 --    34 C    0.968
    60   1 H    0.994 --    37 C    0.979
    61   1 H    0.998 --    37 C    0.977
    62   1 H    0.998 --    37 C    0.976
 ---------------------------------------------------------------------------

molecular dipole:
                 x           y           z       tot (Debye)
 q only:       -1.993      -0.316       1.235
   full:       -2.302      -0.106       1.414       6.873

           -------------------------------------------------
          | TOTAL ENERGY             -108.964021353087 Eh   |
          | GRADIENT NORM               0.000815709587 Eh/Î± |
          | HOMO-LUMO GAP               3.191321953989 eV   |
           -------------------------------------------------

 * finished run on 2022/03/16 at 22:18:49.921
