   * xtb version 6.3.3 (4ae9cef) compiled by 'conda@95abc7406d43' on 2020-10-14
          program call               : xtb sub_5.xyz --opt --chrg 0 --uhf 0 --gfn 2
          number of atoms            :                    28
          number of electrons        :                    84
          charge                     :                     0
          spin                       :                   0.0

   ID    Z sym.   atoms
    1   17 Cl     1
    2    6 C      2-4, 6, 8-17
    3    7 N      5, 7
    4    1 H      18-28

          :  Hamiltonian                  GFN2-xTB          :
 * total energy  :   -46.0020121 Eh     change       -0.2962096E-08 Eh
 * total energy  :   -46.0087000 Eh     change       -0.6687909E-02 Eh
 * total energy  :   -46.0099775 Eh     change       -0.1277478E-02 Eh
 * total energy  :   -46.0101189 Eh     change       -0.1414833E-03 Eh
 * total energy  :   -46.0101935 Eh     change       -0.7454231E-04 Eh
 * total energy  :   -46.0102358 Eh     change       -0.4234676E-04 Eh
 * total energy  :   -46.0102507 Eh     change       -0.1481977E-04 Eh
 * total energy  :   -46.0102590 Eh     change       -0.8350667E-05 Eh
 * total energy  :   -46.0102623 Eh     change       -0.3273997E-05 Eh
 * total energy  :   -46.0102652 Eh     change       -0.2897740E-05 Eh
   *** GEOMETRY OPTIMIZATION CONVERGED AFTER 10 ITERATIONS ***

 final structure:
================
28
 xtb: 6.3.3 (4ae9cef)
Cl        3.36464505175849    2.75594717425873    2.19659447155757
C         3.13377551593728    1.32492618511769    1.24947811968783
C         1.84983576850074    0.97495657322502    0.88192767893000
C         1.70340467638338   -0.17865982213743    0.12292852284671
N         0.57374236188573   -0.78747627165210   -0.39443995168756
C        -0.73998331994018   -0.35673532461322   -0.26089636876800
N        -0.93400025524083    0.75196782506973    0.44334548274451
C        -2.15887285824079    1.21149805780773    0.60529981627860
C        -3.29430655206606    0.60787297307974    0.08122027922201
C        -4.65864528507569    1.18611642888462    0.27971357416489
C        -3.08819044775693   -0.55534290078989   -0.65618111991908
C        -1.81234274565353   -1.04992087467608   -0.83498937315004
C         2.82744443872858   -0.95324629170111   -0.25209510434485
C         2.33291619064840   -2.05095764526320   -1.01436977197075
C         0.98652371751317   -1.91517851292914   -1.07607572920938
C         4.10685535130114   -0.56704780575104    0.13840952747799
C         4.25567085634448    0.57568405339523    0.89118154500797
H         0.99864282766873    1.56644572998067    1.16907673789009
H        -2.23225660718242    2.11687984797304    1.19473088090110
H        -5.41318958367249    0.40264713250833    0.28462318321308
H        -4.71153183072469    1.73797246593356    1.21515674375942
H        -4.89274298801527    1.87522199715668   -0.53253321899857
H        -3.93089315629223   -1.07553244514013   -1.08957675975072
H        -1.66654638141757   -1.95114476246932   -1.40627440025906
H         2.91651183880603   -2.83457742711713   -1.45458366471943
H         0.28486275737694   -2.55843068861020   -1.56764041430016
H         4.96543563158847   -1.15569245132929   -0.14593079448818
H         5.23323602683728    0.90180477978864    1.20959210788414

          :  Hamiltonian                  GFN2-xTB          :
         :: total energy             -46.010265177417 Eh    ::
         :: gradient norm              0.000686473308 Eh/a0 ::
         :: HOMO-LUMO gap              3.074572022082 eV    ::
         :: SCC energy               -46.748938851087 Eh    ::
         :: -> dispersion             -0.031471217951 Eh    ::
         :: repulsion energy           0.738799974966 Eh    ::

    * Orbital Energies and Occupations

         #    Occupation            Energy/Eh            Energy/eV
      -------------------------------------------------------------
         1        2.0000           -1.0434834             -28.3946
       ...           ...                  ...                  ...
        30        2.0000           -0.4746571             -12.9161
        31        2.0000           -0.4696677             -12.7803
        32        2.0000           -0.4532602             -12.3338
        33        2.0000           -0.4429601             -12.0536
        34        2.0000           -0.4421494             -12.0315
        35        2.0000           -0.4398667             -11.9694
        36        2.0000           -0.4293152             -11.6823
        37        2.0000           -0.4173236             -11.3560
        38        2.0000           -0.4138031             -11.2602
        39        2.0000           -0.4068536             -11.0710
        40        2.0000           -0.3837207             -10.4416
        41        2.0000           -0.3760928             -10.2340
        42        2.0000           -0.3702599             -10.0753 (HOMO)
        43                         -0.2572715              -7.0007 (LUMO)
        44                         -0.2488543              -6.7717
        45                         -0.2338056              -6.3622
        46                         -0.2013799              -5.4798
        47                         -0.1648528              -4.4859
        48                         -0.1270176              -3.4563
        49                         -0.1075885              -2.9276
        50                         -0.0800093              -2.1772
        51                          0.0124407               0.3385
        52                          0.0303290               0.8253
        53                          0.0333386               0.9072
       ...                                ...                  ...
        84                          0.7219125              19.6442
      -------------------------------------------------------------
                  HL-Gap            0.1129884 Eh            3.0746 eV

     #   Z          covCN         q      C6AA      Î±(0)
     1  17 Cl       0.974    -0.189   105.100    15.684
     2   6 C        2.895     0.093    25.929     8.349
     3   6 C        2.950    -0.057    29.413     8.895
     4   6 C        3.091     0.046    26.866     8.496
     5   7 N        2.823    -0.009    21.430     6.875
     6   6 C        2.895     0.141    24.918     8.184
     7   7 N        1.845    -0.244    27.219     7.732
     8   6 C        2.910     0.052    26.838     8.495
     9   6 C        2.960     0.001    28.006     8.680
    10   6 C        3.757    -0.110    22.659     6.787
    11   6 C        2.935    -0.022    28.564     8.765
    12   6 C        2.914    -0.059    29.477     8.903
    13   6 C        3.113    -0.011    28.121     8.687
    14   6 C        2.999    -0.065    29.605     8.925
    15   6 C        3.038    -0.006    28.137     8.700
    16   6 C        2.914    -0.035    28.874     8.811
    17   6 C        2.956    -0.048    29.191     8.862
    18   1 H        0.926     0.083     1.951     2.184
    19   1 H        0.925     0.042     2.422     2.434
    20   1 H        0.925     0.047     2.354     2.399
    21   1 H        0.925     0.048     2.348     2.396
    22   1 H        0.924     0.053     2.289     2.366
    23   1 H        0.926     0.037     2.484     2.465
    24   1 H        0.926     0.038     2.474     2.460
    25   1 H        0.926     0.039     2.456     2.450
    26   1 H        0.926     0.040     2.452     2.449
    27   1 H        0.926     0.043     2.403     2.424
    28   1 H        0.926     0.052     2.296     2.369

Wiberg/Mayer (AO) data.
largest (>0.10) Wiberg bond orders for each atom

     #   Z sym  total        # sym  WBO       # sym  WBO       # sym  WBO
 ---------------------------------------------------------------------------
     1  17 Cl   1.088 --     2 C    0.964
     2   6 C    3.909 --     3 C    1.444    17 C    1.353     1 Cl   0.964
     3   6 C    3.984 --     2 C    1.444     4 C    1.356    18 H    0.955
                            16 C    0.107
     4   6 C    3.959 --     3 C    1.356    13 C    1.257     5 N    1.125
     5   7 N    3.635 --    15 C    1.150     4 C    1.125     6 C    1.090
     6   6 C    3.968 --     7 N    1.369    12 C    1.333     5 N    1.090
     7   7 N    3.068 --     8 C    1.441     6 C    1.369
     8   6 C    3.981 --     7 N    1.441     9 C    1.399    19 H    0.961
                            12 C    0.109
     9   6 C    3.973 --     8 C    1.399    11 C    1.389    10 C    1.028
    10   6 C    3.995 --     9 C    1.028    21 H    0.981    20 H    0.981
                            22 H    0.966
    11   6 C    3.990 --    12 C    1.477     9 C    1.389    23 H    0.968
    12   6 C    3.986 --    11 C    1.477     6 C    1.333    24 H    0.963
                             8 C    0.109
    13   6 C    3.982 --    16 C    1.339     4 C    1.257    14 C    1.201
    14   6 C    3.972 --    15 C    1.643    13 C    1.201    25 H    0.972
    15   6 C    3.946 --    14 C    1.643     5 N    1.150    26 H    0.964
    16   6 C    3.990 --    17 C    1.492    13 C    1.339    27 H    0.968
                             3 C    0.107
    17   6 C    3.983 --    16 C    1.492     2 C    1.353    28 H    0.968
    18   1 H    0.993 --     3 C    0.955
    19   1 H    0.998 --     8 C    0.961
    20   1 H    0.997 --    10 C    0.981
    21   1 H    0.997 --    10 C    0.981
    22   1 H    0.995 --    10 C    0.966
    23   1 H    0.998 --    11 C    0.968
    24   1 H    0.998 --    12 C    0.963
    25   1 H    0.997 --    14 C    0.972
    26   1 H    0.998 --    15 C    0.964
    27   1 H    0.998 --    16 C    0.968
    28   1 H    0.997 --    17 C    0.968
 ---------------------------------------------------------------------------

molecular dipole:
                 x           y           z       tot (Debye)
 q only:       -1.056      -0.842      -0.679
   full:       -1.467      -0.934      -0.797       4.863

           -------------------------------------------------
          | TOTAL ENERGY              -46.010265177417 Eh   |
          | GRADIENT NORM               0.000686473308 Eh/Î± |
          | HOMO-LUMO GAP               3.074572022082 eV   |
           -------------------------------------------------

 * finished run on 2022/03/17 at 02:20:27.468
