   * xtb version 6.3.3 (4ae9cef) compiled by 'conda@95abc7406d43' on 2020-10-14
          program call               : xtb acid_53.xyz --opt --chrg 0 --uhf 0 --gfn 2
          number of atoms            :                    72
          number of electrons        :                   218
          charge                     :                     0
          spin                       :                   0.0

   ID    Z sym.   atoms
    1    6 C      1-22, 24-29, 32, 33, 37-42
    2    7 N      23, 36
    3    8 O      30, 31, 34, 35, 43, 44
    4    1 H      45-72

          :  Hamiltonian                  GFN2-xTB          :
 * total energy  :  -121.6527833 Eh     change       -0.1292250E-08 Eh
 * total energy  :  -121.6684806 Eh     change       -0.1569730E-01 Eh
 * total energy  :  -121.6735866 Eh     change       -0.5105921E-02 Eh
 * total energy  :  -121.6750547 Eh     change       -0.1468176E-02 Eh
 * total energy  :  -121.6759956 Eh     change       -0.9408465E-03 Eh
 * total energy  :  -121.6765725 Eh     change       -0.5768609E-03 Eh
 * total energy  :  -121.6771732 Eh     change       -0.6007703E-03 Eh
 * total energy  :  -121.6777771 Eh     change       -0.6039217E-03 Eh
 * total energy  :  -121.6783666 Eh     change       -0.5894471E-03 Eh
 * total energy  :  -121.6789138 Eh     change       -0.5472179E-03 Eh
 * total energy  :  -121.6844356 Eh     change       -0.1664265E-04 Eh
 * total energy  :  -121.6844531 Eh     change       -0.1747777E-04 Eh
 * total energy  :  -121.6844313 Eh     change        0.2173998E-04 Eh
 * total energy  :  -121.6844608 Eh     change       -0.2945750E-04 Eh
 * total energy  :  -121.6844710 Eh     change       -0.1017991E-04 Eh
 * total energy  :  -121.6844766 Eh     change       -0.5663147E-05 Eh
 * total energy  :  -121.6844771 Eh     change       -0.5014975E-06 Eh
 * total energy  :  -121.6844838 Eh     change       -0.6705300E-05 Eh
 * total energy  :  -121.6844856 Eh     change       -0.1748613E-05 Eh
   *** GEOMETRY OPTIMIZATION CONVERGED AFTER 44 ITERATIONS ***

 final structure:
================
72
 xtb: 6.3.3 (4ae9cef)
C         1.33373226947553   -5.39772809586588    0.15800037847666
C         0.15369933107188   -5.60194726161578   -0.49715490327710
C        -0.54585820999089   -4.50818693717976   -1.02577322031174
C        -0.06378530768299   -3.23707743774599   -0.88464838803604
C         1.14423677098339   -2.98300641043608   -0.19770991007725
C         1.85683470946165   -4.09802248597522    0.32586179628171
C         3.07059151868359   -3.89373135704567    1.01320201450037
C         3.56136818475695   -2.63309258368515    1.19441875822487
C         2.85327017217336   -1.52966482815196    0.70374338628887
C         1.67899655395759   -1.68327701217954    0.01073915033808
C         0.92256770401134   -0.45792972967291   -0.43308736708059
C         0.00162002188873    0.04489713543001    0.70304892156940
C        -1.31833009343672   -0.67569597040627    0.70175130299840
C        -1.49894659646271   -1.64096590307522    1.66240779897965
C        -2.68399701006213   -2.38070700355002    1.74626435214055
C        -3.70761620222335   -2.12337959940734    0.88090803754132
C        -3.56153638155619   -1.15625953195489   -0.13372844812902
C        -2.33587988598659   -0.44337635342506   -0.26421520984675
C        -2.20585637090409    0.45145634018917   -1.35071664328640
C        -3.24332446341919    0.66851644239491   -2.21471795208588
C        -4.46620744981039    0.00441289323149   -2.05003129973238
C        -4.61430481527111   -0.89842872537942   -1.03657630818603
N         0.00108320725883    1.48379573450788    0.50829500219963
C        -0.99184234073641    2.39558741984508    0.61680773172323
C        -2.17052564271951    2.05619416437599    1.40899490056898
C        -3.45151763754971    2.53020972447350    1.28741537978530
C        -4.19842007498430    1.90154742417648    2.30332736748094
C        -3.32482646418943    1.10286904711190    2.98883686645441
C        -3.51818757303243    0.20549428192211    4.15557420574680
O        -2.09580652780342    1.19386847620103    2.45088948921256
O        -0.87055812964459    3.49157767523212    0.07947502206985
C         1.21277931070076    1.90731609925204   -0.17299412917814
C         0.84606631405547    2.89070657182060   -1.31049473626734
O         1.44116289951980    4.07188033282818   -1.17177928043638
O         0.23702046392399    2.55044621027840   -2.28965378776276
N         1.78899889293701    0.68514186940383   -0.68460507062292
C         2.69036230259069    0.58632631864107   -1.71109374787460
C         3.56164182150197    1.74363339185786   -1.93064233715859
C         4.29737199405791    2.05919223086865   -3.04405602343662
C         4.98091414708433    3.25429111761799   -2.73939901420502
C         4.63183270940701    3.58314538826074   -1.45875943746280
C         5.01928031228150    4.72357976194284   -0.59024021840344
O         3.77677313925780    2.67007980941115   -0.96386126100566
O         2.79812002573060   -0.43452221754640   -2.36285381723034
H         1.88992037091965   -6.23171821118731    0.56240482576822
H        -0.24254047421771   -6.59937471118371   -0.61882412330025
H        -1.47400468063483   -4.67490849556539   -1.55254391844547
H        -0.62660298402012   -2.42352997378819   -1.31264254561439
H         3.60153709898869   -4.75369628791749    1.39563649081634
H         4.49073221205410   -2.47369099366104    1.72099271408630
H         3.24945661050414   -0.53812081068201    0.86843494241402
H         0.35118866011112   -0.67280946035888   -1.34238173595912
H         0.50268162818567   -0.16120935917790    1.66166827048324
H        -0.71332743617483   -1.83223063439241    2.37902767911252
H        -2.78082011624669   -3.14082444809657    2.50744875186676
H        -4.64156076083450   -2.66192543093298    0.95248740138159
H        -1.28271396886275    0.97437824931805   -1.53299790909950
H        -3.11284335094355    1.35881553169003   -3.03384066227227
H        -5.27790479459205    0.19920568758015   -2.73515448512483
H        -5.54163493315160   -1.43911519541349   -0.91067398311573
H        -3.79650581469522    3.22531818157843    0.55119642323403
H        -5.24184217429681    2.02673976991753    2.50497914200592
H        -2.67796163574812    0.29710529926781    4.84011920651746
H        -3.57222508486036   -0.83169205999417    3.82435729906080
H        -4.43822870374215    0.45941778922086    4.67261051847450
H         1.88834471115178    2.42043291674596    0.52871668190554
H         1.14535731816198    4.67298444483538   -1.87318006017948
H         4.32412217494615    1.49908649259376   -3.95511598500425
H         5.64430290332382    3.79757690008288   -3.38022452008077
H         5.60643194911653    4.37536193441242    0.25894238862547
H         5.60770211264869    5.43731599830263   -1.15804447322742
H         4.12593956360331    5.21193945984839   -0.20457368583483

          :  Hamiltonian                  GFN2-xTB          :
         :: total energy            -121.684485595972 Eh    ::
         :: gradient norm              0.000844518504 Eh/a0 ::
         :: HOMO-LUMO gap              2.839120731602 eV    ::
         :: SCC energy              -123.508864198465 Eh    ::
         :: -> dispersion             -0.110287226910 Eh    ::
         :: repulsion energy           1.820681745879 Eh    ::

    * Orbital Energies and Occupations

         #    Occupation            Energy/Eh            Energy/eV
      -------------------------------------------------------------
         1        2.0000           -0.7520915             -20.4655
       ...           ...                  ...                  ...
        97        2.0000           -0.4208493             -11.4519
        98        2.0000           -0.4180056             -11.3745
        99        2.0000           -0.4173776             -11.3574
       100        2.0000           -0.4127105             -11.2304
       101        2.0000           -0.4065494             -11.0628
       102        2.0000           -0.4029980             -10.9661
       103        2.0000           -0.3998013             -10.8791
       104        2.0000           -0.3989257             -10.8553
       105        2.0000           -0.3960543             -10.7772
       106        2.0000           -0.3895637             -10.6006
       107        2.0000           -0.3850050             -10.4765
       108        2.0000           -0.3839831             -10.4487
       109        2.0000           -0.3742701             -10.1844 (HOMO)
       110                         -0.2699344              -7.3453 (LUMO)
       111                         -0.2622515              -7.1362
       112                         -0.2578651              -7.0169
       113                         -0.2531233              -6.8878
       114                         -0.2347553              -6.3880
       115                         -0.2317597              -6.3065
       116                         -0.2275134              -6.1910
       117                         -0.1985982              -5.4041
       118                         -0.1928714              -5.2483
       119                         -0.1892666              -5.1502
       120                         -0.1834175              -4.9910
       ...                                ...                  ...
       204                          0.7092944              19.3009
      -------------------------------------------------------------
                  HL-Gap            0.1043358 Eh            2.8391 eV

     #   Z          covCN         q      C6AA      Î±(0)
     1   6 C        2.921    -0.034    28.856     8.809
     2   6 C        2.915    -0.029    28.732     8.790
     3   6 C        2.917    -0.029    28.716     8.787
     4   6 C        2.917    -0.033    28.818     8.803
     5   6 C        2.984     0.012    27.748     8.641
     6   6 C        2.989     0.016    27.649     8.625
     7   6 C        2.920    -0.036    28.899     8.816
     8   6 C        2.914    -0.029    28.731     8.790
     9   6 C        2.922    -0.032    28.799     8.800
    10   6 C        2.969     0.006    27.888     8.662
    11   6 C        3.834     0.051    19.705     6.316
    12   6 C        3.826     0.044    19.820     6.335
    13   6 C        2.966    -0.000    28.035     8.685
    14   6 C        2.926    -0.034    28.836     8.806
    15   6 C        2.913    -0.032    28.800     8.800
    16   6 C        2.921    -0.037    28.918     8.819
    17   6 C        2.988     0.013    27.719     8.636
    18   6 C        2.983     0.007    27.847     8.656
    19   6 C        2.916    -0.041    29.007     8.832
    20   6 C        2.917    -0.025    28.631     8.774
    21   6 C        2.915    -0.028    28.689     8.783
    22   6 C        2.921    -0.035    28.878     8.812
    23   7 N        2.762    -0.106    23.321     7.172
    24   6 C        2.766     0.267    22.488     7.766
    25   6 C        3.107     0.082    26.036     8.360
    26   6 C        3.014    -0.048    29.159     8.858
    27   6 C        3.017    -0.074    29.823     8.958
    28   6 C        3.098     0.126    25.136     8.216
    29   6 C        3.753    -0.120    22.864     6.818
    30   8 O        1.730    -0.192    17.208     5.601
    31   8 O        0.865    -0.433    22.353     6.339
    32   6 C        3.770     0.096    19.021     6.215
    33   6 C        2.691     0.374    20.666     7.440
    34   8 O        1.659    -0.364    20.159     6.061
    35   8 O        0.856    -0.413    21.944     6.281
    36   7 N        2.761    -0.124    23.688     7.229
    37   6 C        2.762     0.266    22.514     7.770
    38   6 C        3.100     0.073    26.254     8.397
    39   6 C        3.014    -0.047    29.153     8.857
    40   6 C        3.013    -0.075    29.850     8.962
    41   6 C        3.094     0.127    25.117     8.214
    42   6 C        3.753    -0.121    22.876     6.820
    43   8 O        1.730    -0.199    17.316     5.619
    44   8 O        0.859    -0.420    22.081     6.300
    45   1 H        0.926     0.034     2.528     2.486
    46   1 H        0.926     0.032     2.551     2.498
    47   1 H        0.926     0.031     2.566     2.505
    48   1 H        0.926     0.030     2.589     2.516
    49   1 H        0.926     0.036     2.507     2.476
    50   1 H        0.926     0.035     2.521     2.483
    51   1 H        0.926     0.033     2.550     2.497
    52   1 H        0.924     0.066     2.131     2.283
    53   1 H        0.923     0.051     2.308     2.376
    54   1 H        0.926     0.030     2.590     2.517
    55   1 H        0.926     0.032     2.554     2.499
    56   1 H        0.926     0.036     2.507     2.476
    57   1 H        0.926     0.054     2.266     2.354
    58   1 H        0.926     0.044     2.392     2.418
    59   1 H        0.926     0.035     2.518     2.482
    60   1 H        0.926     0.033     2.541     2.493
    61   1 H        0.927     0.059     2.208     2.324
    62   1 H        0.927     0.047     2.358     2.401
    63   1 H        0.925     0.068     2.111     2.272
    64   1 H        0.925     0.068     2.112     2.273
    65   1 H        0.925     0.062     2.171     2.304
    66   1 H        0.923     0.072     2.069     2.249
    67   1 H        0.804     0.342     0.607     1.224
    68   1 H        0.927     0.060     2.196     2.317
    69   1 H        0.926     0.044     2.393     2.419
    70   1 H        0.925     0.066     2.135     2.285
    71   1 H        0.925     0.060     2.204     2.321
    72   1 H        0.925     0.072     2.063     2.246

Wiberg/Mayer (AO) data.
largest (>0.10) Wiberg bond orders for each atom

     #   Z sym  total        # sym  WBO       # sym  WBO       # sym  WBO
 ---------------------------------------------------------------------------
     1   6 C    3.991 --     2 C    1.557     6 C    1.279    45 H    0.968
                             4 C    0.119
     2   6 C    3.992 --     1 C    1.557     3 C    1.322    46 H    0.971
     3   6 C    3.992 --     4 C    1.555     2 C    1.322    47 H    0.971
     4   6 C    3.992 --     3 C    1.555     5 C    1.283    48 H    0.961
                             1 C    0.119
     5   6 C    3.989 --     4 C    1.283    10 C    1.254     6 C    1.252
     6   6 C    3.990 --     7 C    1.280     1 C    1.279     5 C    1.252
     7   6 C    3.990 --     8 C    1.552     6 C    1.280    49 H    0.968
                            10 C    0.115
     8   6 C    3.992 --     7 C    1.552     9 C    1.328    50 H    0.970
     9   6 C    3.990 --    10 C    1.522     8 C    1.328    51 H    0.967
    10   6 C    3.983 --     9 C    1.522     5 C    1.254    11 C    0.992
                             7 C    0.115
    11   6 C    3.962 --    10 C    0.992    36 N    0.961    52 H    0.944
                            12 C    0.941
    12   6 C    3.961 --    13 C    0.997    23 N    0.959    53 H    0.951
                            11 C    0.941
    13   6 C    3.984 --    14 C    1.516    18 C    1.252    12 C    0.997
                            16 C    0.114
    14   6 C    3.989 --    13 C    1.516    15 C    1.328    54 H    0.967
    15   6 C    3.992 --    16 C    1.549    14 C    1.328    55 H    0.970
    16   6 C    3.990 --    15 C    1.549    17 C    1.281    56 H    0.968
                            13 C    0.114
    17   6 C    3.990 --    16 C    1.281    22 C    1.279    18 C    1.250
    18   6 C    3.989 --    19 C    1.283    13 C    1.252    17 C    1.250
    19   6 C    3.990 --    20 C    1.551    18 C    1.283    57 H    0.958
                            22 C    0.119
    20   6 C    3.991 --    19 C    1.551    21 C    1.324    58 H    0.970
    21   6 C    3.992 --    22 C    1.556    20 C    1.324    59 H    0.970
    22   6 C    3.991 --    21 C    1.556    17 C    1.279    60 H    0.968
                            19 C    0.119
    23   7 N    3.475 --    24 C    1.226    32 C    0.972    12 C    0.959
                            31 O    0.180
    24   6 C    3.956 --    31 O    1.592    23 N    1.226    25 C    1.032
    25   6 C    3.906 --    26 C    1.522    30 O    1.093    24 C    1.032
                            28 C    0.128
    26   6 C    3.984 --    25 C    1.522    27 C    1.322    61 H    0.973
    27   6 C    3.979 --    28 C    1.543    26 C    1.322    62 H    0.974
    28   6 C    3.910 --    27 C    1.543    30 O    1.131    29 C    1.032
                            25 C    0.128
    29   6 C    3.991 --    28 C    1.032    65 H    0.981    63 H    0.973
                            64 H    0.959
    30   8 O    2.433 --    28 C    1.131    25 C    1.093
    31   8 O    2.041 --    24 C    1.592    23 N    0.180
    32   6 C    3.962 --    36 N    0.985    23 N    0.972    66 H    0.945
                            33 C    0.908
    33   6 C    3.923 --    35 O    1.738    34 O    1.144    32 C    0.908
    34   8 O    2.204 --    33 C    1.144    67 H    0.858    35 O    0.163
    35   8 O    2.039 --    33 C    1.738    34 O    0.163
    36   7 N    3.430 --    37 C    1.171    32 C    0.985    11 C    0.961
                            44 O    0.178
    37   6 C    3.958 --    44 O    1.666    36 N    1.171    38 C    1.028
    38   6 C    3.904 --    39 C    1.527    43 O    1.091    37 C    1.028
                            41 C    0.128
    39   6 C    3.985 --    38 C    1.527    40 C    1.319    68 H    0.972
    40   6 C    3.980 --    41 C    1.546    39 C    1.319    69 H    0.974
    41   6 C    3.911 --    40 C    1.546    43 O    1.129    42 C    1.031
                            38 C    0.128
    42   6 C    3.992 --    41 C    1.031    71 H    0.983    72 H    0.968
                            70 H    0.966
    43   8 O    2.427 --    41 C    1.129    38 C    1.091
    44   8 O    2.009 --    37 C    1.666    36 N    0.178
    45   1 H    0.998 --     1 C    0.968
    46   1 H    0.998 --     2 C    0.971
    47   1 H    0.999 --     3 C    0.971
    48   1 H    0.999 --     4 C    0.961
    49   1 H    0.998 --     7 C    0.968
    50   1 H    0.998 --     8 C    0.970
    51   1 H    0.998 --     9 C    0.967
    52   1 H    0.995 --    11 C    0.944
    53   1 H    0.997 --    12 C    0.951
    54   1 H    0.999 --    14 C    0.967
    55   1 H    0.998 --    15 C    0.970
    56   1 H    0.998 --    16 C    0.968
    57   1 H    0.997 --    19 C    0.958
    58   1 H    0.998 --    20 C    0.970
    59   1 H    0.998 --    21 C    0.970
    60   1 H    0.998 --    22 C    0.968
    61   1 H    0.996 --    26 C    0.973
    62   1 H    0.997 --    27 C    0.974
    63   1 H    0.995 --    29 C    0.973
    64   1 H    0.994 --    29 C    0.959
    65   1 H    0.996 --    29 C    0.981
    66   1 H    0.993 --    32 C    0.945
    67   1 H    0.882 --    34 O    0.858
    68   1 H    0.996 --    39 C    0.972
    69   1 H    0.998 --    40 C    0.974
    70   1 H    0.994 --    42 C    0.966
    71   1 H    0.996 --    42 C    0.983
    72   1 H    0.994 --    42 C    0.968
 ---------------------------------------------------------------------------

molecular dipole:
                 x           y           z       tot (Debye)
 q only:       -0.513      -0.119       1.961
   full:       -0.544       0.153       2.008       5.302

           -------------------------------------------------
          | TOTAL ENERGY             -121.684485595972 Eh   |
          | GRADIENT NORM               0.000844518504 Eh/Î± |
          | HOMO-LUMO GAP               2.839120731602 eV   |
           -------------------------------------------------

 * finished run on 2022/03/17 at 01:48:16.750
