   * xtb version 6.3.3 (4ae9cef) compiled by 'conda@95abc7406d43' on 2020-10-14
          program call               : xtb acid_45.xyz --opt --chrg 0 --uhf 0 --gfn 2
          number of atoms            :                    74
          number of electrons        :                   230
          charge                     :                     0
          spin                       :                   0.0

   ID    Z sym.   atoms
    1    6 C      1-22, 24-26, 28, 29, 31, 33, 34, 38-40, 42, 43, 45
    2    7 N      23, 37
    3   16 S      27, 41
    4    8 O      30, 32, 35, 36, 44, 46
    5    1 H      47-74

          :  Hamiltonian                  GFN2-xTB          :
 * total energy  :  -128.1279896 Eh     change       -0.1949246E-08 Eh
 * total energy  :  -128.1435500 Eh     change       -0.1556035E-01 Eh
 * total energy  :  -128.1481551 Eh     change       -0.4605121E-02 Eh
 * total energy  :  -128.1498919 Eh     change       -0.1736823E-02 Eh
 * total energy  :  -128.1514595 Eh     change       -0.1567635E-02 Eh
 * total energy  :  -128.1524541 Eh     change       -0.9945501E-03 Eh
 * total energy  :  -128.1530987 Eh     change       -0.6446153E-03 Eh
 * total energy  :  -128.1535895 Eh     change       -0.4908337E-03 Eh
 * total energy  :  -128.1540268 Eh     change       -0.4372921E-03 Eh
 * total energy  :  -128.1544077 Eh     change       -0.3808347E-03 Eh
 * total energy  :  -128.1572827 Eh     change       -0.5640561E-04 Eh
 * total energy  :  -128.1573367 Eh     change       -0.5397151E-04 Eh
 * total energy  :  -128.1573733 Eh     change       -0.3660918E-04 Eh
 * total energy  :  -128.1574045 Eh     change       -0.3117630E-04 Eh
 * total energy  :  -128.1574211 Eh     change       -0.1664023E-04 Eh
 * total energy  :  -128.1574369 Eh     change       -0.1579718E-04 Eh
 * total energy  :  -128.1574436 Eh     change       -0.6715857E-05 Eh
 * total energy  :  -128.1574495 Eh     change       -0.5917637E-05 Eh
 * total energy  :  -128.1574499 Eh     change       -0.3775071E-06 Eh
   *** GEOMETRY OPTIMIZATION CONVERGED AFTER 44 ITERATIONS ***

 final structure:
================
74
 xtb: 6.3.3 (4ae9cef)
C         2.11695758210590    0.65672654962607    1.60145911687695
C         3.13356038271553    0.42818343844537    2.48180241730074
C         3.53107067741143   -0.88730050173652    2.80264853980414
C         4.60797157294629   -1.15691323236173    3.67076807274644
C         4.97176738816482   -2.44434333281761    3.95157230991264
C         4.27109970663570   -3.51955748709914    3.38340624885889
C         3.21863240935023   -3.29064004059045    2.54214454951282
C         2.82459162942643   -1.97440200872808    2.22554983809845
C         1.77154571821578   -1.70516501985410    1.32874868250223
C         1.44094520383432   -0.42009806503427    0.99255806330047
C         0.35752643674857   -0.14021655742228   -0.01279196129508
C        -0.89289129358842    0.47496502125185    0.65644785550509
C        -2.03376296115592   -0.51279318965682    0.67474886421480
C        -2.88506261583467   -0.64651307497991   -0.38928953009047
C        -3.92266614810789   -1.59983752476325   -0.36659706090103
C        -4.81969686264383   -1.74386213738156   -1.44562878962043
C        -5.81856289814099   -2.67559630063341   -1.40045887263031
C        -5.96573837505407   -3.50441676321159   -0.27652421058723
C        -5.11096452109355   -3.38955073187654    0.78390739662994
C        -4.06966607076319   -2.43874252309432    0.76841538764470
C        -3.16855186171147   -2.28761008124350    1.84307174198112
C        -2.17850839810712   -1.34877139750656    1.79835941848919
N        -1.16763216395419    1.67421169213879   -0.11521728452639
C        -2.22212042195956    2.46440732475610    0.21664865047118
C        -2.45078768632497    3.65109269231889   -0.65195159666286
C        -3.63857555487648    3.84427235521701   -1.28669233809385
S        -3.68240266833105    5.30573976208992   -2.17201393653456
C        -2.08904401455036    5.70998532024850   -1.66278535770031
C        -1.55351374259661    4.74551465549401   -0.86358103516024
O        -0.32132463627120    4.74922563983060   -0.27741947184321
C         0.46011613671670    5.90854454928509   -0.45583066609290
O        -2.94238841247168    2.19700766879760    1.15491691291725
C        -0.23656478345796    1.88334692865576   -1.18338173633295
C        -0.90215704493328    1.81506840537009   -2.59167759334247
O        -0.10100998051447    2.14957841802439   -3.57983487952466
O        -2.05291044100708    1.51557026499535   -2.74013288498852
N         0.76459154254162    0.84480168265005   -1.00252800650893
C         1.96113318297404    0.96321590422446   -1.60062461465604
C         2.98770790094279   -0.06131851850260   -1.31406748241067
C         4.23899530919596    0.24958858777767   -0.87621266120018
S         5.22413839039357   -1.13140083677714   -0.67341098690814
C         3.96739125110898   -2.16185887129749   -1.24054359059852
C         2.83586211486970   -1.46676719698487   -1.54304460658551
O         1.66608704803628   -1.94991800498944   -2.02707427206883
C         1.61247379579835   -3.33206591578072   -2.29764758145432
O         2.19416121839766    1.90565599337179   -2.36106277146237
H         1.82766843271730    1.66733812578113    1.35079125124966
H         3.65648794793064    1.25477338302678    2.94041594715121
H         5.14340392165467   -0.32600259231376    4.10690438847554
H         5.80093527027233   -2.64433016863542    4.61375870625141
H         4.57202774894964   -4.53000985569029    3.61744766130330
H         2.67475990827573   -4.11471035017889    2.10244085086703
H         1.23444513938156   -2.53465905183491    0.89023017616850
H         0.07735476247710   -1.06720423322709   -0.52885034007950
H        -0.67016273854453    0.77099531490855    1.69117252975427
H        -2.78892491963050   -0.01095592412692   -1.25723792053694
H        -4.69959733712194   -1.09936627685421   -2.30434638569032
H        -6.50461798967621   -2.78135037687418   -2.22828521242691
H        -6.76292571632790   -4.23347919617377   -0.25756699968161
H        -5.22205824363404   -4.02406977941804    1.65209686523150
H        -3.28003977822400   -2.92457704578511    2.70911477839369
H        -1.49584255386178   -1.23346124982166    2.62855058516387
H        -4.47919266800038    3.18094016074342   -1.29324162613168
H        -1.65715002766648    6.63454003782640   -1.98650281014232
H         0.70728051244196    6.06092772054318   -1.51124816804969
H        -0.05527860430568    6.79373614237438   -0.07268524976245
H         1.37409127472240    5.74360345298939    0.11211013119728
H         0.25686749504917    2.86804729886100   -1.10252944783855
H         0.84633065424167    2.25246268949317   -3.27535753933095
H         4.61691643947132    1.22278705300175   -0.63702624863326
H         4.15170034321180   -3.21374164353006   -1.30999462423210
H         0.61233714056028   -3.52242656060757   -2.68228091061820
H         1.77588145210046   -3.92007530375430   -1.38897549715933
H         2.35547609245820   -3.61677731099994   -3.04805517787462

          :  Hamiltonian                  GFN2-xTB          :
         :: total energy            -128.157449912012 Eh    ::
         :: gradient norm              0.000422930035 Eh/a0 ::
         :: HOMO-LUMO gap              2.582858851905 eV    ::
         :: SCC energy              -129.988595189240 Eh    ::
         :: -> dispersion             -0.114442457788 Eh    ::
         :: repulsion energy           1.827659267234 Eh    ::

    * Orbital Energies and Occupations

         #    Occupation            Energy/Eh            Energy/eV
      -------------------------------------------------------------
         1        2.0000           -0.7510874             -20.4381
       ...           ...                  ...                  ...
       103        2.0000           -0.4214982             -11.4696
       104        2.0000           -0.4196715             -11.4198
       105        2.0000           -0.4135919             -11.2544
       106        2.0000           -0.4105694             -11.1722
       107        2.0000           -0.4083824             -11.1126
       108        2.0000           -0.4017220             -10.9314
       109        2.0000           -0.4012639             -10.9189
       110        2.0000           -0.3965031             -10.7894
       111        2.0000           -0.3932825             -10.7018
       112        2.0000           -0.3909506             -10.6383
       113        2.0000           -0.3889775             -10.5846
       114        2.0000           -0.3822298             -10.4010
       115        2.0000           -0.3742686             -10.1844 (HOMO)
       116                         -0.2793503              -7.6015 (LUMO)
       117                         -0.2723753              -7.4117
       118                         -0.2561354              -6.9698
       119                         -0.2506624              -6.8209
       120                         -0.2503353              -6.8120
       121                         -0.2436428              -6.6299
       122                         -0.2403875              -6.5413
       123                         -0.2258825              -6.1466
       124                         -0.2195474              -5.9742
       125                         -0.2172646              -5.9121
       126                         -0.2074566              -5.6452
       ...                                ...                  ...
       222                          0.7011477              19.0792
      -------------------------------------------------------------
                  HL-Gap            0.0949183 Eh            2.5829 eV

     #   Z          covCN         q      C6AA      Î±(0)
     1   6 C        2.919    -0.037    28.918     8.818
     2   6 C        2.917    -0.034    28.848     8.808
     3   6 C        2.988     0.014    27.704     8.634
     4   6 C        2.918    -0.032    28.806     8.801
     5   6 C        2.916    -0.027    28.680     8.782
     6   6 C        2.916    -0.027    28.676     8.781
     7   6 C        2.919    -0.034    28.845     8.807
     8   6 C        2.987     0.014    27.690     8.632
     9   6 C        2.923    -0.041    29.023     8.835
    10   6 C        2.970    -0.002    28.074     8.691
    11   6 C        3.817     0.037    19.935     6.355
    12   6 C        3.824     0.048    19.749     6.324
    13   6 C        2.970     0.006    27.873     8.660
    14   6 C        2.922    -0.040    28.996     8.830
    15   6 C        2.988     0.017    27.630     8.622
    16   6 C        2.919    -0.033    28.832     8.805
    17   6 C        2.916    -0.030    28.741     8.791
    18   6 C        2.916    -0.030    28.747     8.792
    19   6 C        2.918    -0.035    28.876     8.812
    20   6 C        2.987     0.013    27.722     8.637
    21   6 C        2.917    -0.034    28.856     8.809
    22   6 C        2.919    -0.035    28.867     8.811
    23   7 N        2.760    -0.106    23.314     7.171
    24   6 C        2.763     0.282    22.229     7.721
    25   6 C        3.164    -0.051    28.903     8.787
    26   6 C        2.943    -0.010    28.266     8.720
    27  16 S        2.306     0.010   140.660    19.961
    28   6 C        2.933    -0.070    29.732     8.942
    29   6 C        3.069     0.125    25.197     8.231
    30   8 O        1.704    -0.283    18.699     5.838
    31   6 C        3.650     0.038    20.247     6.463
    32   8 O        0.860    -0.420    22.080     6.300
    33   6 C        3.756     0.074    19.399     6.280
    34   6 C        2.684     0.352    21.024     7.504
    35   8 O        1.654    -0.370    20.276     6.079
    36   8 O        0.856    -0.373    21.141     6.165
    37   7 N        2.759    -0.096    23.120     7.141
    38   6 C        2.765     0.275    22.353     7.743
    39   6 C        3.168    -0.044    28.725     8.757
    40   6 C        2.940    -0.017    28.444     8.747
    41  16 S        2.304     0.011   140.591    19.956
    42   6 C        2.934    -0.070    29.751     8.945
    43   6 C        3.066     0.133    25.023     8.203
    44   8 O        1.704    -0.269    18.458     5.801
    45   6 C        3.652     0.036    20.273     6.466
    46   8 O        0.860    -0.470    23.123     6.447
    47   1 H        0.926     0.034     2.531     2.488
    48   1 H        0.926     0.040     2.443     2.444
    49   1 H        0.926     0.037     2.483     2.464
    50   1 H        0.926     0.037     2.487     2.466
    51   1 H        0.926     0.036     2.499     2.472
    52   1 H        0.926     0.032     2.559     2.502
    53   1 H        0.926     0.032     2.559     2.501
    54   1 H        0.924     0.065     2.139     2.287
    55   1 H        0.923     0.060     2.204     2.322
    56   1 H        0.926     0.059     2.209     2.324
    57   1 H        0.926     0.042     2.424     2.435
    58   1 H        0.926     0.032     2.564     2.504
    59   1 H        0.926     0.030     2.588     2.516
    60   1 H        0.926     0.030     2.580     2.512
    61   1 H        0.926     0.035     2.522     2.483
    62   1 H        0.926     0.027     2.622     2.532
    63   1 H        0.927     0.071     2.070     2.250
    64   1 H        0.927     0.053     2.284     2.363
    65   1 H        0.924     0.043     2.407     2.426
    66   1 H        0.924     0.046     2.376     2.410
    67   1 H        0.925     0.064     2.152     2.294
    68   1 H        0.923     0.083     1.950     2.184
    69   1 H        0.800     0.366     0.553     1.168
    70   1 H        0.927     0.066     2.132     2.283
    71   1 H        0.927     0.055     2.258     2.350
    72   1 H        0.925     0.071     2.077     2.254
    73   1 H        0.924     0.041     2.430     2.438
    74   1 H        0.924     0.048     2.351     2.398

Wiberg/Mayer (AO) data.
largest (>0.10) Wiberg bond orders for each atom

     #   Z sym  total        # sym  WBO       # sym  WBO       # sym  WBO
 ---------------------------------------------------------------------------
     1   6 C    3.991 --     2 C    1.568    10 C    1.289    47 H    0.968
     2   6 C    3.991 --     1 C    1.568     3 C    1.273    48 H    0.968
                             9 C    0.112
     3   6 C    3.990 --     4 C    1.284     2 C    1.273     8 C    1.251
     4   6 C    3.991 --     5 C    1.554     3 C    1.284    49 H    0.968
                             7 C    0.118
     5   6 C    3.989 --     4 C    1.554     6 C    1.322    50 H    0.971
     6   6 C    3.992 --     7 C    1.556     5 C    1.322    51 H    0.971
     7   6 C    3.989 --     6 C    1.556     8 C    1.280    52 H    0.968
                             4 C    0.118
     8   6 C    3.990 --     9 C    1.281     7 C    1.280     3 C    1.251
     9   6 C    3.989 --    10 C    1.526     8 C    1.281    53 H    0.965
                             2 C    0.112
    10   6 C    3.985 --     9 C    1.526     1 C    1.289    11 C    0.991
    11   6 C    3.957 --    10 C    0.991    37 N    0.958    12 C    0.950
                            54 H    0.948
    12   6 C    3.960 --    13 C    0.985    23 N    0.963    55 H    0.952
                            11 C    0.950
    13   6 C    3.984 --    14 C    1.529    22 C    1.294    12 C    0.985
    14   6 C    3.988 --    13 C    1.529    15 C    1.281    56 H    0.957
                            21 C    0.115
    15   6 C    3.990 --    14 C    1.281    16 C    1.279    20 C    1.252
    16   6 C    3.990 --    17 C    1.558    15 C    1.279    57 H    0.968
                            19 C    0.118
    17   6 C    3.992 --    16 C    1.558    18 C    1.321    58 H    0.971
    18   6 C    3.990 --    19 C    1.556    17 C    1.321    59 H    0.971
    19   6 C    3.992 --    18 C    1.556    20 C    1.281    60 H    0.969
                            16 C    0.118
    20   6 C    3.990 --    19 C    1.281    21 C    1.276    15 C    1.252
    21   6 C    3.992 --    22 C    1.563    20 C    1.276    61 H    0.968
                            14 C    0.115
    22   6 C    3.991 --    21 C    1.563    13 C    1.294    62 H    0.969
    23   7 N    3.469 --    24 C    1.201    33 C    1.002    12 C    0.963
                            32 O    0.189
    24   6 C    3.950 --    32 O    1.688    23 N    1.201    25 C    0.970
    25   6 C    3.978 --    26 C    1.591    29 C    1.184    24 C    0.970
    26   6 C    3.955 --    25 C    1.591    27 S    1.215    63 H    0.968
                            28 C    0.110
    27  16 S    2.643 --    26 C    1.215    28 C    1.172
    28   6 C    3.929 --    29 C    1.557    27 S    1.172    64 H    0.969
                            26 C    0.110
    29   6 C    3.931 --    28 C    1.557    25 C    1.184    30 O    1.041
    30   8 O    2.216 --    29 C    1.041    31 C    0.979
    31   6 C    3.941 --    67 H    0.980    30 O    0.979    66 H    0.978
                            65 H    0.978
    32   8 O    2.018 --    24 C    1.688    23 N    0.189
    33   6 C    3.955 --    23 N    1.002    37 N    0.967    68 H    0.923
                            34 C    0.891
    34   6 C    3.929 --    36 O    1.769    35 O    1.207    33 C    0.891
    35   8 O    2.236 --    34 C    1.207    69 H    0.764    36 O    0.182
    36   8 O    2.076 --    34 C    1.769    35 O    0.182
    37   7 N    3.515 --    38 C    1.280    33 C    0.967    11 C    0.958
                            46 O    0.185
    38   6 C    3.949 --    46 O    1.569    37 N    1.280    39 C    0.990
    39   6 C    3.978 --    40 C    1.580    43 C    1.172    38 C    0.990
                            41 S    0.101
    40   6 C    3.953 --    39 C    1.580    41 S    1.220    70 H    0.969
                            42 C    0.107
    41  16 S    2.645 --    40 C    1.220    42 C    1.166    39 C    0.101
    42   6 C    3.927 --    43 C    1.554    41 S    1.166    71 H    0.968
                            40 C    0.107
    43   6 C    3.937 --    42 C    1.554    39 C    1.172    44 O    1.062
    44   8 O    2.232 --    43 C    1.062    45 C    0.977
    45   6 C    3.939 --    72 H    0.979    74 H    0.977    44 O    0.977
                            73 H    0.977
    46   8 O    1.995 --    38 C    1.569    37 N    0.185
    47   1 H    0.998 --     1 C    0.968
    48   1 H    0.998 --     2 C    0.968
    49   1 H    0.998 --     4 C    0.968
    50   1 H    0.998 --     5 C    0.971
    51   1 H    0.998 --     6 C    0.971
    52   1 H    0.998 --     7 C    0.968
    53   1 H    0.998 --     9 C    0.965
    54   1 H    0.995 --    11 C    0.948
    55   1 H    0.995 --    12 C    0.952
    56   1 H    0.996 --    14 C    0.957
    57   1 H    0.998 --    16 C    0.968
    58   1 H    0.999 --    17 C    0.971
    59   1 H    0.999 --    18 C    0.971
    60   1 H    0.999 --    19 C    0.969
    61   1 H    0.998 --    21 C    0.968
    62   1 H    0.999 --    22 C    0.969
    63   1 H    0.994 --    26 C    0.968
    64   1 H    0.996 --    28 C    0.969
    65   1 H    0.998 --    31 C    0.978
    66   1 H    0.998 --    31 C    0.978
    67   1 H    0.995 --    31 C    0.980
    68   1 H    0.993 --    33 C    0.923
    69   1 H    0.866 --    35 O    0.764
    70   1 H    0.995 --    40 C    0.969
    71   1 H    0.996 --    42 C    0.968
    72   1 H    0.995 --    45 C    0.979
    73   1 H    0.998 --    45 C    0.977
    74   1 H    0.998 --    45 C    0.977
 ---------------------------------------------------------------------------

molecular dipole:
                 x           y           z       tot (Debye)
 q only:        2.126      -1.320       0.685
   full:        2.517      -1.331       0.819       7.531

           -------------------------------------------------
          | TOTAL ENERGY             -128.157449912012 Eh   |
          | GRADIENT NORM               0.000422930035 Eh/Î± |
          | HOMO-LUMO GAP               2.582858851905 eV   |
           -------------------------------------------------

 * finished run on 2022/03/17 at 01:21:56.386
