   * xtb version 6.3.3 (4ae9cef) compiled by 'conda@95abc7406d43' on 2020-10-14
          program call               : xtb acid_273.xyz --opt --chrg 0 --uhf 0 --gfn 2
          number of atoms            :                    60
          number of electrons        :                   230
          charge                     :                     0
          spin                       :                   0.0

   ID    Z sym.   atoms
    1    6 C      1, 2, 6-15, 19-22, 24-27, 29, 32, 33, 37-40, 42
    2    9 F      3-5, 16-18
    3    7 N      23, 36
    4   35 Br     28, 41
    5   16 S      30, 43
    6    8 O      31, 34, 35, 44
    7    1 H      45-60

          :  Hamiltonian                  GFN2-xTB          :
 * total energy  :  -133.3136544 Eh     change       -0.7612755E-09 Eh
 * total energy  :  -133.3300911 Eh     change       -0.1643665E-01 Eh
 * total energy  :  -133.3352502 Eh     change       -0.5159163E-02 Eh
 * total energy  :  -133.3365686 Eh     change       -0.1318366E-02 Eh
 * total energy  :  -133.3374480 Eh     change       -0.8794249E-03 Eh
 * total energy  :  -133.3379766 Eh     change       -0.5286223E-03 Eh
 * total energy  :  -133.3383715 Eh     change       -0.3948567E-03 Eh
 * total energy  :  -133.3387126 Eh     change       -0.3411297E-03 Eh
 * total energy  :  -133.3390136 Eh     change       -0.3009699E-03 Eh
 * total energy  :  -133.3392558 Eh     change       -0.2422099E-03 Eh
 * total energy  :  -133.3415179 Eh     change       -0.5226866E-04 Eh
 * total energy  :  -133.3415536 Eh     change       -0.3572933E-04 Eh
 * total energy  :  -133.3415785 Eh     change       -0.2491056E-04 Eh
 * total energy  :  -133.3415811 Eh     change       -0.2524109E-05 Eh
 * total energy  :  -133.3415952 Eh     change       -0.1409580E-04 Eh
 * total energy  :  -133.3416052 Eh     change       -0.1005574E-04 Eh
 * total energy  :  -133.3416103 Eh     change       -0.5138140E-05 Eh
 * total energy  :  -133.3416259 Eh     change       -0.1552161E-04 Eh
 * total energy  :  -133.3416306 Eh     change       -0.4730337E-05 Eh
   *** GEOMETRY OPTIMIZATION CONVERGED AFTER 37 ITERATIONS ***

 final structure:
================
60
 xtb: 6.3.3 (4ae9cef)
C        -2.19795725667286    0.70357275106173    1.83364237691725
C        -2.83924893450170   -0.58627493165625    1.39926845594091
F        -1.96027129631890   -1.49538076416519    0.93179084054263
F        -3.76381880383616   -0.43187934959431    0.43774994517070
F        -3.46954296318032   -1.20647247110217    2.40820816443661
C        -2.69848988424390    1.27173171139122    3.00169448148625
C        -2.17410357933609    2.44666697975384    3.50179368986634
C        -1.14094107334521    3.07009813683968    2.82644920159774
C        -0.66102947359550    2.52194166256806    1.65376907686106
C        -1.17574187802681    1.34017973869066    1.12541688452898
C        -0.51189233998920    0.85222974804421   -0.13987337192356
C         0.58764229742214   -0.20519142512947    0.11969179113378
C         1.91030542427201    0.48281203072473    0.35887115911065
C         2.49647297817115    0.65402307803582    1.61299211279439
C         1.92428280071512    0.22148549093396    2.93966430523319
F         1.97879613490984    1.22935872946695    3.82972599296145
F         0.65083803340675   -0.19107198026832    2.94818968938288
F         2.64296835127487   -0.78480899120620    3.47551113881746
C         3.74298236227497    1.27183388722001    1.72586245301792
C         4.40032448796271    1.75257255622963    0.61245170854432
C         3.79736575506400    1.64275743207398   -0.62989334061175
C         2.57118466095814    1.01990369421172   -0.74588982208476
N         0.56847122419199   -0.97145954473951   -1.11372937228596
C         1.52757164373939   -1.80044143765817   -1.60751997668385
C         2.67390413305876   -2.04215091016414   -0.69811438558654
C         3.98997272332024   -1.79770688965960   -0.94965281096183
C         4.80584426297542   -2.14151195124214    0.14987142546723
Br        6.66439109417517   -1.83118050438687    0.17483736153376
C         4.12044571163967   -2.67600365093752    1.19539951809165
S         2.44069217768490   -2.75638192853655    0.86352148278598
O         1.45197440250072   -2.28193852697200   -2.71633293627252
C        -0.71311442655042   -0.88817216787388   -1.76893338020221
C        -1.53101767173218   -2.19470824355114   -1.60381852990210
O        -0.83667426269061   -3.14347462245721   -0.99977949794432
O        -2.65208721633518   -2.32045907047283   -2.00346328823369
N        -1.36648114062021    0.24122866771532   -1.14753494766042
C        -2.46494280019834    0.93816276739543   -1.56072391586006
C        -3.27271318713783    0.38505401124794   -2.66223280350033
C        -4.63251976274595    0.29208242881499   -2.62597747295178
C        -5.16020567354228   -0.20960897913805   -3.83364472893812
Br       -7.00096513378853   -0.49119423080598   -4.11224614713331
C        -4.21899828792084   -0.45768614814725   -4.78242487827178
S        -2.64689664798301   -0.10389651834804   -4.20330457179164
O        -2.78475449720926    1.96375037809572   -0.99371290446844
H        -3.50186911499903    0.77851031952906    3.52615537025493
H        -2.57065337003113    2.86822347283740    4.41163307945965
H        -0.71220930277716    3.98471378735946    3.20535586343175
H         0.13553142301035    3.02508875775617    1.12509776488072
H        -0.04563688248406    1.73705979858081   -0.60174893050640
H         0.30526553213822   -0.85306669117733    0.95207061356656
H         4.18931068810416    1.37168074937759    2.70359164414495
H         5.36897306991438    2.21438354503610    0.71501733621948
H         4.28554233742091    2.03541345558476   -1.50819481179186
H         2.11644980648867    0.92166837651847   -1.72025187841234
H         4.36147492706762   -1.37307194316239   -1.86378722078986
H         4.50361910389301   -3.02192884389125    2.13408969395234
H        -0.56589589112845   -0.74715708034412   -2.85234329155588
H        -1.36357632784760   -3.95508686933279   -0.91212700287872
H        -5.21918576450011    0.54595723220678   -1.76281983776737
H        -4.35916370248848   -0.82477670918135   -5.77930756516469

          :  Hamiltonian                  GFN2-xTB          :
         :: total energy            -133.341630599853 Eh    ::
         :: gradient norm              0.000697228354 Eh/a0 ::
         :: HOMO-LUMO gap              2.671315660787 eV    ::
         :: SCC energy              -134.731780036538 Eh    ::
         :: -> dispersion             -0.105842822127 Eh    ::
         :: repulsion energy           1.386580057494 Eh    ::

    * Orbital Energies and Occupations

         #    Occupation            Energy/Eh            Energy/eV
      -------------------------------------------------------------
         1        2.0000           -0.9028957             -24.5690
       ...           ...                  ...                  ...
       103        2.0000           -0.4498640             -12.2414
       104        2.0000           -0.4473644             -12.1734
       105        2.0000           -0.4424796             -12.0405
       106        2.0000           -0.4401181             -11.9762
       107        2.0000           -0.4356036             -11.8534
       108        2.0000           -0.4340708             -11.8117
       109        2.0000           -0.4291255             -11.6771
       110        2.0000           -0.4264796             -11.6051
       111        2.0000           -0.4211431             -11.4599
       112        2.0000           -0.4164722             -11.3328
       113        2.0000           -0.4150535             -11.2942
       114        2.0000           -0.4130071             -11.2385
       115        2.0000           -0.3978250             -10.8254 (HOMO)
       116                         -0.2996560              -8.1541 (LUMO)
       117                         -0.2907947              -7.9129
       118                         -0.2860394              -7.7835
       119                         -0.2851342              -7.7589
       120                         -0.2748064              -7.4779
       121                         -0.2683877              -7.3032
       122                         -0.2650263              -7.2117
       123                         -0.2552314              -6.9452
       124                         -0.2437552              -6.6329
       125                         -0.2397845              -6.5249
       126                         -0.2308541              -6.2819
       ...                                ...                  ...
       212                          0.6797209              18.4961
      -------------------------------------------------------------
                  HL-Gap            0.0981690 Eh            2.6713 eV

     #   Z          covCN         q      C6AA      Î±(0)
     1   6 C        2.974    -0.021    28.528     8.761
     2   6 C        3.337     0.489    17.226     6.571
     3   9 F        0.791    -0.220    11.446     3.996
     4   9 F        0.791    -0.204    11.281     3.968
     5   9 F        0.793    -0.202    11.256     3.963
     6   6 C        2.927    -0.018    28.461     8.749
     7   6 C        2.920    -0.019    28.474     8.750
     8   6 C        2.918    -0.015    28.375     8.735
     9   6 C        2.933    -0.027    28.668     8.781
    10   6 C        2.965     0.024    27.476     8.598
    11   6 C        3.839     0.053    19.661     6.308
    12   6 C        3.818     0.032    20.018     6.368
    13   6 C        2.968     0.006    27.876     8.660
    14   6 C        2.975    -0.035    28.857     8.812
    15   6 C        3.340     0.484    17.249     6.568
    16   9 F        0.792    -0.204    11.281     3.967
    17   9 F        0.791    -0.209    11.328     3.976
    18   9 F        0.791    -0.205    11.288     3.969
    19   6 C        2.931    -0.021    28.523     8.759
    20   6 C        2.918    -0.020    28.505     8.755
    21   6 C        2.918    -0.018    28.454     8.747
    22   6 C        2.929    -0.032    28.787     8.799
    23   7 N        2.768    -0.108    23.351     7.177
    24   6 C        2.782     0.277    22.325     7.739
    25   6 C        3.003    -0.018    28.434     8.747
    26   6 C        3.150    -0.047    28.867     8.788
    27   6 C        3.133     0.069    26.257     8.388
    28  35 Br       1.034    -0.142   188.943    22.163
    29   6 C        2.997    -0.035    28.864     8.813
    30  16 S        2.337     0.040   139.416    19.873
    31   8 O        0.859    -0.406    21.804     6.261
    32   6 C        3.763     0.092    19.103     6.230
    33   6 C        2.686     0.363    20.844     7.472
    34   8 O        1.659    -0.346    19.824     6.011
    35   8 O        0.856    -0.380    21.291     6.186
    36   7 N        2.757    -0.120    23.617     7.218
    37   6 C        2.777     0.278    22.305     7.735
    38   6 C        2.999    -0.006    28.163     8.705
    39   6 C        3.156    -0.031    28.463     8.724
    40   6 C        3.135     0.078    26.051     8.354
    41  35 Br       1.037    -0.139   188.876    22.159
    42   6 C        3.001    -0.025    28.607     8.774
    43  16 S        2.336     0.014   140.478    19.948
    44   8 O        0.860    -0.415    21.972     6.285
    45   1 H        0.926     0.072     2.061     2.245
    46   1 H        0.926     0.063     2.159     2.298
    47   1 H        0.926     0.062     2.179     2.309
    48   1 H        0.926     0.046     2.375     2.410
    49   1 H        0.923     0.061     2.184     2.311
    50   1 H        0.924     0.079     1.990     2.206
    51   1 H        0.926     0.069     2.093     2.262
    52   1 H        0.926     0.069     2.098     2.265
    53   1 H        0.926     0.065     2.144     2.290
    54   1 H        0.926     0.056     2.243     2.342
    55   1 H        0.926     0.069     2.102     2.267
    56   1 H        0.926     0.078     1.995     2.209
    57   1 H        0.923     0.093     1.848     2.126
    58   1 H        0.804     0.353     0.581     1.198
    59   1 H        0.926     0.079     1.985     2.203
    60   1 H        0.926     0.072     2.063     2.246

Wiberg/Mayer (AO) data.
largest (>0.10) Wiberg bond orders for each atom

     #   Z sym  total        # sym  WBO       # sym  WBO       # sym  WBO
 ---------------------------------------------------------------------------
     1   6 C    3.971 --     6 C    1.410    10 C    1.388     2 C    0.951
                             8 C    0.105
     2   6 C    3.820 --     5 F    0.952     1 C    0.951     4 F    0.946
                             3 F    0.932
     3   9 F    1.062 --     2 C    0.932
     4   9 F    1.078 --     2 C    0.946
     5   9 F    1.075 --     2 C    0.952
     6   6 C    3.986 --     7 C    1.446     1 C    1.410    45 H    0.965
                             9 C    0.109
     7   6 C    3.988 --     6 C    1.446     8 C    1.431    46 H    0.968
                            10 C    0.108
     8   6 C    3.989 --     9 C    1.450     7 C    1.431    47 H    0.968
                             1 C    0.105
     9   6 C    3.989 --     8 C    1.450    10 C    1.405    48 H    0.966
                             6 C    0.109
    10   6 C    3.986 --     9 C    1.405     1 C    1.388    11 C    0.994
                             7 C    0.108
    11   6 C    3.967 --    10 C    0.994    36 N    0.963    49 H    0.948
                            12 C    0.944
    12   6 C    3.967 --    13 C    0.995    23 N    0.967    50 H    0.948
                            11 C    0.944
    13   6 C    3.986 --    14 C    1.398    22 C    1.396    12 C    0.995
                            20 C    0.107
    14   6 C    3.969 --    13 C    1.398    19 C    1.398    15 C    0.948
                            21 C    0.104
    15   6 C    3.823 --    14 C    0.948    17 F    0.948    16 F    0.946
                            18 F    0.942
    16   9 F    1.072 --    15 C    0.946
    17   9 F    1.077 --    15 C    0.948
    18   9 F    1.072 --    15 C    0.942
    19   6 C    3.987 --    20 C    1.455    14 C    1.398    51 H    0.966
                            22 C    0.110
    20   6 C    3.987 --    19 C    1.455    21 C    1.421    52 H    0.967
                            13 C    0.107
    21   6 C    3.989 --    22 C    1.459    20 C    1.421    53 H    0.968
                            14 C    0.104
    22   6 C    3.989 --    21 C    1.459    13 C    1.396    54 H    0.965
                            19 C    0.110
    23   7 N    3.462 --    24 C    1.196    32 C    0.988    12 C    0.967
                            31 O    0.190
    24   6 C    3.952 --    31 O    1.690    23 N    1.196    25 C    0.983
    25   6 C    3.951 --    26 C    1.579    30 S    1.161    24 C    0.983
                            29 C    0.109
    26   6 C    3.983 --    25 C    1.579    27 C    1.257    55 H    0.962
    27   6 C    3.936 --    29 C    1.573    26 C    1.257    28 Br   0.988
    28  35 Br   1.128 --    27 C    0.988
    29   6 C    3.947 --    27 C    1.573    30 S    1.206    56 H    0.966
                            25 C    0.109
    30  16 S    2.672 --    29 C    1.206    25 C    1.161
    31   8 O    2.034 --    24 C    1.690    23 N    0.190
    32   6 C    3.962 --    23 N    0.988    36 N    0.983    57 H    0.925
                            33 C    0.905
    33   6 C    3.924 --    35 O    1.780    34 O    1.177    32 C    0.905
    34   8 O    2.241 --    33 C    1.177    58 H    0.849    35 O    0.187
    35   8 O    2.070 --    33 C    1.780    34 O    0.187
    36   7 N    3.445 --    37 C    1.187    32 C    0.983    11 C    0.963
                            44 O    0.184
    37   6 C    3.949 --    44 O    1.675    36 N    1.187    38 C    1.005
    38   6 C    3.949 --    39 C    1.573    43 S    1.151    37 C    1.005
                            42 C    0.110
    39   6 C    3.984 --    38 C    1.573    40 C    1.261    59 H    0.960
    40   6 C    3.938 --    42 C    1.573    39 C    1.261    41 Br   0.988
    41  35 Br   1.127 --    40 C    0.988
    42   6 C    3.946 --    40 C    1.573    43 S    1.199    60 H    0.967
                            38 C    0.110
    43  16 S    2.663 --    42 C    1.199    38 C    1.151
    44   8 O    2.027 --    37 C    1.675    36 N    0.184
    45   1 H    0.994 --     6 C    0.965
    46   1 H    0.995 --     7 C    0.968
    47   1 H    0.995 --     8 C    0.968
    48   1 H    0.998 --     9 C    0.966
    49   1 H    0.995 --    11 C    0.948
    50   1 H    0.993 --    12 C    0.948
    51   1 H    0.995 --    19 C    0.966
    52   1 H    0.994 --    20 C    0.967
    53   1 H    0.995 --    21 C    0.968
    54   1 H    0.996 --    22 C    0.965
    55   1 H    0.995 --    26 C    0.962
    56   1 H    0.993 --    29 C    0.966
    57   1 H    0.991 --    32 C    0.925
    58   1 H    0.875 --    34 O    0.849
    59   1 H    0.994 --    39 C    0.960
    60   1 H    0.994 --    42 C    0.967
 ---------------------------------------------------------------------------

molecular dipole:
                 x           y           z       tot (Debye)
 q only:        2.107       1.418       0.775
   full:        2.087       1.058       0.903       6.375

           -------------------------------------------------
          | TOTAL ENERGY             -133.341630599853 Eh   |
          | GRADIENT NORM               0.000697228354 Eh/Î± |
          | HOMO-LUMO GAP               2.671315660787 eV   |
           -------------------------------------------------

 * finished run on 2022/03/16 at 23:14:47.609
