   * xtb version 6.3.3 (4ae9cef) compiled by 'conda@95abc7406d43' on 2020-10-14
          program call               : xtb acid_251.xyz --opt --chrg 0 --uhf 0 --gfn 2
          number of atoms            :                    72
          number of electrons        :                   202
          charge                     :                     0
          spin                       :                   0.0

   ID    Z sym.   atoms
    1    6 C      1-14, 16-24, 26, 27, 31-39
    2    7 N      15, 30
    3    8 O      25, 28, 29, 40
    4    1 H      41-72

          :  Hamiltonian                  GFN2-xTB          :
 * total energy  :  -111.2557446 Eh     change       -0.7865992E-09 Eh
 * total energy  :  -111.2683943 Eh     change       -0.1264973E-01 Eh
 * total energy  :  -111.2721028 Eh     change       -0.3708433E-02 Eh
 * total energy  :  -111.2732160 Eh     change       -0.1113231E-02 Eh
 * total energy  :  -111.2738516 Eh     change       -0.6355747E-03 Eh
 * total energy  :  -111.2741349 Eh     change       -0.2833441E-03 Eh
 * total energy  :  -111.2743659 Eh     change       -0.2310349E-03 Eh
 * total energy  :  -111.2745712 Eh     change       -0.2052335E-03 Eh
 * total energy  :  -111.2747914 Eh     change       -0.2202174E-03 Eh
 * total energy  :  -111.2749768 Eh     change       -0.1854429E-03 Eh
 * total energy  :  -111.3023298 Eh     change       -0.1207329E-04 Eh
 * total energy  :  -111.3023341 Eh     change       -0.4300502E-05 Eh
 * total energy  :  -111.3023299 Eh     change        0.4165757E-05 Eh
 * total energy  :  -111.3023395 Eh     change       -0.9607769E-05 Eh
 * total energy  :  -111.3023466 Eh     change       -0.7075567E-05 Eh
 * total energy  :  -111.3023515 Eh     change       -0.4893032E-05 Eh
 * total energy  :  -111.3023611 Eh     change       -0.9572905E-05 Eh
 * total energy  :  -111.3023672 Eh     change       -0.6088160E-05 Eh
 * total energy  :  -111.3023716 Eh     change       -0.4481918E-05 Eh
   *** GEOMETRY OPTIMIZATION CONVERGED AFTER 99 ITERATIONS ***

 final structure:
================
72
 xtb: 6.3.3 (4ae9cef)
C        -2.81436341289299    2.12017993763477    0.08062725338268
C        -3.82171089804620    2.37412627129744    0.99443097183833
C        -3.77296061187491    1.80829239486472    2.25603950904574
C        -2.70728067968568    0.99588903257268    2.60650542865808
C        -1.69993083098681    0.74065792999521    1.69536427421376
C        -1.75541833937466    1.29157621377582    0.42013178721889
C        -0.65691895082707    1.00130291630128   -0.56941961563783
C         0.69162170324351    1.59778248021995   -0.10255147000879
C         1.14517225091661    2.72786411155551   -0.99179105630269
C         0.94039176615734    4.04370678713843   -0.60196449455644
C         1.33540857355562    5.08492142622993   -1.42298327649239
C         1.94116808847038    4.81981699079931   -2.63933155115880
C         2.14610420448533    3.50885886585621   -3.03437739365974
C         1.74548848295254    2.46771037822726   -2.21659991872006
N         1.62572080575578    0.48282682681632   -0.12600004862653
C         2.80823320219131    0.60323096361756    0.54296033163019
C         3.72951590004728   -0.55646916710104    0.40842381257278
C         4.19629827526699   -1.20220742220872    1.54534152161235
C         5.06195498530332   -2.28039603581719    1.45377140575219
C         5.52324531576921   -2.98217534792219    2.69419301187879
C         5.49442028198260   -2.70373724463590    0.19322591328012
C         6.42501378959568   -3.86852810845726    0.05961249691188
C         5.05397245925412   -2.02796680538700   -0.93615956508839
C         4.17650475139654   -0.96636810483905   -0.84034572686691
O         3.07728622276739    1.61097360035027    1.16448107808880
C         1.03270340641685   -0.72342089320293   -0.64365808838124
C         1.29713938294075   -1.96143004917038    0.24212143867102
O         0.90297385758772   -1.73912279299771    1.50175605920845
O         1.90517906907929   -2.92993255185354   -0.11151449314749
N        -0.38382659252094   -0.42074326805119   -0.69435214011903
C        -1.26659329047229   -1.43973178035725   -0.57862034347931
C        -2.70162330310357   -1.08398989253371   -0.72380869158975
C        -3.16891579560878   -0.44190547844530   -1.86207745950222
C        -4.50914923179825   -0.12078525297003   -1.96032998339597
C        -5.39858732332658   -0.41386465441428   -0.93573539754911
C        -6.83750108298232   -0.01691040305374   -1.04873962188902
C        -4.93426328120114   -1.08676421135062    0.19910712743848
C        -5.86674460932307   -1.42831443250978    1.31911250950581
C        -3.59483805760585   -1.42998410087205    0.28093834886057
O        -0.86916378587206   -2.57760365616273   -0.38869545241740
H        -2.85490017286274    2.56035843181197   -0.90502565236115
H        -4.64678390480484    3.01340523254956    0.71760433986539
H        -4.56140672064180    2.00287971591358    2.96796217142305
H        -2.66221499245282    0.55945187980456    3.59316946946589
H        -0.87388711955742    0.09803781453767    1.96471267600831
H        -0.92064714756751    1.41899828152450   -1.55110598120653
H         0.61813296578476    1.96861514580616    0.92778163806562
H         0.47584382036071    4.24994735297853    0.35109875948055
H         1.17638015639675    6.10595163299862   -1.10917570280566
H         2.25645919722239    5.63251422125031   -3.27675832713014
H         2.62067850941171    3.29633041320843   -3.98118893317726
H         1.90856459117325    1.44583282990495   -2.52731716200342
H         3.85988982738444   -0.85873124914970    2.51364747112934
H         5.10566247788306   -2.51231109320169    3.58106511817585
H         6.60990573851652   -2.95655076059690    2.76820406060884
H         5.21738623648885   -4.02799965612343    2.67570519808832
H         5.96912901167369   -4.76775005506620    0.47257595425094
H         7.35156604915128   -3.68589950118792    0.60363340708077
H         6.66557909153463   -4.05157639958481   -0.98436521718922
H         5.39788727973761   -2.34559314516779   -1.90991776087429
H         3.85211907966745   -0.44748752288192   -1.73044466213238
H         1.40250144404618   -0.97380221796709   -1.65459741680837
H         1.07182938608964   -2.52961429081275    2.03727030383062
H        -2.49215399254077   -0.20648710703655   -2.67011631027416
H        -4.87152716450860    0.37698291723012   -2.84868399818096
H        -7.02378316192602    0.49930775130317   -1.98666228888469
H        -7.11550051192956    0.64218508966080   -0.22703529670469
H        -7.48295339194954   -0.89319551655638   -1.00115955458198
H        -5.34245219054930   -1.96733436406822    2.10333239270567
H        -6.29341193238822   -0.52144157573561    1.74669687045799
H        -6.68950605433680   -2.04624183656349    0.96173977957815
H        -3.22411710213519   -1.95614789171800    1.14826416294792

          :  Hamiltonian                  GFN2-xTB          :
         :: total energy            -111.302371644786 Eh    ::
         :: gradient norm              0.000505373941 Eh/a0 ::
         :: HOMO-LUMO gap              3.606806180883 eV    ::
         :: SCC energy              -113.055490969182 Eh    ::
         :: -> dispersion             -0.101266205185 Eh    ::
         :: repulsion energy           1.750558569392 Eh    ::

    * Orbital Energies and Occupations

         #    Occupation            Energy/Eh            Energy/eV
      -------------------------------------------------------------
         1        2.0000           -0.7457977             -20.2942
       ...           ...                  ...                  ...
        89        2.0000           -0.4191820             -11.4065
        90        2.0000           -0.4181293             -11.3779
        91        2.0000           -0.4177045             -11.3663
        92        2.0000           -0.4098797             -11.1534
        93        2.0000           -0.4092024             -11.1350
        94        2.0000           -0.4061876             -11.0529
        95        2.0000           -0.4046112             -11.0100
        96        2.0000           -0.3993705             -10.8674
        97        2.0000           -0.3966116             -10.7924
        98        2.0000           -0.3946959             -10.7402
        99        2.0000           -0.3908040             -10.6343
       100        2.0000           -0.3854966             -10.4899
       101        2.0000           -0.3833428             -10.4313 (HOMO)
       102                         -0.2507951              -6.8245 (LUMO)
       103                         -0.2434418              -6.6244
       104                         -0.2370180              -6.4496
       105                         -0.2345154              -6.3815
       106                         -0.2293826              -6.2418
       107                         -0.2287806              -6.2254
       108                         -0.2279356              -6.2024
       109                         -0.2276346              -6.1943
       110                         -0.2146564              -5.8411
       111                         -0.2015430              -5.4843
       112                         -0.1882983              -5.1239
       ...                                ...                  ...
       192                          0.6705526              18.2467
      -------------------------------------------------------------
                  HL-Gap            0.1325477 Eh            3.6068 eV

     #   Z          covCN         q      C6AA      Î±(0)
     1   6 C        2.923    -0.034    28.853     8.809
     2   6 C        2.920    -0.027    28.685     8.783
     3   6 C        2.920    -0.029    28.727     8.789
     4   6 C        2.920    -0.026    28.661     8.779
     5   6 C        2.924    -0.033    28.832     8.806
     6   6 C        2.974     0.000    28.017     8.682
     7   6 C        3.813     0.040    19.897     6.349
     8   6 C        3.827     0.045    19.795     6.331
     9   6 C        2.973     0.007    27.857     8.657
    10   6 C        2.924    -0.030    28.755     8.794
    11   6 C        2.920    -0.026    28.648     8.777
    12   6 C        2.920    -0.029    28.724     8.789
    13   6 C        2.920    -0.028    28.691     8.784
    14   6 C        2.924    -0.031    28.777     8.797
    15   7 N        2.761    -0.120    23.612     7.217
    16   6 C        2.766     0.272    22.412     7.753
    17   6 C        2.976    -0.028    28.686     8.785
    18   6 C        2.928    -0.034    28.843     8.807
    19   6 C        2.970     0.013    27.711     8.635
    20   6 C        3.758    -0.109    22.631     6.782
    21   6 C        2.971     0.017    27.621     8.621
    22   6 C        3.758    -0.109    22.640     6.784
    23   6 C        2.924    -0.033    28.818     8.803
    24   6 C        2.921    -0.032    28.789     8.799
    25   8 O        0.859    -0.426    22.209     6.318
    26   6 C        3.758     0.100    18.983     6.212
    27   6 C        2.688     0.371    20.716     7.449
    28   8 O        1.659    -0.375    20.365     6.092
    29   8 O        0.856    -0.391    21.494     6.216
    30   7 N        2.765    -0.111    23.423     7.188
    31   6 C        2.770     0.274    22.372     7.746
    32   6 C        2.976    -0.018    28.464     8.751
    33   6 C        2.921    -0.035    28.872     8.811
    34   6 C        2.924    -0.039    28.979     8.828
    35   6 C        2.971     0.012    27.736     8.639
    36   6 C        3.758    -0.110    22.651     6.785
    37   6 C        2.970     0.012    27.741     8.639
    38   6 C        3.758    -0.110    22.648     6.785
    39   6 C        2.929    -0.032    28.797     8.800
    40   8 O        0.862    -0.423    22.151     6.310
    41   1 H        0.926     0.032     2.563     2.504
    42   1 H        0.926     0.037     2.493     2.469
    43   1 H        0.926     0.036     2.498     2.471
    44   1 H        0.926     0.040     2.453     2.449
    45   1 H        0.926     0.048     2.340     2.392
    46   1 H        0.923     0.046     2.373     2.409
    47   1 H        0.924     0.068     2.104     2.268
    48   1 H        0.926     0.036     2.499     2.472
    49   1 H        0.926     0.038     2.476     2.461
    50   1 H        0.926     0.036     2.497     2.471
    51   1 H        0.926     0.036     2.503     2.474
    52   1 H        0.926     0.029     2.595     2.519
    53   1 H        0.926     0.039     2.466     2.456
    54   1 H        0.925     0.042     2.424     2.435
    55   1 H        0.925     0.048     2.340     2.392
    56   1 H        0.925     0.049     2.328     2.386
    57   1 H        0.925     0.052     2.294     2.369
    58   1 H        0.925     0.047     2.352     2.398
    59   1 H        0.925     0.044     2.401     2.423
    60   1 H        0.926     0.038     2.472     2.459
    61   1 H        0.926     0.025     2.655     2.548
    62   1 H        0.922     0.056     2.249     2.345
    63   1 H        0.805     0.340     0.613     1.230
    64   1 H        0.926     0.031     2.577     2.510
    65   1 H        0.926     0.037     2.486     2.466
    66   1 H        0.925     0.044     2.395     2.420
    67   1 H        0.925     0.049     2.330     2.387
    68   1 H        0.925     0.051     2.304     2.374
    69   1 H        0.925     0.045     2.379     2.412
    70   1 H        0.925     0.049     2.337     2.391
    71   1 H        0.925     0.052     2.296     2.370
    72   1 H        0.926     0.043     2.404     2.425

Wiberg/Mayer (AO) data.
largest (>0.10) Wiberg bond orders for each atom

     #   Z sym  total        # sym  WBO       # sym  WBO       # sym  WBO
 ---------------------------------------------------------------------------
     1   6 C    3.991 --     2 C    1.440     6 C    1.417    41 H    0.968
                             4 C    0.109
     2   6 C    3.992 --     3 C    1.442     1 C    1.440    42 H    0.971
                             5 C    0.112
     3   6 C    3.990 --     2 C    1.442     4 C    1.433    43 H    0.971
                             6 C    0.109
     4   6 C    3.992 --     5 C    1.451     3 C    1.433    44 H    0.971
                             1 C    0.109
     5   6 C    3.990 --     4 C    1.451     6 C    1.405    45 H    0.966
                             2 C    0.112
     6   6 C    3.986 --     1 C    1.417     5 C    1.405     7 C    0.991
                             3 C    0.109
     7   6 C    3.966 --     6 C    0.991    30 N    0.962    46 H    0.955
                             8 C    0.950
     8   6 C    3.965 --     9 C    0.988    15 N    0.963    47 H    0.952
                             7 C    0.950
     9   6 C    3.985 --    10 C    1.414    14 C    1.413     8 C    0.988
                            12 C    0.110
    10   6 C    3.990 --    11 C    1.444     9 C    1.414    48 H    0.969
                            13 C    0.111
    11   6 C    3.992 --    10 C    1.444    12 C    1.439    49 H    0.971
                            14 C    0.111
    12   6 C    3.991 --    11 C    1.439    13 C    1.438    50 H    0.971
                             9 C    0.110
    13   6 C    3.992 --    14 C    1.446    12 C    1.438    51 H    0.971
                            10 C    0.111
    14   6 C    3.991 --    13 C    1.446     9 C    1.413    52 H    0.968
                            11 C    0.111
    15   7 N    3.449 --    16 C    1.190    26 C    0.987     8 C    0.963
                            25 O    0.185
    16   6 C    3.943 --    25 O    1.690    15 N    1.190    17 C    0.976
    17   6 C    3.987 --    18 C    1.398    24 C    1.394    16 C    0.976
                            21 C    0.103
    18   6 C    3.989 --    19 C    1.426    17 C    1.398    53 H    0.967
                            23 C    0.102
    19   6 C    3.989 --    18 C    1.426    21 C    1.371    20 C    1.028
                            24 C    0.104
    20   6 C    3.996 --    19 C    1.028    54 H    0.985    55 H    0.970
                            56 H    0.969
    21   6 C    3.988 --    23 C    1.415    19 C    1.371    22 C    1.031
                            17 C    0.103
    22   6 C    3.996 --    21 C    1.031    59 H    0.985    58 H    0.969
                            57 H    0.968
    23   6 C    3.991 --    24 C    1.447    21 C    1.415    60 H    0.967
                            18 C    0.102
    24   6 C    3.991 --    23 C    1.447    17 C    1.394    61 H    0.969
                            19 C    0.104
    25   8 O    2.014 --    16 C    1.690    15 N    0.185
    26   6 C    3.966 --    15 N    0.987    30 N    0.974    62 H    0.942
                            27 C    0.911
    27   6 C    3.925 --    29 O    1.768    28 O    1.125    26 C    0.911
    28   8 O    2.189 --    27 C    1.125    63 H    0.860    29 O    0.166
    29   8 O    2.060 --    27 C    1.768    28 O    0.166
    30   7 N    3.469 --    31 C    1.227    26 C    0.974     7 C    0.962
                            40 O    0.183
    31   6 C    3.940 --    40 O    1.645    30 N    1.227    32 C    0.978
    32   6 C    3.987 --    39 C    1.396    33 C    1.395    31 C    0.978
                            35 C    0.102
    33   6 C    3.991 --    34 C    1.445    32 C    1.395    64 H    0.969
                            37 C    0.103
    34   6 C    3.991 --    33 C    1.445    35 C    1.416    65 H    0.967
                            39 C    0.102
    35   6 C    3.988 --    34 C    1.416    37 C    1.369    36 C    1.031
                            32 C    0.102
    36   6 C    3.996 --    35 C    1.031    66 H    0.985    67 H    0.969
                            68 H    0.968
    37   6 C    3.988 --    39 C    1.427    35 C    1.369    38 C    1.029
                            33 C    0.103
    38   6 C    3.995 --    37 C    1.029    69 H    0.985    71 H    0.969
                            70 H    0.969
    39   6 C    3.989 --    37 C    1.427    32 C    1.396    72 H    0.966
                            34 C    0.102
    40   8 O    2.060 --    31 C    1.645    30 N    0.183
    41   1 H    0.999 --     1 C    0.968
    42   1 H    0.998 --     2 C    0.971
    43   1 H    0.998 --     3 C    0.971
    44   1 H    0.998 --     4 C    0.971
    45   1 H    0.998 --     5 C    0.966
    46   1 H    0.997 --     7 C    0.955
    47   1 H    0.995 --     8 C    0.952
    48   1 H    0.999 --    10 C    0.969
    49   1 H    0.998 --    11 C    0.971
    50   1 H    0.998 --    12 C    0.971
    51   1 H    0.998 --    13 C    0.971
    52   1 H    0.999 --    14 C    0.968
    53   1 H    0.998 --    18 C    0.967
    54   1 H    0.998 --    20 C    0.985
    55   1 H    0.997 --    20 C    0.970
    56   1 H    0.997 --    20 C    0.969
    57   1 H    0.997 --    22 C    0.968
    58   1 H    0.997 --    22 C    0.969
    59   1 H    0.998 --    22 C    0.985
    60   1 H    0.997 --    23 C    0.967
    61   1 H    0.999 --    24 C    0.969
    62   1 H    0.996 --    26 C    0.942
    63   1 H    0.885 --    28 O    0.860
    64   1 H    0.998 --    33 C    0.969
    65   1 H    0.998 --    34 C    0.967
    66   1 H    0.998 --    36 C    0.985
    67   1 H    0.997 --    36 C    0.969
    68   1 H    0.997 --    36 C    0.968
    69   1 H    0.998 --    38 C    0.985
    70   1 H    0.997 --    38 C    0.969
    71   1 H    0.997 --    38 C    0.969
    72   1 H    0.998 --    39 C    0.966
 ---------------------------------------------------------------------------

molecular dipole:
                 x           y           z       tot (Debye)
 q only:       -1.702       0.739       0.053
   full:       -1.788       0.609      -0.007       4.801

           -------------------------------------------------
          | TOTAL ENERGY             -111.302371644786 Eh   |
          | GRADIENT NORM               0.000505373941 Eh/Î± |
          | HOMO-LUMO GAP               3.606806180883 eV   |
           -------------------------------------------------

 * finished run on 2022/03/16 at 23:00:32.111
