   * xtb version 6.3.3 (4ae9cef) compiled by 'conda@95abc7406d43' on 2020-10-14
          program call               : xtb acid_267.xyz --opt --chrg 0 --uhf 0 --gfn 2
          number of atoms            :                    74
          number of electrons        :                   230
          charge                     :                     0
          spin                       :                   0.0

   ID    Z sym.   atoms
    1    6 C      1-22, 24-30, 32, 34, 35, 39-43, 45-47
    2    7 N      23, 31, 38, 44
    3    8 O      33, 36, 37, 48
    4    1 H      49-74

          :  Hamiltonian                  GFN2-xTB          :
 * total energy  :  -126.8171580 Eh     change       -0.1856222E-08 Eh
 * total energy  :  -126.8353552 Eh     change       -0.1819721E-01 Eh
 * total energy  :  -126.8398495 Eh     change       -0.4494245E-02 Eh
 * total energy  :  -126.8409184 Eh     change       -0.1068947E-02 Eh
 * total energy  :  -126.8414883 Eh     change       -0.5699210E-03 Eh
 * total energy  :  -126.8417290 Eh     change       -0.2406470E-03 Eh
 * total energy  :  -126.8417740 Eh     change       -0.4497973E-04 Eh
 * total energy  :  -126.8421216 Eh     change       -0.3476175E-03 Eh
 * total energy  :  -126.8423483 Eh     change       -0.2266910E-03 Eh
 * total energy  :  -126.8427074 Eh     change       -0.3591255E-03 Eh
 * total energy  :  -126.8474474 Eh     change       -0.3021359E-04 Eh
 * total energy  :  -126.8474669 Eh     change       -0.1945532E-04 Eh
 * total energy  :  -126.8475127 Eh     change       -0.4579788E-04 Eh
 * total energy  :  -126.8475288 Eh     change       -0.1618613E-04 Eh
 * total energy  :  -126.8475564 Eh     change       -0.2759638E-04 Eh
 * total energy  :  -126.8475669 Eh     change       -0.1043322E-04 Eh
 * total energy  :  -126.8475794 Eh     change       -0.1249308E-04 Eh
 * total energy  :  -126.8475914 Eh     change       -0.1207892E-04 Eh
 * total energy  :  -126.8475956 Eh     change       -0.4167809E-05 Eh
   *** GEOMETRY OPTIMIZATION CONVERGED AFTER 44 ITERATIONS ***

 final structure:
================
74
 xtb: 6.3.3 (4ae9cef)
C        -3.53551029916716   -0.70971682165574   -1.15140641177056
C        -4.35446754808985   -1.52869178740091   -1.87603035424332
C        -3.99303637213672   -2.86240894585713   -2.15155234747751
C        -4.81130329831331   -3.72880385608608   -2.90618221466435
C        -4.43185137489056   -5.02086710369109   -3.13796109492057
C        -3.21921974574876   -5.50754808157154   -2.62326584734336
C        -2.40399355022857   -4.69309227019704   -1.88944913508432
C        -2.76451699205155   -3.35232477105884   -1.63743894677339
C        -1.94178251170556   -2.48414949594416   -0.89385693226195
C        -2.30008296247712   -1.17823132886313   -0.67182979937475
C        -1.38782940783687   -0.28545916987377    0.14415169823998
C         0.08499540420290   -0.32793613882391   -0.32160874122365
C         1.05731493140197   -0.47305441263449    0.82248745850200
C         1.86785993207317   -1.57253208068580    0.92438216622811
C         2.85329081014790   -1.66075477110869    1.92742372893712
C         3.74685280727418   -2.74907894004602    2.00400452305154
C         4.72985244849230   -2.77609212296592    2.95267152298926
C         4.85777730454271   -1.72519666745225    3.87433132006329
C         3.99982526438336   -0.66259423194026    3.83372367885049
C         2.98225511222028   -0.59899180168999    2.86058358179205
C         2.09644599534042    0.49492282764487    2.76970451208555
C         1.16403536068374    0.56021404749027    1.77542488321194
N         0.26958086268076    0.95231638993496   -1.00132385235162
C         1.43621657623655    1.42031403632290   -1.47709057099416
C         2.60127580065785    0.49428879790941   -1.38342509614829
C         2.69101150764989   -0.61190792848666   -2.22115651136016
C         3.77114927564230   -1.47318801037455   -2.11719446343482
C         4.75288456682691   -1.25070092539886   -1.17039574567035
C         4.67106031341337   -0.13061161344237   -0.34332179144697
C         5.65686621288923    0.08962870170756    0.64772579959998
N         6.44666402294645    0.25182810922358    1.46149961220444
C         3.60642174714593    0.75878514605974   -0.46634594110276
O         1.52542496204711    2.54252683134016   -1.96964116930636
C        -0.88739508698366    1.82730079669688   -0.84143856513275
C        -1.59174500808423    2.14325454644870   -2.20135781582484
O        -0.82376088585481    2.74536985242726   -3.07969668892270
O        -2.74927177333168    1.90374631628067   -2.38526916135050
N        -1.72022689818769    1.12878162519554    0.09392614546478
C        -2.40152500590940    1.69861385515694    1.13041146437531
C        -2.50572047112247    3.19035036928095    1.08864881889106
C        -1.90843256494119    3.91743194222721    2.10846288198048
C        -2.01435670737276    5.30702092704186    2.11835200070543
C        -1.38156632034670    6.04831706736005    3.14453462949045
N        -0.85805247767519    6.64537647456776    3.97066358825320
C        -2.73597618005016    5.96365759247114    1.12099620408118
C        -3.34774057167677    5.22641213602752    0.12436502325642
C        -3.23485747233646    3.84533166742901    0.10068456425649
O        -2.87341782320679    1.03551858279079    2.02682237584161
H        -3.83180842257317    0.30558448116401   -0.94949977794296
H        -5.29818814881604   -1.15777359699151   -2.24726932696949
H        -5.74436658176770   -3.34992731782497   -3.29763406110408
H        -5.06196817136344   -5.67952650815665   -3.71733588543672
H        -2.93737763618380   -6.53284491538560   -2.81355291227001
H        -1.47003808418527   -5.06401800396570   -1.49070235592143
H        -1.02101134646978   -2.87977558000390   -0.48585777269861
H        -1.47091541652245   -0.59548066120081    1.19577991326544
H         0.23498980597851   -1.13852168825769   -1.04147058690173
H         1.78731472064590   -2.37715234482034    0.20621042719059
H         3.64463357049046   -3.55444686304753    1.29036269750721
H         5.41843437472362   -3.60647246606122    2.99925119992126
H         5.64330624116587   -1.76257984353858    4.61317130736919
H         4.09470906477813    0.14947623892820    4.53914598394418
H         2.17962846276381    1.29213270155036    3.49377815301279
H         0.50510965801377    1.41395105333782    1.70778012918737
H         1.92069518055849   -0.79349467081665   -2.95644272837293
H         3.83949554054760   -2.32802610508437   -2.77275867581582
H         5.58401335091921   -1.93145093673031   -1.06477031910056
H         3.55326792099952    1.63051357234694    0.16808455182834
H        -0.56265380811567    2.80392389457474   -0.43737931048979
H         0.11580620007038    2.87446685134348   -2.75968951025664
H        -1.36554899672374    3.40992087215214    2.89296485826432
H        -2.81509635369507    7.04029677249684    1.14116859422102
H        -3.91701744637013    5.72837129246500   -0.64270909866744
H        -3.71683858805128    3.27547540970388   -0.67837047791623

          :  Hamiltonian                  GFN2-xTB          :
         :: total energy            -126.847595609453 Eh    ::
         :: gradient norm              0.000413793033 Eh/a0 ::
         :: HOMO-LUMO gap              2.397340878339 eV    ::
         :: SCC energy              -129.000140982143 Eh    ::
         :: -> dispersion             -0.114418575127 Eh    ::
         :: repulsion energy           2.149661510845 Eh    ::

    * Orbital Energies and Occupations

         #    Occupation            Energy/Eh            Energy/eV
      -------------------------------------------------------------
         1        2.0000           -0.7649893             -20.8164
       ...           ...                  ...                  ...
       103        2.0000           -0.4369441             -11.8899
       104        2.0000           -0.4351684             -11.8415
       105        2.0000           -0.4347463             -11.8300
       106        2.0000           -0.4341605             -11.8141
       107        2.0000           -0.4311726             -11.7328
       108        2.0000           -0.4257744             -11.5859
       109        2.0000           -0.4247684             -11.5585
       110        2.0000           -0.4225257             -11.4975
       111        2.0000           -0.4163905             -11.3306
       112        2.0000           -0.4112706             -11.1912
       113        2.0000           -0.4070586             -11.0766
       114        2.0000           -0.4009777             -10.9112
       115        2.0000           -0.3869820             -10.5303 (HOMO)
       116                         -0.2988814              -8.1330 (LUMO)
       117                         -0.2870141              -7.8101
       118                         -0.2842005              -7.7335
       119                         -0.2789071              -7.5894
       120                         -0.2692701              -7.3272
       121                         -0.2682391              -7.2992
       122                         -0.2608449              -7.0980
       123                         -0.2583633              -7.0304
       124                         -0.2526112              -6.8739
       125                         -0.2369133              -6.4467
       126                         -0.2311619              -6.2902
       ...                                ...                  ...
       218                          1.1619884              31.6193
      -------------------------------------------------------------
                  HL-Gap            0.0881007 Eh            2.3973 eV

     #   Z          covCN         q      C6AA      Î±(0)
     1   6 C        2.918    -0.028    28.709     8.786
     2   6 C        2.918    -0.030    28.744     8.792
     3   6 C        2.987     0.014    27.690     8.632
     4   6 C        2.918    -0.033    28.814     8.802
     5   6 C        2.916    -0.029    28.723     8.789
     6   6 C        2.916    -0.029    28.720     8.788
     7   6 C        2.918    -0.036    28.890     8.814
     8   6 C        2.987     0.014    27.693     8.632
     9   6 C        2.924    -0.048    29.195     8.861
    10   6 C        2.966    -0.000    28.033     8.685
    11   6 C        3.828     0.042    19.847     6.339
    12   6 C        3.817     0.036    19.957     6.358
    13   6 C        2.969    -0.010    28.274     8.722
    14   6 C        2.922    -0.044    29.085     8.844
    15   6 C        2.987     0.012    27.739     8.639
    16   6 C        2.918    -0.036    28.895     8.815
    17   6 C        2.916    -0.024    28.612     8.771
    18   6 C        2.916    -0.022    28.551     8.762
    19   6 C        2.918    -0.029    28.731     8.790
    20   6 C        2.988     0.014    27.699     8.633
    21   6 C        2.917    -0.032    28.797     8.800
    22   6 C        2.919    -0.035    28.874     8.812
    23   7 N        2.762    -0.112    23.436     7.190
    24   6 C        2.765     0.271    22.431     7.756
    25   6 C        2.977    -0.005    28.141     8.702
    26   6 C        2.922    -0.022    28.550     8.762
    27   6 C        2.919    -0.021    28.535     8.760
    28   6 C        2.926    -0.016    28.415     8.742
    29   6 C        2.974     0.027    27.391     8.585
    30   6 C        1.912     0.114    28.279     8.588
    31   7 N        0.911    -0.217    25.723     7.335
    32   6 C        2.931    -0.012    28.304     8.725
    33   8 O        0.860    -0.454    22.783     6.400
    34   6 C        3.756     0.082    19.263     6.258
    35   6 C        2.683     0.351    21.039     7.506
    36   8 O        1.654    -0.367    20.223     6.071
    37   8 O        0.856    -0.362    20.939     6.135
    38   7 N        2.761    -0.109    23.376     7.181
    39   6 C        2.766     0.272    22.397     7.751
    40   6 C        2.974    -0.016    28.396     8.741
    41   6 C        2.932    -0.016    28.412     8.742
    42   6 C        2.973     0.024    27.468     8.597
    43   6 C        1.912     0.113    28.302     8.592
    44   7 N        0.911    -0.221    25.834     7.351
    45   6 C        2.925    -0.017    28.445     8.746
    46   6 C        2.919    -0.021    28.541     8.761
    47   6 C        2.920    -0.026    28.642     8.776
    48   8 O        0.859    -0.408    21.833     6.265
    49   1 H        0.926     0.056     2.247     2.344
    50   1 H        0.926     0.045     2.387     2.416
    51   1 H        0.926     0.037     2.494     2.470
    52   1 H        0.926     0.034     2.535     2.490
    53   1 H        0.926     0.032     2.553     2.499
    54   1 H        0.926     0.029     2.603     2.523
    55   1 H        0.925     0.024     2.670     2.555
    56   1 H        0.923     0.084     1.934     2.175
    57   1 H        0.924     0.057     2.237     2.339
    58   1 H        0.925     0.027     2.635     2.538
    59   1 H        0.926     0.032     2.562     2.503
    60   1 H        0.926     0.040     2.446     2.446
    61   1 H        0.926     0.046     2.370     2.407
    62   1 H        0.926     0.044     2.391     2.418
    63   1 H        0.926     0.045     2.388     2.417
    64   1 H        0.926     0.024     2.673     2.556
    65   1 H        0.926     0.046     2.366     2.405
    66   1 H        0.926     0.054     2.274     2.358
    67   1 H        0.926     0.054     2.266     2.354
    68   1 H        0.926     0.052     2.299     2.371
    69   1 H        0.922     0.055     2.254     2.348
    70   1 H        0.800     0.365     0.554     1.170
    71   1 H        0.926     0.050     2.319     2.381
    72   1 H        0.926     0.052     2.298     2.371
    73   1 H        0.926     0.053     2.278     2.360
    74   1 H        0.926     0.062     2.176     2.307

Wiberg/Mayer (AO) data.
largest (>0.10) Wiberg bond orders for each atom

     #   Z sym  total        # sym  WBO       # sym  WBO       # sym  WBO
 ---------------------------------------------------------------------------
     1   6 C    3.989 --     2 C    1.553    10 C    1.305    49 H    0.963
     2   6 C    3.991 --     1 C    1.553     3 C    1.283    50 H    0.967
                             9 C    0.117
     3   6 C    3.990 --     2 C    1.283     4 C    1.279     8 C    1.249
     4   6 C    3.992 --     5 C    1.559     3 C    1.279    51 H    0.968
                             7 C    0.118
     5   6 C    3.990 --     4 C    1.559     6 C    1.318    52 H    0.971
     6   6 C    3.992 --     7 C    1.560     5 C    1.318    53 H    0.971
     7   6 C    3.992 --     6 C    1.560     8 C    1.276    54 H    0.968
                             4 C    0.118
     8   6 C    3.990 --     9 C    1.286     7 C    1.276     3 C    1.249
     9   6 C    3.990 --    10 C    1.518     8 C    1.286    55 H    0.964
                             2 C    0.117
    10   6 C    3.982 --     9 C    1.518     1 C    1.305    11 C    0.981
    11   6 C    3.956 --    10 C    0.981    38 N    0.967    12 C    0.957
                            56 H    0.939
    12   6 C    3.957 --    13 C    0.987    11 C    0.957    23 N    0.952
                            57 H    0.951
    13   6 C    3.984 --    14 C    1.524    22 C    1.292    12 C    0.987
    14   6 C    3.989 --    13 C    1.524    15 C    1.283    58 H    0.965
                            21 C    0.112
    15   6 C    3.990 --    14 C    1.283    16 C    1.277    20 C    1.249
    16   6 C    3.989 --    17 C    1.558    15 C    1.277    59 H    0.968
                            19 C    0.118
    17   6 C    3.992 --    16 C    1.558    18 C    1.320    60 H    0.970
    18   6 C    3.988 --    19 C    1.556    17 C    1.320    61 H    0.970
    19   6 C    3.991 --    18 C    1.556    20 C    1.282    62 H    0.968
                            16 C    0.118
    20   6 C    3.990 --    19 C    1.282    21 C    1.276    15 C    1.249
    21   6 C    3.991 --    22 C    1.564    20 C    1.276    63 H    0.967
                            14 C    0.112
    22   6 C    3.992 --    21 C    1.564    13 C    1.292    64 H    0.968
    23   7 N    3.502 --    24 C    1.279    34 C    0.961    12 C    0.952
                            33 O    0.189
    24   6 C    3.943 --    33 O    1.596    23 N    1.279    25 C    0.967
    25   6 C    3.987 --    32 C    1.418    26 C    1.397    24 C    0.967
                            28 C    0.104
    26   6 C    3.965 --    27 C    1.434    25 C    1.397    65 H    0.969
    27   6 C    3.990 --    28 C    1.452    26 C    1.434    66 H    0.968
                            32 C    0.106
    28   6 C    3.990 --    27 C    1.452    29 C    1.362    67 H    0.969
                            25 C    0.104
    29   6 C    3.990 --    32 C    1.368    28 C    1.362    30 C    1.089
    30   6 C    3.947 --    31 N    2.813    29 C    1.089
    31   7 N    2.984 --    30 C    2.813
    32   6 C    3.989 --    25 C    1.418    29 C    1.368    68 H    0.968
                            27 C    0.106
    33   8 O    2.020 --    24 C    1.596    23 N    0.189
    34   6 C    3.959 --    38 N    1.005    23 N    0.961    69 H    0.936
                            35 C    0.887
    35   6 C    3.932 --    37 O    1.775    36 O    1.211    34 C    0.887
    36   8 O    2.243 --    35 C    1.211    70 H    0.761    37 O    0.185
    37   8 O    2.084 --    35 C    1.775    36 O    0.185
    38   7 N    3.466 --    39 C    1.191    34 C    1.005    11 C    0.967
                            48 O    0.188
    39   6 C    3.944 --    48 O    1.707    38 N    1.191    40 C    0.963
    40   6 C    3.988 --    41 C    1.418    47 C    1.395    39 C    0.963
                            45 C    0.103
    41   6 C    3.990 --    40 C    1.418    42 C    1.367    71 H    0.968
                            46 C    0.106
    42   6 C    3.990 --    41 C    1.367    45 C    1.362    43 C    1.090
                            47 C    0.100
    43   6 C    3.947 --    44 N    2.811    42 C    1.090
    44   7 N    2.983 --    43 C    2.811
    45   6 C    3.990 --    46 C    1.452    42 C    1.362    72 H    0.969
                            40 C    0.103
    46   6 C    3.991 --    45 C    1.452    47 C    1.435    73 H    0.968
                            41 C    0.106
    47   6 C    3.963 --    46 C    1.435    40 C    1.395    74 H    0.965
                            42 C    0.100
    48   8 O    2.035 --    39 C    1.707    38 N    0.188
    49   1 H    0.996 --     1 C    0.963
    50   1 H    0.997 --     2 C    0.967
    51   1 H    0.998 --     4 C    0.968
    52   1 H    0.998 --     5 C    0.971
    53   1 H    0.998 --     6 C    0.971
    54   1 H    0.999 --     7 C    0.968
    55   1 H    0.999 --     9 C    0.964
    56   1 H    0.991 --    11 C    0.939
    57   1 H    0.996 --    12 C    0.951
    58   1 H    0.999 --    14 C    0.965
    59   1 H    0.999 --    16 C    0.968
    60   1 H    0.998 --    17 C    0.970
    61   1 H    0.997 --    18 C    0.970
    62   1 H    0.998 --    19 C    0.968
    63   1 H    0.997 --    21 C    0.967
    64   1 H    0.999 --    22 C    0.968
    65   1 H    0.998 --    26 C    0.969
    66   1 H    0.995 --    27 C    0.968
    67   1 H    0.997 --    28 C    0.969
    68   1 H    0.997 --    32 C    0.968
    69   1 H    0.997 --    34 C    0.936
    70   1 H    0.866 --    36 O    0.761
    71   1 H    0.997 --    41 C    0.968
    72   1 H    0.997 --    45 C    0.969
    73   1 H    0.995 --    46 C    0.968
    74   1 H    0.996 --    47 C    0.965
 ---------------------------------------------------------------------------

molecular dipole:
                 x           y           z       tot (Debye)
 q only:        0.773      -1.998      -0.921
   full:        0.637      -2.175      -1.438       6.823

           -------------------------------------------------
          | TOTAL ENERGY             -126.847595609453 Eh   |
          | GRADIENT NORM               0.000413793033 Eh/Î± |
          | HOMO-LUMO GAP               2.397340878339 eV   |
           -------------------------------------------------

 * finished run on 2022/03/16 at 23:10:09.917
