   * xtb version 6.3.3 (4ae9cef) compiled by 'conda@95abc7406d43' on 2020-10-14
          program call               : xtb acid_248.xyz --opt --chrg 0 --uhf 0 --gfn 2
          number of atoms            :                    60
          number of electrons        :                   182
          charge                     :                     0
          spin                       :                   0.0

   ID    Z sym.   atoms
    1    6 C      1-14, 16-18, 20-22, 24, 25, 29-31, 33-35
    2    7 N      15, 28
    3    8 O      19, 23, 26, 27, 32, 36
    4    1 H      37-60

          :  Hamiltonian                  GFN2-xTB          :
 * total energy  :  -102.4524366 Eh     change       -0.2352522E-08 Eh
 * total energy  :  -102.4642507 Eh     change       -0.1181413E-01 Eh
 * total energy  :  -102.4675767 Eh     change       -0.3325945E-02 Eh
 * total energy  :  -102.4691917 Eh     change       -0.1615070E-02 Eh
 * total energy  :  -102.4703085 Eh     change       -0.1116794E-02 Eh
 * total energy  :  -102.4712058 Eh     change       -0.8972689E-03 Eh
 * total energy  :  -102.4719749 Eh     change       -0.7691331E-03 Eh
 * total energy  :  -102.4727870 Eh     change       -0.8120289E-03 Eh
 * total energy  :  -102.4734822 Eh     change       -0.6952845E-03 Eh
 * total energy  :  -102.4741551 Eh     change       -0.6728751E-03 Eh
 * total energy  :  -102.4785660 Eh     change       -0.1391030E-04 Eh
 * total energy  :  -102.4785789 Eh     change       -0.1286076E-04 Eh
 * total energy  :  -102.4785938 Eh     change       -0.1494562E-04 Eh
 * total energy  :  -102.4786079 Eh     change       -0.1402093E-04 Eh
 * total energy  :  -102.4786189 Eh     change       -0.1108493E-04 Eh
 * total energy  :  -102.4786287 Eh     change       -0.9727832E-05 Eh
 * total energy  :  -102.4786385 Eh     change       -0.9781141E-05 Eh
 * total energy  :  -102.4786472 Eh     change       -0.8737288E-05 Eh
 * total energy  :  -102.4786498 Eh     change       -0.2633757E-05 Eh
   *** GEOMETRY OPTIMIZATION CONVERGED AFTER 68 ITERATIONS ***

 final structure:
================
60
 xtb: 6.3.3 (4ae9cef)
C        -1.88602561318908   -2.09985791452557   -2.38058345485507
C        -2.70574732927685   -2.32161191969396   -3.47145124806763
C        -3.41012127415359   -1.27035552634645   -4.03524219087933
C        -3.30014957116407   -0.00234702355001   -3.49328928555492
C        -2.48197469373183    0.22241119213700   -2.39833789548799
C        -1.75708046253197   -0.82294399373157   -1.84387889087211
C        -0.85700944118408   -0.62852213094679   -0.64312824215587
C         0.59960630240493   -1.11501690922691   -0.90987221245496
C         1.08759803293863   -2.04594597554123    0.17102184675611
C         1.40601456313700   -3.36407229721288   -0.11727894926460
C         1.84616703721093   -4.20994234694991    0.88536247251035
C         1.97169136580056   -3.74387157714777    2.18231760444777
C         1.65522729144690   -2.42797645566749    2.47555619698957
C         1.21391015114391   -1.58229265699741    1.47522553742642
N         1.38231365539319    0.11928617441826   -0.91793298878718
C         2.74877309263745    0.09513398002270   -0.94005059251336
C         3.41521967168600    1.37839052171404   -0.64286835925529
C         4.43554234811537    1.94427326882506   -1.35320080179010
O         4.85551674448687    3.06927564680877   -0.76261182405208
C         4.12757330970167    3.23820873454829    0.36337838587038
C         4.40922799762732    4.41211323009340    1.22828701729595
C         3.22260900655723    2.22820231231480    0.48764959817892
O         3.35292417058943   -0.92399937187853   -1.20799602555588
C         0.51392085855450    1.26812684418286   -0.84408065665419
C         0.22803801569006    1.87985621771213   -2.24166484539899
O         0.91016680777128    1.34281766417288   -3.25179509588994
O        -0.53796268633419    2.78357796976488   -2.39143561885390
N        -0.69707107619998    0.75695262747836   -0.24595130946442
C        -1.10940261307562    1.30422833471315    0.94603634246868
C        -2.28941234817436    0.70027957936357    1.57594831779305
C        -3.36125626998394    0.04758214944364    1.02691467580122
O        -4.25510508946115   -0.26299732418360    1.97230166805008
C        -3.77672143488196    0.18180785044079    3.15916218493373
C        -4.58806344385435   -0.04883795325624    4.38176236058469
C        -2.57464348817759    0.78902297885785    2.97167019799724
O        -0.53483568614741    2.26173096159685    1.42599565273473
H        -1.34826941646935   -2.92357432361243   -1.93279735569583
H        -2.79642342573738   -3.31691156139730   -3.88024532364320
H        -4.04715036997344   -1.44254679451937   -4.88957300315875
H        -3.85183808409646    0.82121610497301   -3.91984281022723
H        -2.41075792755312    1.21329404456821   -1.97773221599966
H        -1.27654370151234   -1.19402334795855    0.19743025848525
H         0.67280115213036   -1.61458140716615   -1.88374751632974
H         1.32358265823780   -3.72540111054490   -1.13185747499017
H         2.09891314194817   -5.23313184684628    0.65072590327581
H         2.32141195193077   -4.40246272217908    2.96325507754241
H         1.75602366260227   -2.05746008001006    3.48488287803494
H         0.97367695056376   -0.55430022532468    1.70885662420993
H         4.90539021516349    1.65244275071936   -2.27083317893541
H         5.38220071378831    4.30780287360234    1.70777849277945
H         3.64337948818453    4.49398604029324    1.99319014159288
H         4.42374006964812    5.32281978471281    0.63252291208426
H         2.53330365278129    2.08987772260282    1.29568968132587
H         0.89803242265756    2.07797749657825   -0.20939825923432
H         1.48346878540536    0.61323608842021   -2.96140798698069
H        -3.60926220234892   -0.20454465025009    0.01473373069350
H        -5.59078613796494    0.35430039129938    4.25001498523262
H        -4.11543106548181    0.43549515854216    5.23034001410309
H        -4.67916652041887   -1.11547945066646    4.58424008983133
H        -1.94975691485585    1.24928120242675    3.70783376399798

          :  Hamiltonian                  GFN2-xTB          :
         :: total energy            -102.478649830123 Eh    ::
         :: gradient norm              0.000247173379 Eh/a0 ::
         :: HOMO-LUMO gap              3.715919580811 eV    ::
         :: SCC energy              -103.921523257724 Eh    ::
         :: -> dispersion             -0.079290447709 Eh    ::
         :: repulsion energy           1.440612615405 Eh    ::

    * Orbital Energies and Occupations

         #    Occupation            Energy/Eh            Energy/eV
      -------------------------------------------------------------
         1        2.0000           -0.7623041             -20.7434
       ...           ...                  ...                  ...
        79        2.0000           -0.4359018             -11.8615
        80        2.0000           -0.4347859             -11.8311
        81        2.0000           -0.4328195             -11.7776
        82        2.0000           -0.4227108             -11.5025
        83        2.0000           -0.4183814             -11.3847
        84        2.0000           -0.4161359             -11.3236
        85        2.0000           -0.4146340             -11.2828
        86        2.0000           -0.4125795             -11.2269
        87        2.0000           -0.4101756             -11.1614
        88        2.0000           -0.4043014             -11.0016
        89        2.0000           -0.4010612             -10.9134
        90        2.0000           -0.3988271             -10.8526
        91        2.0000           -0.3958560             -10.7718 (HOMO)
        92                         -0.2592984              -7.0559 (LUMO)
        93                         -0.2517320              -6.8500
        94                         -0.2485789              -6.7642
        95                         -0.2414870              -6.5712
        96                         -0.2362659              -6.4291
        97                         -0.2335005              -6.3539
        98                         -0.2327053              -6.3322
        99                         -0.2133628              -5.8059
       100                         -0.2126116              -5.7855
       101                         -0.1597504              -4.3470
       102                         -0.1461007              -3.9756
       ...                                ...                  ...
       168                          0.6846381              18.6300
      -------------------------------------------------------------
                  HL-Gap            0.1365575 Eh            3.7159 eV

     #   Z          covCN         q      C6AA      Î±(0)
     1   6 C        2.924    -0.040    28.982     8.829
     2   6 C        2.919    -0.027    28.684     8.783
     3   6 C        2.920    -0.028    28.708     8.786
     4   6 C        2.920    -0.024    28.602     8.770
     5   6 C        2.922    -0.037    28.914     8.818
     6   6 C        2.971    -0.008    28.213     8.713
     7   6 C        3.830     0.032    20.013     6.365
     8   6 C        3.822     0.044    19.813     6.334
     9   6 C        2.974     0.007    27.851     8.657
    10   6 C        2.923    -0.028    28.692     8.784
    11   6 C        2.920    -0.025    28.625     8.774
    12   6 C        2.921    -0.028    28.691     8.784
    13   6 C        2.920    -0.027    28.672     8.781
    14   6 C        2.924    -0.032    28.791     8.799
    15   7 N        2.762    -0.140    24.032     7.281
    16   6 C        2.755     0.267    22.497     7.767
    17   6 C        3.064    -0.058    29.380     8.888
    18   6 C        3.057     0.074    26.287     8.408
    19   8 O        1.731    -0.175    16.936     5.557
    20   6 C        3.098     0.120    25.255     8.236
    21   6 C        3.753    -0.120    22.859     6.818
    22   6 C        3.016    -0.080    29.984     8.982
    23   8 O        0.859    -0.430    22.290     6.330
    24   6 C        3.779     0.070    19.435     6.281
    25   6 C        2.686     0.346    21.118     7.520
    26   8 O        1.659    -0.356    20.023     6.041
    27   8 O        0.856    -0.347    20.660     6.094
    28   7 N        2.760    -0.125    23.708     7.232
    29   6 C        2.763     0.275    22.357     7.743
    30   6 C        3.062    -0.048    29.119     8.849
    31   6 C        3.047     0.067    26.447     8.434
    32   8 O        1.731    -0.176    16.957     5.560
    33   6 C        3.089     0.116    25.346     8.252
    34   6 C        3.753    -0.119    22.844     6.816
    35   6 C        3.016    -0.068    29.665     8.934
    36   8 O        0.859    -0.423    22.150     6.310
    37   1 H        0.926     0.031     2.572     2.508
    38   1 H        0.926     0.038     2.470     2.458
    39   1 H        0.926     0.040     2.454     2.450
    40   1 H        0.926     0.045     2.383     2.414
    41   1 H        0.926     0.050     2.318     2.381
    42   1 H        0.924     0.056     2.241     2.341
    43   1 H        0.924     0.051     2.313     2.378
    44   1 H        0.926     0.037     2.491     2.468
    45   1 H        0.926     0.039     2.456     2.451
    46   1 H        0.926     0.037     2.482     2.464
    47   1 H        0.926     0.037     2.489     2.467
    48   1 H        0.925     0.029     2.600     2.521
    49   1 H        0.926     0.060     2.198     2.318
    50   1 H        0.925     0.066     2.126     2.280
    51   1 H        0.925     0.065     2.144     2.290
    52   1 H        0.925     0.068     2.103     2.268
    53   1 H        0.926     0.050     2.319     2.381
    54   1 H        0.923     0.109     1.702     2.040
    55   1 H        0.804     0.331     0.634     1.251
    56   1 H        0.926     0.056     2.246     2.343
    57   1 H        0.925     0.068     2.111     2.272
    58   1 H        0.925     0.062     2.175     2.306
    59   1 H        0.925     0.065     2.142     2.289
    60   1 H        0.927     0.058     2.226     2.333

Wiberg/Mayer (AO) data.
largest (>0.10) Wiberg bond orders for each atom

     #   Z sym  total        # sym  WBO       # sym  WBO       # sym  WBO
 ---------------------------------------------------------------------------
     1   6 C    3.991 --     2 C    1.451     6 C    1.404    37 H    0.968
                             4 C    0.113
     2   6 C    3.991 --     1 C    1.451     3 C    1.432    38 H    0.971
                             5 C    0.110
     3   6 C    3.991 --     4 C    1.446     2 C    1.432    39 H    0.971
                             6 C    0.109
     4   6 C    3.991 --     3 C    1.446     5 C    1.435    40 H    0.970
                             1 C    0.113
     5   6 C    3.990 --     4 C    1.435     6 C    1.420    41 H    0.965
                             2 C    0.110
     6   6 C    3.985 --     5 C    1.420     1 C    1.404     7 C    0.986
                             3 C    0.109
     7   6 C    3.967 --     6 C    0.986    28 N    0.977     8 C    0.946
                            42 H    0.946
     8   6 C    3.965 --     9 C    0.991    15 N    0.956    43 H    0.956
                             7 C    0.946
     9   6 C    3.985 --    10 C    1.417    14 C    1.408     8 C    0.991
                            12 C    0.109
    10   6 C    3.990 --    11 C    1.440     9 C    1.417    44 H    0.968
                            13 C    0.110
    11   6 C    3.992 --    12 C    1.442    10 C    1.440    45 H    0.971
                            14 C    0.112
    12   6 C    3.990 --    11 C    1.442    13 C    1.435    46 H    0.971
                             9 C    0.109
    13   6 C    3.992 --    14 C    1.449    12 C    1.435    47 H    0.971
                            10 C    0.110
    14   6 C    3.992 --    13 C    1.449     9 C    1.408    48 H    0.969
                            11 C    0.112
    15   7 N    3.457 --    16 C    1.182    24 C    0.983     8 C    0.956
                            23 O    0.185
    16   6 C    3.948 --    23 O    1.682    15 N    1.182    17 C    0.995
    17   6 C    3.976 --    18 C    1.560    22 C    1.239    16 C    0.995
    18   6 C    3.912 --    17 C    1.560    19 O    1.150    49 H    0.965
                            20 C    0.130
    19   8 O    2.453 --    18 C    1.150    20 C    1.113
    20   6 C    3.911 --    22 C    1.589    19 O    1.113    21 C    1.031
                            18 C    0.130
    21   6 C    3.991 --    20 C    1.031    51 H    0.982    52 H    0.970
                            50 H    0.966
    22   6 C    3.977 --    20 C    1.589    17 C    1.239    53 H    0.970
    23   8 O    2.010 --    16 C    1.682    15 N    0.185
    24   6 C    3.957 --    28 N    0.986    15 N    0.983    54 H    0.918
                            25 C    0.903
    25   6 C    3.923 --    27 O    1.802    26 O    1.151    24 C    0.903
    26   8 O    2.228 --    25 C    1.151    55 H    0.849    27 O    0.172
    27   8 O    2.091 --    25 C    1.802    26 O    0.172
    28   7 N    3.434 --    29 C    1.161    24 C    0.986     7 C    0.977
                            36 O    0.173
    29   6 C    3.946 --    36 O    1.681    28 N    1.161    30 C    1.023
    30   6 C    3.978 --    31 C    1.534    35 C    1.240    29 C    1.023
    31   6 C    3.914 --    30 C    1.534    32 O    1.157    56 H    0.961
                            33 C    0.130
    32   8 O    2.452 --    31 C    1.157    33 C    1.104
    33   6 C    3.909 --    35 C    1.599    32 O    1.104    34 C    1.031
                            31 C    0.130
    34   6 C    3.992 --    33 C    1.031    58 H    0.983    57 H    0.969
                            59 H    0.967
    35   6 C    3.979 --    33 C    1.599    30 C    1.240    60 H    0.973
    36   8 O    2.022 --    29 C    1.681    28 N    0.173
    37   1 H    0.999 --     1 C    0.968
    38   1 H    0.998 --     2 C    0.971
    39   1 H    0.998 --     3 C    0.971
    40   1 H    0.998 --     4 C    0.970
    41   1 H    0.997 --     5 C    0.965
    42   1 H    0.997 --     7 C    0.946
    43   1 H    0.997 --     8 C    0.956
    44   1 H    0.999 --    10 C    0.968
    45   1 H    0.998 --    11 C    0.971
    46   1 H    0.998 --    12 C    0.971
    47   1 H    0.998 --    13 C    0.971
    48   1 H    0.999 --    14 C    0.969
    49   1 H    0.996 --    18 C    0.965
    50   1 H    0.995 --    21 C    0.966
    51   1 H    0.996 --    21 C    0.982
    52   1 H    0.995 --    21 C    0.970
    53   1 H    0.997 --    22 C    0.970
    54   1 H    0.988 --    24 C    0.918
    55   1 H    0.890 --    26 O    0.849
    56   1 H    0.997 --    31 C    0.961
    57   1 H    0.995 --    34 C    0.969
    58   1 H    0.996 --    34 C    0.983
    59   1 H    0.996 --    34 C    0.967
    60   1 H    0.997 --    35 C    0.973
 ---------------------------------------------------------------------------

molecular dipole:
                 x           y           z       tot (Debye)
 q only:       -0.897      -1.129       1.022
   full:       -0.737      -1.368       1.098       4.836

           -------------------------------------------------
          | TOTAL ENERGY             -102.478649830123 Eh   |
          | GRADIENT NORM               0.000247173379 Eh/Î± |
          | HOMO-LUMO GAP               3.715919580811 eV   |
           -------------------------------------------------

 * finished run on 2022/03/16 at 22:57:13.801
