   * xtb version 6.3.3 (4ae9cef) compiled by 'conda@95abc7406d43' on 2020-10-14
          program call               : xtb acid_139.xyz --opt --chrg 0 --uhf 0 --gfn 2
          number of atoms            :                    84
          number of electrons        :                   262
          charge                     :                     0
          spin                       :                   0.0

   ID    Z sym.   atoms
    1    6 C      1, 2, 6-15, 19-22, 24-33, 35, 36, 40-49
    2    9 F      3-5, 16-18
    3    7 N      23, 39
    4    8 O      34, 37, 38, 50
    5    1 H      51-84

          :  Hamiltonian                  GFN2-xTB          :
 * total energy  :  -149.2805727 Eh     change       -0.1354238E-08 Eh
 * total energy  :  -149.2982853 Eh     change       -0.1771265E-01 Eh
 * total energy  :  -149.3044930 Eh     change       -0.6207633E-02 Eh
 * total energy  :  -149.3064781 Eh     change       -0.1985180E-02 Eh
 * total energy  :  -149.3079123 Eh     change       -0.1434143E-02 Eh
 * total energy  :  -149.3089387 Eh     change       -0.1026395E-02 Eh
 * total energy  :  -149.3098427 Eh     change       -0.9040158E-03 Eh
 * total energy  :  -149.3107849 Eh     change       -0.9422144E-03 Eh
 * total energy  :  -149.3118391 Eh     change       -0.1054228E-02 Eh
 * total energy  :  -149.3125866 Eh     change       -0.7474156E-03 Eh
 * total energy  :  -149.3169829 Eh     change       -0.1293340E-04 Eh
 * total energy  :  -149.3169926 Eh     change       -0.9751784E-05 Eh
 * total energy  :  -149.3170008 Eh     change       -0.8118550E-05 Eh
 * total energy  :  -149.3170117 Eh     change       -0.1096773E-04 Eh
 * total energy  :  -149.3170250 Eh     change       -0.1323323E-04 Eh
 * total energy  :  -149.3170354 Eh     change       -0.1047461E-04 Eh
 * total energy  :  -149.3170431 Eh     change       -0.7657944E-05 Eh
 * total energy  :  -149.3170512 Eh     change       -0.8118987E-05 Eh
 * total energy  :  -149.3170544 Eh     change       -0.3217732E-05 Eh
   *** GEOMETRY OPTIMIZATION CONVERGED AFTER 44 ITERATIONS ***

 final structure:
================
84
 xtb: 6.3.3 (4ae9cef)
C        -1.23930643825748    4.07484417186554   -0.89381541810373
C        -0.43131258252654    4.40727828842993   -2.11620662585837
F        -0.68818253964033    5.62709657922182   -2.60264070170542
F        -0.61280147745468    3.55782020952478   -3.14335084608590
F         0.90112986746207    4.39086969842325   -1.86672043487070
C        -2.12234695195669    5.02907584800477   -0.40317711753304
C        -2.86072684476913    4.77461724898832    0.73586867539475
C        -2.70494501671590    3.57052401441136    1.39944830125673
C        -1.82340225104896    2.62521719567478    0.91526730989589
C        -1.09094112577273    2.84891902874825   -0.24516399837738
C        -0.14931475147374    1.78028947808494   -0.72965537545098
C         0.97259418696931    1.47563297511225    0.28797592526030
C         2.20437923288561    2.31121768129277    0.05302200514303
C         2.63602833489710    3.30144236474997    0.93603218886296
C         1.86855199162105    3.62509370047211    2.18719078609054
F         2.43952257984920    4.58838565442876    2.92043755388786
F         0.61870434730837    4.07227623695905    1.91480271906679
F         1.70160301089814    2.58305865259968    3.01965075072304
C         3.78006284429854    4.04074659631452    0.65886499788107
C         4.50201758722659    3.80481412599066   -0.49454737496540
C         4.07505694707726    2.83388471264843   -1.38287316221216
C         2.93763361352052    2.10068018764975   -1.10947082960682
N         1.23166078267893    0.05896668839603    0.05072432796081
C         2.37935072145751   -0.54981585460166    0.46626153443294
C         2.59918352526183   -1.90468005237762   -0.13188881423445
C         2.04230078454681   -3.07664489369656    0.37420443068691
C         1.21629873522155   -3.05443164524382    1.63693071247559
C        -0.05457220880577   -3.89711782123626    1.51493017946796
C         2.08116283731151   -3.54017377746470    2.80453369784086
C         2.32229068299682   -4.27010339491226   -0.28042759035695
C         3.13084715685059   -4.30191877934260   -1.40059725562567
C         3.70410713895834   -3.13624964487404   -1.87822692753049
C         3.44280327892269   -1.94040456848668   -1.23841014102585
O         3.18418899436282    0.01646706797320    1.17156453912381
C         0.14812851431445   -0.57959036016500   -0.65936249416147
C         0.61760153157040   -1.17865470354068   -2.00352927754534
O         1.22037458670139   -0.27018486053080   -2.76661950859560
O         0.42318147229465   -2.31147912592277   -2.34075457678968
N        -0.80819692313498    0.48282146401709   -0.85879084294534
C        -2.09783643441761    0.33441753942725   -1.28632855710827
C        -2.56984342768923   -1.08779504971620   -1.29110601243691
C        -2.42368844152450   -1.83729692593065   -2.45114391126334
C        -2.80650450726608   -3.16483457720541   -2.47640251196125
C        -3.33370352924468   -3.74426308593049   -1.33553200251677
C        -3.52616154328720   -2.98433263225913   -0.19641627564773
C        -3.17079968268153   -1.64123909094922   -0.15897271743126
C        -3.45600282253455   -0.79111195349788    1.05758045722733
C        -4.92610014362320   -0.90312637267332    1.46844667385960
C        -2.54475294873271   -1.16594585987183    2.22835610631128
O        -2.78110326626656    1.28125665735631   -1.60642737058826
H        -2.22943133942764    5.97065266601428   -0.91871152353804
H        -3.54987413637685    5.51760889604372    1.10519841115177
H        -3.26915064501194    3.36797769864473    2.29690650627481
H        -1.70099729987829    1.69115066289155    1.44202764667803
H         0.30326643073696    2.04332385285298   -1.69093677294346
H         0.59610225661328    1.60242960580509    1.30775286166141
H         4.10384199884782    4.80083252223904    1.35252647432571
H         5.39149536704959    4.38016291335191   -0.69766133116622
H         4.62848624907448    2.64856737349576   -2.29088707841710
H         2.60785513483831    1.34453652537550   -1.80511956200341
H         0.93393801749498   -2.01649277805683    1.84925949689102
H        -0.60818527783608   -3.64481029682510    0.61167875850576
H         0.18461111695508   -4.95646163573013    1.48234312569228
H        -0.69463164021121   -3.72656762040067    2.37725344417090
H         1.50914917048159   -3.52260672662660    3.72933718276995
H         2.94860005047113   -2.89465445023697    2.91991433428531
H         2.42621802702754   -4.55603677526785    2.62648715994004
H         1.90222429743457   -5.19202636361757    0.08958953760063
H         3.32379207529755   -5.24109556707251   -1.89696663855236
H         4.35170085476122   -3.15872491244148   -2.74194160927885
H         3.89064323224432   -1.02023950215988   -1.58730607602730
H        -0.29847590365922   -1.40778239823741   -0.08818135113032
H         1.47939287160166   -0.65089962383857   -3.62246234297459
H        -2.01480792373479   -1.37204462039767   -3.33577413747598
H        -2.68472277385499   -3.74392577716326   -3.37817862757482
H        -3.61379374019725   -4.78716178644749   -1.33829858265593
H        -3.96595347499828   -3.44343150434080    0.67593816455747
H        -3.27416981640276    0.25316087051222    0.78781710135430
H        -5.57011218732320   -0.68497129168037    0.62021578909154
H        -5.14465064774911   -0.18943014550014    2.25961281232731
H        -5.16008590576579   -1.89906431611435    1.83538292096519
H        -2.76472592316649   -0.53955166469530    3.09036638620478
H        -2.69925617726514   -2.20421097431450    2.51219558944417
H        -1.49650976670377   -1.03452989240135    1.96708772954168

          :  Hamiltonian                  GFN2-xTB          :
         :: total energy            -149.317054421387 Eh    ::
         :: gradient norm              0.000241402869 Eh/a0 ::
         :: HOMO-LUMO gap              3.292703376415 eV    ::
         :: SCC energy              -151.220096330539 Eh    ::
         :: -> dispersion             -0.125061663227 Eh    ::
         :: repulsion energy           1.896230226114 Eh    ::

    * Orbital Energies and Occupations

         #    Occupation            Energy/Eh            Energy/eV
      -------------------------------------------------------------
         1        2.0000           -0.8763604             -23.8470
       ...           ...                  ...                  ...
       119        2.0000           -0.4330021             -11.7826
       120        2.0000           -0.4322778             -11.7629
       121        2.0000           -0.4298390             -11.6965
       122        2.0000           -0.4291609             -11.6781
       123        2.0000           -0.4288263             -11.6690
       124        2.0000           -0.4201433             -11.4327
       125        2.0000           -0.4164107             -11.3311
       126        2.0000           -0.4157098             -11.3120
       127        2.0000           -0.4105383             -11.1713
       128        2.0000           -0.4086059             -11.1187
       129        2.0000           -0.4066199             -11.0647
       130        2.0000           -0.4012036             -10.9173
       131        2.0000           -0.3992673             -10.8646 (HOMO)
       132                         -0.2782627              -7.5719 (LUMO)
       133                         -0.2629246              -7.1545
       134                         -0.2588787              -7.0444
       135                         -0.2529967              -6.8844
       136                         -0.2501407              -6.8067
       137                         -0.2398231              -6.5259
       138                         -0.2369467              -6.4476
       139                         -0.2351144              -6.3978
       140                         -0.2342211              -6.3735
       141                         -0.2298357              -6.2541
       142                         -0.2239248              -6.0933
       ...                                ...                  ...
       234                          0.6530973              17.7717
      -------------------------------------------------------------
                  HL-Gap            0.1210046 Eh            3.2927 eV

     #   Z          covCN         q      C6AA      Î±(0)
     1   6 C        2.977    -0.024    28.601     8.773
     2   6 C        3.336     0.486    17.297     6.587
     3   9 F        0.792    -0.200    11.236     3.960
     4   9 F        0.791    -0.206    11.298     3.971
     5   9 F        0.791    -0.225    11.492     4.004
     6   6 C        2.923    -0.018    28.470     8.750
     7   6 C        2.921    -0.019    28.492     8.753
     8   6 C        2.919    -0.014    28.356     8.732
     9   6 C        2.928    -0.020    28.515     8.757
    10   6 C        2.971     0.027    27.394     8.585
    11   6 C        3.830     0.047    19.765     6.326
    12   6 C        3.824     0.048    19.752     6.324
    13   6 C        2.971     0.025    27.440     8.592
    14   6 C        2.976    -0.024    28.610     8.774
    15   6 C        3.336     0.485    17.298     6.587
    16   9 F        0.792    -0.200    11.238     3.960
    17   9 F        0.791    -0.225    11.493     4.005
    18   9 F        0.791    -0.204    11.280     3.967
    19   6 C        2.924    -0.019    28.492     8.754
    20   6 C        2.920    -0.020    28.511     8.756
    21   6 C        2.919    -0.015    28.395     8.738
    22   6 C        2.928    -0.024    28.610     8.772
    23   7 N        2.768    -0.123    23.667     7.225
    24   6 C        2.763     0.274    22.374     7.746
    25   6 C        2.982    -0.033    28.806     8.804
    26   6 C        2.973     0.013    27.723     8.637
    27   6 C        3.855    -0.010    20.725     6.475
    28   6 C        3.755    -0.105    22.554     6.772
    29   6 C        3.758    -0.104    22.535     6.768
    30   6 C        2.926    -0.028    28.702     8.786
    31   6 C        2.919    -0.024    28.612     8.772
    32   6 C        2.919    -0.030    28.752     8.793
    33   6 C        2.928    -0.029    28.729     8.790
    34   8 O        0.859    -0.414    21.954     6.282
    35   6 C        3.757     0.090    19.140     6.238
    36   6 C        2.687     0.349    21.067     7.511
    37   8 O        1.659    -0.357    20.033     6.042
    38   8 O        0.856    -0.384    21.359     6.196
    39   7 N        2.768    -0.120    23.616     7.218
    40   6 C        2.759     0.275    22.351     7.742
    41   6 C        2.982    -0.032    28.789     8.801
    42   6 C        2.923    -0.023    28.568     8.765
    43   6 C        2.920    -0.025    28.631     8.775
    44   6 C        2.919    -0.029    28.720     8.788
    45   6 C        2.925    -0.034    28.844     8.807
    46   6 C        2.973     0.011    27.769     8.644
    47   6 C        3.854    -0.016    20.815     6.489
    48   6 C        3.756    -0.104    22.542     6.770
    49   6 C        3.755    -0.100    22.457     6.757
    50   8 O        0.859    -0.412    21.927     6.278
    51   1 H        0.926     0.068     2.111     2.272
    52   1 H        0.926     0.059     2.215     2.328
    53   1 H        0.926     0.057     2.233     2.337
    54   1 H        0.926     0.054     2.276     2.359
    55   1 H        0.924     0.066     2.126     2.280
    56   1 H        0.924     0.064     2.158     2.297
    57   1 H        0.926     0.068     2.111     2.272
    58   1 H        0.926     0.058     2.224     2.332
    59   1 H        0.926     0.055     2.261     2.352
    60   1 H        0.926     0.059     2.213     2.326
    61   1 H        0.924     0.022     2.705     2.572
    62   1 H        0.925     0.033     2.550     2.497
    63   1 H        0.925     0.044     2.398     2.421
    64   1 H        0.925     0.040     2.447     2.446
    65   1 H        0.925     0.043     2.407     2.426
    66   1 H        0.925     0.045     2.384     2.414
    67   1 H        0.925     0.041     2.441     2.443
    68   1 H        0.926     0.046     2.369     2.407
    69   1 H        0.926     0.041     2.432     2.439
    70   1 H        0.926     0.038     2.477     2.461
    71   1 H        0.926     0.033     2.548     2.496
    72   1 H        0.923     0.070     2.082     2.256
    73   1 H        0.804     0.345     0.601     1.218
    74   1 H        0.926     0.031     2.572     2.508
    75   1 H        0.926     0.044     2.399     2.422
    76   1 H        0.926     0.039     2.458     2.452
    77   1 H        0.926     0.042     2.422     2.434
    78   1 H        0.924     0.036     2.502     2.474
    79   1 H        0.925     0.041     2.438     2.442
    80   1 H        0.925     0.039     2.457     2.451
    81   1 H        0.925     0.040     2.445     2.445
    82   1 H        0.925     0.041     2.435     2.440
    83   1 H        0.925     0.041     2.440     2.443
    84   1 H        0.925     0.024     2.675     2.558

Wiberg/Mayer (AO) data.
largest (>0.10) Wiberg bond orders for each atom

     #   Z sym  total        # sym  WBO       # sym  WBO       # sym  WBO
 ---------------------------------------------------------------------------
     1   6 C    3.969 --     6 C    1.411    10 C    1.386     2 C    0.953
                             8 C    0.104
     2   6 C    3.820 --     3 F    0.957     1 C    0.953     4 F    0.944
                             5 F    0.927
     3   9 F    1.079 --     2 C    0.957
     4   9 F    1.074 --     2 C    0.944
     5   9 F    1.054 --     2 C    0.927
     6   6 C    3.987 --     7 C    1.445     1 C    1.411    51 H    0.966
                             9 C    0.109
     7   6 C    3.988 --     6 C    1.445     8 C    1.430    52 H    0.969
                            10 C    0.108
     8   6 C    3.990 --     9 C    1.451     7 C    1.430    53 H    0.969
                             1 C    0.104
     9   6 C    3.990 --     8 C    1.451    10 C    1.405    54 H    0.961
                             6 C    0.109
    10   6 C    3.986 --     9 C    1.405     1 C    1.386    11 C    0.998
                             7 C    0.108
    11   6 C    3.967 --    10 C    0.998    39 N    0.954    55 H    0.951
                            12 C    0.948
    12   6 C    3.967 --    13 C    0.996    23 N    0.955    56 H    0.951
                            11 C    0.948
    13   6 C    3.986 --    22 C    1.407    14 C    1.387    12 C    0.996
                            20 C    0.108
    14   6 C    3.969 --    19 C    1.411    13 C    1.387    15 C    0.952
                            21 C    0.104
    15   6 C    3.820 --    16 F    0.957    14 C    0.952    18 F    0.946
                            17 F    0.927
    16   9 F    1.079 --    15 C    0.957
    17   9 F    1.054 --    15 C    0.927
    18   9 F    1.076 --    15 C    0.946
    19   6 C    3.987 --    20 C    1.445    14 C    1.411    57 H    0.966
                            22 C    0.109
    20   6 C    3.988 --    19 C    1.445    21 C    1.431    58 H    0.969
                            13 C    0.108
    21   6 C    3.990 --    22 C    1.450    20 C    1.431    59 H    0.969
                            14 C    0.104
    22   6 C    3.989 --    21 C    1.450    13 C    1.407    60 H    0.961
                            19 C    0.109
    23   7 N    3.445 --    24 C    1.189    35 C    0.985    12 C    0.955
                            34 O    0.188
    24   6 C    3.941 --    34 O    1.706    23 N    1.189    25 C    0.955
    25   6 C    3.985 --    33 C    1.394    26 C    1.386    24 C    0.955
                            31 C    0.106
    26   6 C    3.986 --    30 C    1.409    25 C    1.386    27 C    0.999
                            32 C    0.107
    27   6 C    3.996 --    28 C    1.002    26 C    0.999    29 C    0.991
                            61 H    0.962
    28   6 C    3.996 --    27 C    1.002    64 H    0.984    62 H    0.984
                            63 H    0.983
    29   6 C    3.994 --    27 C    0.991    66 H    0.987    67 H    0.986
                            65 H    0.984
    30   6 C    3.991 --    31 C    1.449    26 C    1.409    68 H    0.965
                            33 C    0.110
    31   6 C    3.991 --    30 C    1.449    32 C    1.430    69 H    0.970
                            25 C    0.106
    32   6 C    3.991 --    33 C    1.447    31 C    1.430    70 H    0.970
                            26 C    0.107
    33   6 C    3.991 --    32 C    1.447    25 C    1.394    71 H    0.969
                            30 C    0.110
    34   8 O    2.034 --    24 C    1.706    23 N    0.188
    35   6 C    3.970 --    39 N    0.987    23 N    0.985    72 H    0.939
                            36 C    0.906
    36   6 C    3.921 --    38 O    1.782    37 O    1.152    35 C    0.906
    37   8 O    2.224 --    36 C    1.152    73 H    0.855    38 O    0.181
    38   8 O    2.066 --    36 C    1.782    37 O    0.181
    39   7 N    3.448 --    40 C    1.186    35 C    0.987    11 C    0.954
                            50 O    0.186
    40   6 C    3.938 --    50 O    1.708    39 N    1.186    41 C    0.954
    41   6 C    3.984 --    42 C    1.409    46 C    1.381    40 C    0.954
                            44 C    0.108
    42   6 C    3.991 --    43 C    1.441    41 C    1.409    74 H    0.970
                            45 C    0.110
    43   6 C    3.990 --    42 C    1.441    44 C    1.434    75 H    0.969
                            46 C    0.109
    44   6 C    3.991 --    45 C    1.447    43 C    1.434    76 H    0.971
                            41 C    0.108
    45   6 C    3.991 --    44 C    1.447    46 C    1.411    77 H    0.965
                            42 C    0.110
    46   6 C    3.986 --    45 C    1.411    41 C    1.381    47 C    0.997
                            43 C    0.109
    47   6 C    3.995 --    48 C    0.998    46 C    0.997    49 C    0.996
                            78 H    0.959
    48   6 C    3.995 --    47 C    0.998    79 H    0.987    80 H    0.985
                            81 H    0.984
    49   6 C    3.996 --    47 C    0.996    82 H    0.985    83 H    0.984
                            84 H    0.984
    50   8 O    2.038 --    40 C    1.708    39 N    0.186
    51   1 H    0.995 --     6 C    0.966
    52   1 H    0.996 --     7 C    0.969
    53   1 H    0.996 --     8 C    0.969
    54   1 H    0.997 --     9 C    0.961
    55   1 H    0.995 --    11 C    0.951
    56   1 H    0.995 --    12 C    0.951
    57   1 H    0.995 --    19 C    0.966
    58   1 H    0.996 --    20 C    0.969
    59   1 H    0.996 --    21 C    0.969
    60   1 H    0.996 --    22 C    0.961
    61   1 H    0.999 --    27 C    0.962
    62   1 H    0.999 --    28 C    0.984
    63   1 H    0.998 --    28 C    0.983
    64   1 H    0.998 --    28 C    0.984
    65   1 H    0.997 --    29 C    0.984
    66   1 H    0.998 --    29 C    0.987
    67   1 H    0.998 --    29 C    0.986
    68   1 H    0.997 --    30 C    0.965
    69   1 H    0.997 --    31 C    0.970
    70   1 H    0.998 --    32 C    0.970
    71   1 H    0.999 --    33 C    0.969
    72   1 H    0.994 --    35 C    0.939
    73   1 H    0.881 --    37 O    0.855
    74   1 H    0.999 --    42 C    0.970
    75   1 H    0.997 --    43 C    0.969
    76   1 H    0.998 --    44 C    0.971
    77   1 H    0.997 --    45 C    0.965
    78   1 H    0.998 --    47 C    0.959
    79   1 H    0.998 --    48 C    0.987
    80   1 H    0.998 --    48 C    0.985
    81   1 H    0.998 --    48 C    0.984
    82   1 H    0.998 --    49 C    0.985
    83   1 H    0.998 --    49 C    0.984
    84   1 H    0.999 --    49 C    0.984
 ---------------------------------------------------------------------------

molecular dipole:
                 x           y           z       tot (Debye)
 q only:       -0.120      -1.430      -0.036
   full:       -0.045      -1.633      -0.320       4.232

           -------------------------------------------------
          | TOTAL ENERGY             -149.317054421387 Eh   |
          | GRADIENT NORM               0.000241402869 Eh/Î± |
          | HOMO-LUMO GAP               3.292703376415 eV   |
           -------------------------------------------------

 * finished run on 2022/03/16 at 21:47:11.454
