   * xtb version 6.3.3 (4ae9cef) compiled by 'conda@95abc7406d43' on 2020-10-14
          program call               : xtb acid_117.xyz --opt --chrg 0 --uhf 0 --gfn 2
          number of atoms            :                    54
          number of electrons        :                   194
          charge                     :                     0
          spin                       :                   0.0

   ID    Z sym.   atoms
    1    6 C      1-14, 16-18, 21, 23, 25, 26, 30-32, 35, 37
    2    7 N      15, 29
    3   17 Cl     19, 22, 33, 36
    4   16 S      20, 34
    5    8 O      24, 27, 28, 38
    6    1 H      39-54

          :  Hamiltonian                  GFN2-xTB          :
 * total energy  :  -110.6427820 Eh     change       -0.7403003E-08 Eh
 * total energy  :  -110.6561013 Eh     change       -0.1331925E-01 Eh
 * total energy  :  -110.6612359 Eh     change       -0.5134675E-02 Eh
 * total energy  :  -110.6624003 Eh     change       -0.1164365E-02 Eh
 * total energy  :  -110.6628470 Eh     change       -0.4467346E-03 Eh
 * total energy  :  -110.6631283 Eh     change       -0.2812248E-03 Eh
 * total energy  :  -110.6634750 Eh     change       -0.3466804E-03 Eh
 * total energy  :  -110.6638389 Eh     change       -0.3639479E-03 Eh
 * total energy  :  -110.6642987 Eh     change       -0.4597643E-03 Eh
 * total energy  :  -110.6646527 Eh     change       -0.3540259E-03 Eh
 * total energy  :  -110.6665612 Eh     change       -0.1385314E-04 Eh
 * total energy  :  -110.6665983 Eh     change       -0.3702514E-04 Eh
 * total energy  :  -110.6666193 Eh     change       -0.2103424E-04 Eh
 * total energy  :  -110.6666421 Eh     change       -0.2285804E-04 Eh
 * total energy  :  -110.6666548 Eh     change       -0.1267577E-04 Eh
 * total energy  :  -110.6666683 Eh     change       -0.1347689E-04 Eh
 * total energy  :  -110.6666745 Eh     change       -0.6196342E-05 Eh
 * total energy  :  -110.6666810 Eh     change       -0.6501555E-05 Eh
 * total energy  :  -110.6666850 Eh     change       -0.3961523E-05 Eh
   *** GEOMETRY OPTIMIZATION CONVERGED AFTER 42 ITERATIONS ***

 final structure:
================
54
 xtb: 6.3.3 (4ae9cef)
C        -2.23093669090667    1.62254269769407    1.26334486254906
C        -3.28251985304826    2.29541182729434    1.85702888586375
C        -4.15232952526575    3.04384058525805    1.08155894785271
C        -3.96690098927649    3.11491628209030   -0.28800538556260
C        -2.91534574256298    2.44007985813661   -0.88307790298049
C        -2.04022519628417    1.69109732255934   -0.11144483006098
C        -0.89233701223530    0.95010389657472   -0.74724809559696
C         0.49112887346032    1.41246793525659   -0.22409009844406
C         1.44436009013154    1.77758025135429   -1.34032154683915
C         1.06218711114267    2.75736956820799   -2.24934445525270
C         1.90327979697644    3.11813753515817   -3.28517351022252
C         3.13853754412059    2.50715315954125   -3.42232874064344
C         3.53090256879328    1.54444091622225   -2.51047902393517
C         2.68956827184249    1.18304839197198   -1.47220280183817
N         0.94890689789438    0.28770367913309    0.57486035402733
C         1.72054382251075    0.44226516679519    1.67968794175839
C         2.01807508703944   -0.85100209051557    2.38147200048888
C         3.19331391142633   -1.52660189514262    2.25006890031121
Cl        4.52121580836832   -1.06627046195530    1.29080107092077
S         3.22242803697628   -2.99932884037273    3.17309048451289
C         1.61651035775418   -2.67226022025862    3.74858026050221
Cl        0.83151879996975   -3.74943307808301    4.81037584851943
C         1.11219962810472   -1.51137225151380    3.25211864279076
O         2.13113544995772    1.51537823678510    2.04981511345258
C         0.32357294429712   -0.92297178490122    0.11966752051023
C         1.14532487292656   -1.58566044571468   -1.01321273860259
O         2.07920147104388   -2.38608123871961   -0.50872275816843
O         0.95524562197985   -1.41044046240645   -2.18027499762968
N        -0.94263334233549   -0.46523913980175   -0.38692647304123
C        -1.95107177053602   -1.27240765700415   -0.80207740478135
C        -1.75707210864128   -2.69528613877821   -0.36385414338643
C        -1.48973506889947   -3.72681202632864   -1.21342991698543
Cl       -1.31707457597921   -3.62827014368678   -2.90240801214873
S        -1.28016297040235   -5.23777445779659   -0.37416654917123
C        -1.58143777428948   -4.44185418575072    1.14242745357865
Cl       -1.55465488570486   -5.30985100116341    2.60800348437117
C        -1.81593370378223   -3.11190316646999    0.99269584192472
O        -2.91101582785330   -0.87861086298367   -1.41723027338148
H        -1.55155722319430    1.03971883233250    1.86993949087038
H        -3.42483301443328    2.23576540932948    2.92596691597095
H        -4.97510806403673    3.56726347503458    1.54509110405914
H        -4.64625801100185    3.69279900367926   -0.89643680700375
H        -2.78020307398006    2.48427379010266   -1.95335944375417
H        -0.94818530262858    1.04160515537435   -1.83792079848727
H         0.38994350954200    2.27668856383648    0.44414340472650
H         0.10350829593484    3.24292029771711   -2.13692854630964
H         1.59518105174928    3.87945749921585   -3.98610062630631
H         3.79491532797940    2.78605805088338   -4.23274478118647
H         4.49744568168780    1.07160790762016   -2.60275792681022
H         3.01842848247489    0.44326061881628   -0.75719445953633
H         0.14382736032826   -1.12445331291334    3.51125252788445
H         0.22136215877880   -1.65056969242930    0.93258677511087
H         2.61663590064608   -2.78843174199087   -1.21213732528490
H        -2.05287500857221   -2.45206961730445    1.80702254079891

          :  Hamiltonian                  GFN2-xTB          :
         :: total energy            -110.666684963449 Eh    ::
         :: gradient norm              0.000711130874 Eh/a0 ::
         :: HOMO-LUMO gap              3.206954765865 eV    ::
         :: SCC energy              -111.971987371358 Eh    ::
         :: -> dispersion             -0.093399224452 Eh    ::
         :: repulsion energy           1.301850447971 Eh    ::

    * Orbital Energies and Occupations

         #    Occupation            Energy/Eh            Energy/eV
      -------------------------------------------------------------
         1        2.0000           -1.0857992             -29.5461
       ...           ...                  ...                  ...
        85        2.0000           -0.4352482             -11.8437
        86        2.0000           -0.4348963             -11.8341
        87        2.0000           -0.4336975             -11.8015
        88        2.0000           -0.4294031             -11.6847
        89        2.0000           -0.4251966             -11.5702
        90        2.0000           -0.4190726             -11.4035
        91        2.0000           -0.4176541             -11.3649
        92        2.0000           -0.4158157             -11.3149
        93        2.0000           -0.4155131             -11.3067
        94        2.0000           -0.4100846             -11.1590
        95        2.0000           -0.4097494             -11.1498
        96        2.0000           -0.4071297             -11.0786
        97        2.0000           -0.4059742             -11.0471 (HOMO)
        98                         -0.2881208              -7.8402 (LUMO)
        99                         -0.2856323              -7.7724
       100                         -0.2788090              -7.5868
       101                         -0.2582391              -7.0270
       102                         -0.2550871              -6.9413
       103                         -0.2428791              -6.6091
       104                         -0.2389446              -6.5020
       105                         -0.2376115              -6.4657
       106                         -0.2341052              -6.3703
       107                         -0.2334684              -6.3530
       108                         -0.2328702              -6.3367
       ...                                ...                  ...
       198                          0.6562291              17.8569
      -------------------------------------------------------------
                  HL-Gap            0.1178534 Eh            3.2070 eV

     #   Z          covCN         q      C6AA      Î±(0)
     1   6 C        2.924    -0.032    28.793     8.800
     2   6 C        2.919    -0.027    28.668     8.780
     3   6 C        2.921    -0.027    28.677     8.782
     4   6 C        2.920    -0.024    28.606     8.771
     5   6 C        2.924    -0.026    28.663     8.780
     6   6 C        2.974     0.008    27.844     8.655
     7   6 C        3.823     0.040    19.893     6.347
     8   6 C        3.829     0.037    19.934     6.353
     9   6 C        2.971     0.005    27.900     8.664
    10   6 C        2.925    -0.035    28.864     8.811
    11   6 C        2.920    -0.025    28.619     8.773
    12   6 C        2.920    -0.027    28.683     8.783
    13   6 C        2.920    -0.024    28.606     8.771
    14   6 C        2.923    -0.027    28.680     8.782
    15   7 N        2.772    -0.099    23.182     7.151
    16   6 C        2.757     0.282    22.229     7.721
    17   6 C        3.168    -0.043    28.691     8.752
    18   6 C        2.905     0.091    25.975     8.357
    19  17 Cl       1.012    -0.109   102.562    15.494
    20  16 S        2.445     0.057   138.746    19.825
    21   6 C        2.901     0.091    25.977     8.357
    22  17 Cl       1.012    -0.109   102.562    15.494
    23   6 C        3.115    -0.064    29.422     8.885
    24   8 O        0.859    -0.392    21.519     6.219
    25   6 C        3.766     0.079    19.296     6.261
    26   6 C        2.688     0.350    21.055     7.509
    27   8 O        1.659    -0.368    20.229     6.072
    28   8 O        0.856    -0.367    21.030     6.148
    29   7 N        2.774    -0.108    23.352     7.177
    30   6 C        2.758     0.283    22.199     7.716
    31   6 C        3.169    -0.048    28.812     8.770
    32   6 C        2.903     0.089    26.018     8.364
    33  17 Cl       1.010    -0.096   102.162    15.464
    34  16 S        2.441     0.050   139.033    19.845
    35   6 C        2.900     0.090    25.999     8.360
    36  17 Cl       1.011    -0.109   102.576    15.495
    37   6 C        3.113    -0.066    29.488     8.896
    38   8 O        0.858    -0.389    21.468     6.212
    39   1 H        0.925     0.025     2.664     2.552
    40   1 H        0.926     0.037     2.485     2.465
    41   1 H        0.926     0.039     2.458     2.452
    42   1 H        0.926     0.042     2.424     2.435
    43   1 H        0.926     0.042     2.417     2.431
    44   1 H        0.924     0.072     2.059     2.244
    45   1 H        0.924     0.083     1.945     2.181
    46   1 H        0.926     0.035     2.512     2.478
    47   1 H        0.926     0.041     2.439     2.442
    48   1 H        0.926     0.040     2.453     2.449
    49   1 H        0.926     0.037     2.484     2.465
    50   1 H        0.926     0.024     2.674     2.557
    51   1 H        0.926     0.073     2.053     2.240
    52   1 H        0.924     0.075     2.030     2.228
    53   1 H        0.804     0.350     0.588     1.205
    54   1 H        0.926     0.073     2.050     2.239

Wiberg/Mayer (AO) data.
largest (>0.10) Wiberg bond orders for each atom

     #   Z sym  total        # sym  WBO       # sym  WBO       # sym  WBO
 ---------------------------------------------------------------------------
     1   6 C    3.992 --     2 C    1.449     6 C    1.409    39 H    0.969
                             4 C    0.112
     2   6 C    3.992 --     1 C    1.449     3 C    1.435    40 H    0.971
                             5 C    0.111
     3   6 C    3.990 --     4 C    1.443     2 C    1.435    41 H    0.971
                             6 C    0.110
     4   6 C    3.991 --     3 C    1.443     5 C    1.440    42 H    0.970
                             1 C    0.112
     5   6 C    3.989 --     4 C    1.440     6 C    1.418    43 H    0.968
                             2 C    0.111
     6   6 C    3.985 --     5 C    1.418     1 C    1.409     7 C    0.989
                             3 C    0.110
     7   6 C    3.956 --     6 C    0.989     8 C    0.955    44 H    0.953
                            29 N    0.949
     8   6 C    3.955 --     9 C    0.984    15 N    0.961     7 C    0.955
                            45 H    0.944
     9   6 C    3.985 --    14 C    1.423    10 C    1.404     8 C    0.984
                            12 C    0.110
    10   6 C    3.991 --    11 C    1.452     9 C    1.404    46 H    0.969
                            13 C    0.113
    11   6 C    3.991 --    10 C    1.452    12 C    1.433    47 H    0.970
                            14 C    0.110
    12   6 C    3.991 --    13 C    1.446    11 C    1.433    48 H    0.971
                             9 C    0.110
    13   6 C    3.992 --    12 C    1.446    14 C    1.436    49 H    0.971
                            10 C    0.113
    14   6 C    3.991 --    13 C    1.436     9 C    1.423    50 H    0.965
                            11 C    0.110
    15   7 N    3.486 --    16 C    1.210    25 C    0.988     8 C    0.961
                            24 O    0.198
    16   6 C    3.953 --    24 O    1.713    15 N    1.210    17 C    0.942
    17   6 C    3.977 --    18 C    1.547    23 C    1.227    16 C    0.942
    18   6 C    3.891 --    17 C    1.547    20 S    1.144    19 Cl   1.022
    19  17 Cl   1.185 --    18 C    1.022
    20  16 S    2.617 --    21 C    1.150    18 C    1.144
    21   6 C    3.892 --    23 C    1.573    20 S    1.150    22 Cl   1.022
    22  17 Cl   1.181 --    21 C    1.022
    23   6 C    3.976 --    21 C    1.573    17 C    1.227    51 H    0.959
    24   8 O    2.052 --    16 C    1.713    15 N    0.198
    25   6 C    3.971 --    29 N    0.990    15 N    0.988    52 H    0.935
                            26 C    0.898
    26   6 C    3.922 --    28 O    1.799    27 O    1.153    25 C    0.898
    27   8 O    2.216 --    26 C    1.153    53 H    0.851    28 O    0.185
    28   8 O    2.084 --    26 C    1.799    27 O    0.185
    29   7 N    3.466 --    30 C    1.208    25 C    0.990     7 C    0.949
                            38 O    0.196
    30   6 C    3.954 --    38 O    1.718    29 N    1.208    31 C    0.943
    31   6 C    3.977 --    32 C    1.545    37 C    1.224    30 C    0.943
    32   6 C    3.893 --    31 C    1.545    34 S    1.139    33 Cl   1.033
    33  17 Cl   1.203 --    32 C    1.033
    34  16 S    2.610 --    35 C    1.146    32 C    1.139
    35   6 C    3.892 --    37 C    1.578    34 S    1.146    36 Cl   1.021
    36  17 Cl   1.178 --    35 C    1.021
    37   6 C    3.976 --    35 C    1.578    31 C    1.224    54 H    0.959
    38   8 O    2.053 --    30 C    1.718    29 N    0.196
    39   1 H    0.999 --     1 C    0.969
    40   1 H    0.998 --     2 C    0.971
    41   1 H    0.998 --     3 C    0.971
    42   1 H    0.998 --     4 C    0.970
    43   1 H    0.998 --     5 C    0.968
    44   1 H    0.994 --     7 C    0.953
    45   1 H    0.993 --     8 C    0.944
    46   1 H    0.999 --    10 C    0.969
    47   1 H    0.998 --    11 C    0.970
    48   1 H    0.998 --    12 C    0.971
    49   1 H    0.998 --    13 C    0.971
    50   1 H    0.999 --    14 C    0.965
    51   1 H    0.995 --    23 C    0.959
    52   1 H    0.994 --    25 C    0.935
    53   1 H    0.877 --    27 O    0.851
    54   1 H    0.995 --    37 C    0.959
 ---------------------------------------------------------------------------

molecular dipole:
                 x           y           z       tot (Debye)
 q only:        0.428      -0.016       0.046
   full:        0.471      -0.173       0.151       1.332

           -------------------------------------------------
          | TOTAL ENERGY             -110.666684963449 Eh   |
          | GRADIENT NORM               0.000711130874 Eh/Î± |
          | HOMO-LUMO GAP               3.206954765865 eV   |
           -------------------------------------------------

 * finished run on 2022/03/16 at 21:29:25.581
