   * xtb version 6.3.3 (4ae9cef) compiled by 'conda@95abc7406d43' on 2020-10-14
          program call               : xtb acid_44.xyz --opt --chrg 0 --uhf 0 --gfn 2
          number of atoms            :                    68
          number of electrons        :                   242
          charge                     :                     0
          spin                       :                   0.0

   ID    Z sym.   atoms
    1    6 C      1, 2, 6-15, 19-22, 24-27, 29-32, 34, 35, 39-46
    2    9 F      3-5, 16-18
    3    7 N      23, 28, 38, 47
    4    8 O      33, 36, 37, 48
    5    1 H      49-68

          :  Hamiltonian                  GFN2-xTB          :
 * total energy  :  -139.3248397 Eh     change       -0.2055373E-08 Eh
 * total energy  :  -139.3412528 Eh     change       -0.1641312E-01 Eh
 * total energy  :  -139.3462903 Eh     change       -0.5037453E-02 Eh
 * total energy  :  -139.3478899 Eh     change       -0.1599575E-02 Eh
 * total energy  :  -139.3489555 Eh     change       -0.1065643E-02 Eh
 * total energy  :  -139.3497236 Eh     change       -0.7681177E-03 Eh
 * total energy  :  -139.3502170 Eh     change       -0.4933904E-03 Eh
 * total energy  :  -139.3504741 Eh     change       -0.2570720E-03 Eh
 * total energy  :  -139.3509832 Eh     change       -0.5091404E-03 Eh
 * total energy  :  -139.3513062 Eh     change       -0.3229424E-03 Eh
 * total energy  :  -139.3554609 Eh     change       -0.2417556E-04 Eh
 * total energy  :  -139.3554746 Eh     change       -0.1371926E-04 Eh
 * total energy  :  -139.3554845 Eh     change       -0.9932949E-05 Eh
 * total energy  :  -139.3554919 Eh     change       -0.7375380E-05 Eh
 * total energy  :  -139.3554988 Eh     change       -0.6906758E-05 Eh
 * total energy  :  -139.3555047 Eh     change       -0.5875275E-05 Eh
 * total energy  :  -139.3555134 Eh     change       -0.8679960E-05 Eh
 * total energy  :  -139.3555184 Eh     change       -0.5027745E-05 Eh
 * total energy  :  -139.3555223 Eh     change       -0.3962603E-05 Eh
   *** GEOMETRY OPTIMIZATION CONVERGED AFTER 75 ITERATIONS ***

 final structure:
================
68
 xtb: 6.3.3 (4ae9cef)
C        -1.92192233849303   -3.32389204318781   -0.85001832083966
C        -2.59284960393826   -2.87218676360287   -2.11721232489247
F        -3.37241298235800   -1.78147567356565   -1.92319771929349
F        -1.73717833620528   -2.53142928484205   -3.09595688021005
F        -3.40018678306698   -3.80039310364597   -2.64340250413336
C        -2.19568950679490   -4.60070304055166   -0.37542477083517
C        -1.62420012933990   -5.04485845803730    0.80125583443612
C        -0.78248354354344   -4.20903435520596    1.51329626198942
C        -0.51134765495887   -2.93859876299484    1.04381752151262
C        -1.06561051831343   -2.47820789014498   -0.14475446847875
C        -0.74681982100895   -1.07511325206430   -0.59551335801014
C        -1.36500440894372   -0.01023493888421    0.33528350407754
C        -2.62615199570844    0.57606366704812   -0.24699936990362
C        -3.89247592053802    0.34512461101029    0.28815062557598
C        -4.07553232383013   -0.53651722150151    1.49172749338200
F        -5.35676820898382   -0.67590317089472    1.85055956212695
F        -3.43022741926613   -0.10460899356170    2.58835393084882
F        -3.61933232728654   -1.79397057505987    1.27691927075247
C        -5.01804134475376    0.90357176275942   -0.30521575179788
C        -4.89310507596198    1.69079146787497   -1.43346003476418
C        -3.64185277435850    1.91391004120880   -1.98067685155361
C        -2.52330452674636    1.35737403041511   -1.39257336796501
N        -0.32045868031017    1.00499512424838    0.42215481396142
C        -0.56715090266945    2.24009646579825    0.93547548693229
C         0.59230098636245    3.19093607590922    0.87563759905774
C         1.39771641987708    3.41289430004585    1.99792197350305
C         1.23546193618867    2.60478308112170    3.14554446464290
N         1.15745367306967    1.89378170320481    4.04188398782933
C         2.41528075411949    4.36505157527476    1.95602590668142
C         2.62561066765130    5.09039978433580    0.79951549382861
C         1.83230076025302    4.86960848910646   -0.31585674205445
C         0.81665296038152    3.92842861048843   -0.27710362768009
O        -1.65265428262077    2.56706894494787    1.35584268889417
C         0.97194541100249    0.49447656547215    0.04404924357766
C         1.90018511689787    0.37631285141774    1.27669351190561
O         1.38127998985155   -0.40870788182855    2.20368718783829
O         2.94675510868538    0.95576592474451    1.37291311486377
N         0.68536111557449   -0.79706019349829   -0.52825652236250
C         1.59791383188151   -1.67170376845384   -1.02599850913440
C         3.02896666770075   -1.24712148822627   -0.88833545523971
C         3.85955773779188   -1.95121396307675   -0.02982024117348
C         5.19745851673042   -1.61254940195226    0.08366183333989
C         5.72450617646525   -0.58131749277589   -0.67775002934213
C         4.91799535011554    0.11390982004138   -1.55740717598772
C         3.56748972411294   -0.21497750868685   -1.66646002293364
C         2.74067413929966    0.51125846806986   -2.55435981851179
N         2.06751001152653    1.13018526001502   -3.24690552686707
O         1.28367048098706   -2.73601255349200   -1.50850216286091
H        -2.85927922336094   -5.24446517580723   -0.93106033880267
H        -1.84120121632859   -6.03838445575371    1.16087617039135
H        -0.33908058358070   -4.54475804714116    2.43842572259655
H         0.14296111053660   -2.28807564200394    1.60383671528559
H        -1.07580036048207   -0.90598264662946   -1.62604113150502
H        -1.53345467872271   -0.43134783975372    1.33140569071751
H        -5.99172150363965    0.71774132729636    0.12014999910486
H        -5.77180490067543    2.12288571055933   -1.88574752225069
H        -3.53631372967285    2.51868842617626   -2.86832199599556
H        -1.54856518081837    1.53113339934958   -1.82531745996885
H         3.03097193037187    4.51972159161623    2.82907189045316
H         3.41225375852525    5.82850062532034    0.76586414659397
H         2.00225732597047    5.43337809130462   -1.22022704307209
H         0.19105656318506    3.76576596761119   -1.14207233543672
H         1.46385696336454    1.17469185637673   -0.67096141470962
H         1.87852756197780   -0.36631435111150    3.04028156491613
H         3.44571230677897   -2.76399900159366    0.54840078462362
H         5.83153223622687   -2.15857283364203    0.76523870305996
H         6.76812982659681   -0.32173359018737   -0.58886322790515
H         5.31867466720323    0.91213374316785   -2.16414867281893

          :  Hamiltonian                  GFN2-xTB          :
         :: total energy            -139.355522342286 Eh    ::
         :: gradient norm              0.000549891455 Eh/a0 ::
         :: HOMO-LUMO gap              3.171830518544 eV    ::
         :: SCC energy              -141.189613139877 Eh    ::
         :: -> dispersion             -0.106816720903 Eh    ::
         :: repulsion energy           1.829448345111 Eh    ::

    * Orbital Energies and Occupations

         #    Occupation            Energy/Eh            Energy/eV
      -------------------------------------------------------------
         1        2.0000           -0.8762337             -23.8435
       ...           ...                  ...                  ...
       109        2.0000           -0.4441461             -12.0858
       110        2.0000           -0.4437392             -12.0748
       111        2.0000           -0.4419545             -12.0262
       112        2.0000           -0.4418786             -12.0241
       113        2.0000           -0.4392492             -11.9526
       114        2.0000           -0.4389633             -11.9448
       115        2.0000           -0.4380426             -11.9197
       116        2.0000           -0.4359472             -11.8627
       117        2.0000           -0.4340575             -11.8113
       118        2.0000           -0.4304310             -11.7126
       119        2.0000           -0.4196504             -11.4193
       120        2.0000           -0.4157129             -11.3121
       121        2.0000           -0.4150996             -11.2954 (HOMO)
       122                         -0.2985370              -8.1236 (LUMO)
       123                         -0.2921003              -7.9485
       124                         -0.2883023              -7.8451
       125                         -0.2688318              -7.3153
       126                         -0.2655020              -7.2247
       127                         -0.2632173              -7.1625
       128                         -0.2609386              -7.1005
       129                         -0.2557744              -6.9600
       130                         -0.2522096              -6.8630
       131                         -0.2418724              -6.5817
       132                         -0.2342814              -6.3751
       ...                                ...                  ...
       212                          1.1487323              31.2586
      -------------------------------------------------------------
                  HL-Gap            0.1165626 Eh            3.1718 eV

     #   Z          covCN         q      C6AA      Î±(0)
     1   6 C        2.976    -0.022    28.542     8.763
     2   6 C        3.335     0.486    17.298     6.588
     3   9 F        0.791    -0.224    11.487     4.004
     4   9 F        0.791    -0.204    11.273     3.966
     5   9 F        0.792    -0.199    11.220     3.957
     6   6 C        2.923    -0.018    28.452     8.747
     7   6 C        2.920    -0.020    28.497     8.754
     8   6 C        2.919    -0.016    28.407     8.740
     9   6 C        2.927    -0.026    28.658     8.779
    10   6 C        2.972     0.026    27.430     8.591
    11   6 C        3.822     0.048    19.761     6.326
    12   6 C        3.822     0.047    19.766     6.327
    13   6 C        2.973     0.025    27.451     8.594
    14   6 C        2.976    -0.021    28.529     8.761
    15   6 C        3.335     0.486    17.297     6.588
    16   9 F        0.792    -0.198    11.218     3.956
    17   9 F        0.791    -0.203    11.267     3.965
    18   9 F        0.791    -0.224    11.486     4.003
    19   6 C        2.923    -0.017    28.443     8.746
    20   6 C        2.920    -0.019    28.486     8.752
    21   6 C        2.919    -0.015    28.384     8.737
    22   6 C        2.927    -0.022    28.565     8.765
    23   7 N        2.766    -0.115    23.496     7.199
    24   6 C        2.761     0.273    22.384     7.748
    25   6 C        2.982    -0.012    28.318     8.729
    26   6 C        2.976     0.025    27.451     8.594
    27   6 C        1.912     0.118    28.187     8.574
    28   7 N        0.911    -0.240    26.273     7.413
    29   6 C        2.926    -0.012    28.310     8.726
    30   6 C        2.919    -0.021    28.536     8.760
    31   6 C        2.919    -0.017    28.428     8.743
    32   6 C        2.922    -0.022    28.567     8.765
    33   8 O        0.859    -0.399    21.665     6.241
    34   6 C        3.750     0.091    19.131     6.238
    35   6 C        2.687     0.349    21.072     7.512
    36   8 O        1.659    -0.345    19.821     6.010
    37   8 O        0.856    -0.395    21.590     6.230
    38   7 N        2.764    -0.114    23.479     7.197
    39   6 C        2.761     0.272    22.398     7.750
    40   6 C        2.981    -0.012    28.311     8.728
    41   6 C        2.923    -0.019    28.475     8.751
    42   6 C        2.919    -0.015    28.384     8.737
    43   6 C        2.919    -0.018    28.470     8.750
    44   6 C        2.927    -0.012    28.326     8.728
    45   6 C        2.975     0.019    27.571     8.613
    46   6 C        1.912     0.112    28.342     8.598
    47   7 N        0.911    -0.232    26.087     7.387
    48   8 O        0.859    -0.403    21.742     6.252
    49   1 H        0.926     0.070     2.084     2.258
    50   1 H        0.926     0.059     2.205     2.322
    51   1 H        0.926     0.056     2.243     2.342
    52   1 H        0.926     0.059     2.209     2.324
    53   1 H        0.924     0.071     2.079     2.255
    54   1 H        0.924     0.073     2.052     2.240
    55   1 H        0.926     0.071     2.077     2.254
    56   1 H        0.926     0.061     2.191     2.315
    57   1 H        0.926     0.059     2.206     2.323
    58   1 H        0.926     0.049     2.328     2.386
    59   1 H        0.926     0.056     2.251     2.346
    60   1 H        0.926     0.052     2.290     2.366
    61   1 H        0.926     0.055     2.254     2.348
    62   1 H        0.926     0.049     2.327     2.385
    63   1 H        0.923     0.064     2.152     2.294
    64   1 H        0.804     0.359     0.568     1.183
    65   1 H        0.926     0.050     2.314     2.379
    66   1 H        0.926     0.054     2.267     2.355
    67   1 H        0.926     0.054     2.272     2.357
    68   1 H        0.926     0.054     2.268     2.355

Wiberg/Mayer (AO) data.
largest (>0.10) Wiberg bond orders for each atom

     #   Z sym  total        # sym  WBO       # sym  WBO       # sym  WBO
 ---------------------------------------------------------------------------
     1   6 C    3.970 --     6 C    1.413    10 C    1.386     2 C    0.952
                             8 C    0.105
     2   6 C    3.822 --     5 F    0.958     1 C    0.952     4 F    0.946
                             3 F    0.927
     3   9 F    1.054 --     2 C    0.927
     4   9 F    1.077 --     2 C    0.946
     5   9 F    1.080 --     2 C    0.958
     6   6 C    3.987 --     7 C    1.443     1 C    1.413    49 H    0.965
                             9 C    0.109
     7   6 C    3.988 --     6 C    1.443     8 C    1.433    50 H    0.969
                            10 C    0.109
     8   6 C    3.990 --     9 C    1.448     7 C    1.433    51 H    0.969
                             1 C    0.105
     9   6 C    3.989 --     8 C    1.448    10 C    1.409    52 H    0.962
                             6 C    0.109
    10   6 C    3.986 --     9 C    1.409     1 C    1.386    11 C    0.994
                             7 C    0.109
    11   6 C    3.963 --    10 C    0.994    12 C    0.952    38 N    0.951
                            53 H    0.951
    12   6 C    3.962 --    13 C    0.993    11 C    0.952    23 N    0.952
                            54 H    0.951
    13   6 C    3.986 --    22 C    1.408    14 C    1.388    12 C    0.993
                            20 C    0.109
    14   6 C    3.971 --    19 C    1.412    13 C    1.388    15 C    0.952
                            21 C    0.105
    15   6 C    3.822 --    16 F    0.958    14 C    0.952    17 F    0.947
                            18 F    0.927
    16   9 F    1.081 --    15 C    0.958
    17   9 F    1.077 --    15 C    0.947
    18   9 F    1.054 --    15 C    0.927
    19   6 C    3.986 --    20 C    1.445    14 C    1.412    55 H    0.965
                            22 C    0.109
    20   6 C    3.988 --    19 C    1.445    21 C    1.432    56 H    0.968
                            13 C    0.109
    21   6 C    3.990 --    22 C    1.450    20 C    1.432    57 H    0.969
                            14 C    0.105
    22   6 C    3.990 --    21 C    1.450    13 C    1.408    58 H    0.966
                            19 C    0.109
    23   7 N    3.460 --    24 C    1.200    34 C    0.988    12 C    0.952
                            33 O    0.193
    24   6 C    3.947 --    33 O    1.712    23 N    1.200    25 C    0.951
    25   6 C    3.986 --    32 C    1.421    26 C    1.333    24 C    0.951
                            30 C    0.104
    26   6 C    3.989 --    29 C    1.362    25 C    1.333    27 C    1.095
                            31 C    0.100
    27   6 C    3.946 --    28 N    2.797    26 C    1.095
    28   7 N    2.977 --    27 C    2.797
    29   6 C    3.989 --    30 C    1.454    26 C    1.362    59 H    0.968
                            32 C    0.105
    30   6 C    3.991 --    29 C    1.454    31 C    1.430    60 H    0.968
                            25 C    0.104
    31   6 C    3.965 --    32 C    1.433    30 C    1.430    61 H    0.969
                            26 C    0.100
    32   6 C    3.990 --    31 C    1.433    25 C    1.421    62 H    0.967
                            29 C    0.105
    33   8 O    2.050 --    24 C    1.712    23 N    0.193
    34   6 C    3.970 --    23 N    0.988    38 N    0.987    63 H    0.937
                            35 C    0.903
    35   6 C    3.923 --    37 O    1.767    36 O    1.182    34 C    0.903
    36   8 O    2.245 --    35 C    1.182    64 H    0.840    37 O    0.187
    37   8 O    2.054 --    35 C    1.767    36 O    0.187
    38   7 N    3.461 --    39 C    1.205    34 C    0.987    11 C    0.951
                            48 O    0.195
    39   6 C    3.948 --    48 O    1.704    38 N    1.205    40 C    0.957
    40   6 C    3.986 --    41 C    1.420    45 C    1.328    39 C    0.957
                            43 C    0.104
    41   6 C    3.990 --    42 C    1.434    40 C    1.420    65 H    0.968
                            44 C    0.104
    42   6 C    3.964 --    41 C    1.434    43 C    1.430    66 H    0.969
    43   6 C    3.991 --    44 C    1.452    42 C    1.430    67 H    0.968
                            40 C    0.104
    44   6 C    3.990 --    43 C    1.452    45 C    1.363    68 H    0.968
                            41 C    0.104
    45   6 C    3.989 --    44 C    1.363    40 C    1.328    46 C    1.095
    46   6 C    3.947 --    47 N    2.794    45 C    1.095
    47   7 N    2.978 --    46 C    2.794
    48   8 O    2.045 --    39 C    1.704    38 N    0.195
    49   1 H    0.995 --     6 C    0.965
    50   1 H    0.996 --     7 C    0.969
    51   1 H    0.996 --     8 C    0.969
    52   1 H    0.996 --     9 C    0.962
    53   1 H    0.994 --    11 C    0.951
    54   1 H    0.994 --    12 C    0.951
    55   1 H    0.995 --    19 C    0.965
    56   1 H    0.995 --    20 C    0.968
    57   1 H    0.996 --    21 C    0.969
    58   1 H    0.997 --    22 C    0.966
    59   1 H    0.997 --    29 C    0.968
    60   1 H    0.996 --    30 C    0.968
    61   1 H    0.996 --    31 C    0.969
    62   1 H    0.996 --    32 C    0.967
    63   1 H    0.995 --    34 C    0.937
    64   1 H    0.871 --    36 O    0.840
    65   1 H    0.996 --    41 C    0.968
    66   1 H    0.997 --    42 C    0.969
    67   1 H    0.995 --    43 C    0.968
    68   1 H    0.996 --    44 C    0.968
 ---------------------------------------------------------------------------

molecular dipole:
                 x           y           z       tot (Debye)
 q only:        1.969       0.570       0.210
   full:        2.581       0.762       0.242       6.867

           -------------------------------------------------
          | TOTAL ENERGY             -139.355522342286 Eh   |
          | GRADIENT NORM               0.000549891455 Eh/Î± |
          | HOMO-LUMO GAP               3.171830518544 eV   |
           -------------------------------------------------

 * finished run on 2022/03/17 at 01:13:24.262
