   * xtb version 6.3.3 (4ae9cef) compiled by 'conda@95abc7406d43' on 2020-10-14
          program call               : xtb acid_101.xyz --opt --chrg 0 --uhf 0 --gfn 2
          number of atoms            :                    60
          number of electrons        :                   190
          charge                     :                     0
          spin                       :                   0.0

   ID    Z sym.   atoms
    1    6 C      1-14, 16-18, 20-23, 25, 26, 30-36
    2    7 N      15, 29
    3   53 I      19, 37
    4    8 O      24, 27, 28, 38
    5    1 H      39-60

          :  Hamiltonian                  GFN2-xTB          :
 * total energy  :  -105.1968419 Eh     change       -0.1802960E-08 Eh
 * total energy  :  -105.2106925 Eh     change       -0.1385065E-01 Eh
 * total energy  :  -105.2156700 Eh     change       -0.4977467E-02 Eh
 * total energy  :  -105.2178758 Eh     change       -0.2205765E-02 Eh
 * total energy  :  -105.2192444 Eh     change       -0.1368640E-02 Eh
 * total energy  :  -105.2200310 Eh     change       -0.7865613E-03 Eh
 * total energy  :  -105.2207033 Eh     change       -0.6723491E-03 Eh
 * total energy  :  -105.2214079 Eh     change       -0.7045572E-03 Eh
 * total energy  :  -105.2222141 Eh     change       -0.8062356E-03 Eh
 * total energy  :  -105.2229617 Eh     change       -0.7475603E-03 Eh
 * total energy  :  -105.2364168 Eh     change       -0.9940034E-05 Eh
 * total energy  :  -105.2364313 Eh     change       -0.1458561E-04 Eh
 * total energy  :  -105.2364504 Eh     change       -0.1904785E-04 Eh
 * total energy  :  -105.2364679 Eh     change       -0.1753637E-04 Eh
 * total energy  :  -105.2364853 Eh     change       -0.1732380E-04 Eh
 * total energy  :  -105.2365025 Eh     change       -0.1726228E-04 Eh
 * total energy  :  -105.2365204 Eh     change       -0.1786466E-04 Eh
 * total energy  :  -105.2365369 Eh     change       -0.1653527E-04 Eh
 * total energy  :  -105.2365411 Eh     change       -0.4144682E-05 Eh
   *** GEOMETRY OPTIMIZATION CONVERGED AFTER 94 ITERATIONS ***

 final structure:
================
60
 xtb: 6.3.3 (4ae9cef)
C        -2.18482722780993   -0.57993704904103   -1.46087843022759
C        -3.34504410551718   -1.03937557526739   -2.05724035995208
C        -4.08430008489199   -2.04417996901456   -1.45599019688383
C        -3.65425786933021   -2.59623925510865   -0.26164094880678
C        -2.49504301816319   -2.13685399096986    0.33764128830473
C        -1.76087450246743   -1.11709770072158   -0.25123614364532
C        -0.49764747421371   -0.61390250147713    0.39457654916338
C         0.74044624195477   -0.89807113863298   -0.48492337991684
C         1.50078842842755   -2.10554716192647   -0.00375609010758
C         2.25661778076651   -2.03983392169707    1.15962636032564
C         2.94134619641537   -3.15275132495094    1.61139576990311
C         2.86529246641001   -4.34450358665185    0.91089411202960
C         2.10317143388646   -4.41802666219762   -0.24218613644377
C         1.42410683496420   -3.30275301292498   -0.69927540704416
N         1.53458588140276    0.31978780381796   -0.38701857275041
C         2.74628709113347    0.38597722111517   -0.99652717474294
C         3.47877823297624    1.67790697976847   -0.81781269583581
C         3.67506828668592    2.54605501908893   -1.87977599390581
I         2.78889177181671    2.12536890460260   -3.74860518168441
C         4.41198412122265    3.70504842839129   -1.72813105309863
C         4.97377307021847    3.99571502930246   -0.49757672173480
C         4.79737613504514    3.13389034055060    0.57125336359940
C         4.05345437345556    1.97932675197968    0.41057339513005
O         3.21338511643467   -0.55186427093911   -1.60499449080666
C         0.80091187862980    1.41224743078443    0.19790045846066
C         0.58451473338278    2.58605844732851   -0.78864679674031
O        -0.21681049587131    2.22753154317739   -1.78638056665705
O         1.16727402164050    3.62899021446682   -0.71750332213499
N        -0.47132273663214    0.82964005405744    0.56339198082412
C        -1.49302361725073    1.68252677852800    0.78932303871139
C        -2.79121116446984    1.08707975290583    1.20961753588534
C        -2.85553585363247    0.31550768020205    2.36474284423674
C        -4.06275523201356   -0.19538927364588    2.80257850520257
C        -5.21981628136200    0.06003408354171    2.08572277908202
C        -5.17357912905867    0.84495992351101    0.94765028259339
C        -3.96481235152181    1.36839464738959    0.52410955182667
I        -3.93808948496648    2.57137997462428   -1.20270715904519
O        -1.32462709781589    2.88517732239005    0.68593549337388
H        -1.61528552444059    0.21041832472599   -1.92774356102046
H        -3.67238154417945   -0.60797308978206   -2.99088399766879
H        -4.99209911350456   -2.39903770669253   -1.91998514067718
H        -4.22253117291950   -3.38553540117181    0.20710686745505
H        -2.16009434149492   -2.56926156154643    1.26954812619437
H        -0.36315164755229   -1.09792606945211    1.37317459059406
H         0.44185755725823   -1.05135694421776   -1.53019379312422
H         2.31975188616617   -1.10883494546909    1.70653410514153
H         3.53726661801519   -3.08928331178903    2.51004399502248
H         3.40265561530158   -5.21277315657630    1.26182499545459
H         2.04328937191378   -5.34474854010395   -0.79285671578685
H         0.83799434485384   -3.35729122373958   -1.60462935491735
H         4.54360241382001    4.37829346593361   -2.56096973743925
H         5.54812708799131    4.90134351878236   -0.37629193737382
H         5.23726536380774    3.36094404695576    1.53033679438097
H         3.92242535958622    1.29360263147670    1.23564149034853
H         1.31503259427385    1.83045717318928    1.08055353926839
H        -0.35548825763250    2.96602377713072   -2.40228674599768
H        -1.95091521345849    0.13025322061920    2.92482958537967
H        -4.10093309032704   -0.79148928648297    3.70133507838041
H        -6.16469816377756   -0.34360284580504    2.41587845602130
H        -6.07616851359053    1.05549998763942    0.39490587389439

          :  Hamiltonian                  GFN2-xTB          :
         :: total energy            -105.236541065035 Eh    ::
         :: gradient norm              0.000441683733 Eh/a0 ::
         :: HOMO-LUMO gap              3.315046672338 eV    ::
         :: SCC energy              -106.783168983482 Eh    ::
         :: -> dispersion             -0.100828063077 Eh    ::
         :: repulsion energy           1.543655471105 Eh    ::

    * Orbital Energies and Occupations

         #    Occupation            Energy/Eh            Energy/eV
      -------------------------------------------------------------
         1        2.0000           -0.7618081             -20.7299
       ...           ...                  ...                  ...
        83        2.0000           -0.4276256             -11.6363
        84        2.0000           -0.4261812             -11.5970
        85        2.0000           -0.4247237             -11.5573
        86        2.0000           -0.4230079             -11.5106
        87        2.0000           -0.4211826             -11.4610
        88        2.0000           -0.4164073             -11.3310
        89        2.0000           -0.4154738             -11.3056
        90        2.0000           -0.4095208             -11.1436
        91        2.0000           -0.4068962             -11.0722
        92        2.0000           -0.4050497             -11.0220
        93        2.0000           -0.4033961             -10.9770
        94        2.0000           -0.4008652             -10.9081
        95        2.0000           -0.3980419             -10.8313 (HOMO)
        96                         -0.2762162              -7.5162 (LUMO)
        97                         -0.2618895              -7.1264
        98                         -0.2565424              -6.9809
        99                         -0.2527731              -6.8783
       100                         -0.2476521              -6.7390
       101                         -0.2463334              -6.7031
       102                         -0.2436828              -6.6309
       103                         -0.2375130              -6.4631
       104                         -0.2344817              -6.3806
       105                         -0.2310303              -6.2867
       106                         -0.2295464              -6.2463
       ...                                ...                  ...
       184                          0.6542093              17.8019
      -------------------------------------------------------------
                  HL-Gap            0.1218257 Eh            3.3150 eV

     #   Z          covCN         q      C6AA      Î±(0)
     1   6 C        2.924    -0.035    28.867     8.811
     2   6 C        2.920    -0.025    28.629     8.774
     3   6 C        2.920    -0.028    28.708     8.786
     4   6 C        2.920    -0.028    28.706     8.786
     5   6 C        2.923    -0.036    28.906     8.817
     6   6 C        2.974    -0.004    28.120     8.698
     7   6 C        3.815     0.042    19.859     6.343
     8   6 C        3.826     0.050    19.725     6.320
     9   6 C        2.974     0.011    27.766     8.643
    10   6 C        2.924    -0.030    28.749     8.793
    11   6 C        2.920    -0.027    28.666     8.780
    12   6 C        2.921    -0.027    28.682     8.783
    13   6 C        2.920    -0.024    28.598     8.770
    14   6 C        2.924    -0.027    28.682     8.783
    15   7 N        2.762    -0.120    23.603     7.216
    16   6 C        2.791     0.279    22.276     7.731
    17   6 C        3.106    -0.023    28.431     8.736
    18   6 C        2.961     0.063    26.596     8.459
    19  53 I        1.259    -0.118   380.663    33.680
    20   6 C        3.058    -0.024    28.536     8.760
    21   6 C        2.924    -0.021    28.532     8.760
    22   6 C        2.918    -0.024    28.607     8.771
    23   6 C        2.927    -0.025    28.627     8.774
    24   8 O        0.859    -0.409    21.851     6.267
    25   6 C        3.764     0.102    18.938     6.203
    26   6 C        2.687     0.369    20.736     7.452
    27   8 O        1.659    -0.356    20.013     6.039
    28   8 O        0.856    -0.388    21.452     6.210
    29   7 N        2.765    -0.110    23.404     7.185
    30   6 C        2.797     0.280    22.268     7.730
    31   6 C        3.096    -0.016    28.298     8.718
    32   6 C        2.927    -0.027    28.667     8.781
    33   6 C        2.918    -0.027    28.688     8.783
    34   6 C        2.923    -0.025    28.622     8.773
    35   6 C        3.070    -0.031    28.693     8.783
    36   6 C        2.960     0.060    26.653     8.468
    37  53 I        1.261    -0.104   379.639    33.635
    38   8 O        0.865    -0.417    22.012     6.291
    39   1 H        0.926     0.056     2.246     2.344
    40   1 H        0.926     0.051     2.313     2.378
    41   1 H        0.926     0.041     2.431     2.438
    42   1 H        0.926     0.038     2.478     2.461
    43   1 H        0.926     0.028     2.610     2.526
    44   1 H        0.923     0.044     2.396     2.421
    45   1 H        0.924     0.063     2.167     2.302
    46   1 H        0.925     0.024     2.677     2.559
    47   1 H        0.926     0.036     2.498     2.472
    48   1 H        0.926     0.039     2.466     2.456
    49   1 H        0.926     0.041     2.436     2.440
    50   1 H        0.926     0.038     2.472     2.459
    51   1 H        0.926     0.060     2.203     2.321
    52   1 H        0.926     0.050     2.314     2.379
    53   1 H        0.926     0.047     2.358     2.401
    54   1 H        0.926     0.035     2.514     2.479
    55   1 H        0.923     0.059     2.210     2.325
    56   1 H        0.804     0.352     0.584     1.201
    57   1 H        0.926     0.040     2.455     2.450
    58   1 H        0.926     0.048     2.345     2.395
    59   1 H        0.926     0.050     2.314     2.379
    60   1 H        0.926     0.059     2.206     2.323

Wiberg/Mayer (AO) data.
largest (>0.10) Wiberg bond orders for each atom

     #   Z sym  total        # sym  WBO       # sym  WBO       # sym  WBO
 ---------------------------------------------------------------------------
     1   6 C    3.990 --     2 C    1.445     6 C    1.409    39 H    0.963
                             4 C    0.111
     2   6 C    3.991 --     1 C    1.445     3 C    1.436    40 H    0.969
                             5 C    0.110
     3   6 C    3.990 --     4 C    1.440     2 C    1.436    41 H    0.971
                             6 C    0.109
     4   6 C    3.992 --     5 C    1.442     3 C    1.440    42 H    0.971
                             1 C    0.111
     5   6 C    3.991 --     4 C    1.442     6 C    1.413    43 H    0.968
                             2 C    0.110
     6   6 C    3.985 --     5 C    1.413     1 C    1.409     7 C    0.991
                             3 C    0.109
     7   6 C    3.964 --     6 C    0.991    29 N    0.958    44 H    0.953
                             8 C    0.952
     8   6 C    3.961 --     9 C    0.989    15 N    0.955    45 H    0.952
                             7 C    0.952
     9   6 C    3.984 --    14 C    1.415    10 C    1.410     8 C    0.989
                            12 C    0.109
    10   6 C    3.991 --    11 C    1.447     9 C    1.410    46 H    0.969
                            13 C    0.111
    11   6 C    3.992 --    10 C    1.447    12 C    1.436    47 H    0.971
                            14 C    0.111
    12   6 C    3.991 --    13 C    1.441    11 C    1.436    48 H    0.971
                             9 C    0.109
    13   6 C    3.992 --    14 C    1.443    12 C    1.441    49 H    0.970
                            10 C    0.111
    14   6 C    3.990 --    13 C    1.443     9 C    1.415    50 H    0.968
                            11 C    0.111
    15   7 N    3.460 --    16 C    1.206    25 C    0.986     8 C    0.955
                            24 O    0.191
    16   6 C    3.947 --    24 O    1.698    15 N    1.206    17 C    0.958
    17   6 C    3.987 --    23 C    1.399    18 C    1.399    16 C    0.958
                            21 C    0.108
    18   6 C    3.957 --    20 C    1.426    17 C    1.399    19 I    0.967
                            22 C    0.102
    19  53 I    1.099 --    18 C    0.967
    20   6 C    3.989 --    21 C    1.436    18 C    1.426    51 H    0.967
                            23 C    0.109
    21   6 C    3.991 --    20 C    1.436    22 C    1.434    52 H    0.968
                            17 C    0.108
    22   6 C    3.991 --    23 C    1.442    21 C    1.434    53 H    0.969
                            18 C    0.102
    23   6 C    3.991 --    22 C    1.442    17 C    1.399    54 H    0.968
                            20 C    0.109
    24   8 O    2.039 --    16 C    1.698    15 N    0.191
    25   6 C    3.964 --    15 N    0.986    29 N    0.979    55 H    0.945
                            26 C    0.902
    26   6 C    3.926 --    28 O    1.773    27 O    1.154    25 C    0.902
    27   8 O    2.223 --    26 C    1.154    56 H    0.850    28 O    0.176
    28   8 O    2.064 --    26 C    1.773    27 O    0.176
    29   7 N    3.478 --    30 C    1.234    25 C    0.979     7 C    0.958
                            38 O    0.188
    30   6 C    3.946 --    38 O    1.650    29 N    1.234    31 C    0.974
    31   6 C    3.988 --    32 C    1.392    36 C    1.392    30 C    0.974
                            34 C    0.106
    32   6 C    3.991 --    33 C    1.447    31 C    1.392    57 H    0.967
                            35 C    0.108
    33   6 C    3.991 --    32 C    1.447    34 C    1.430    58 H    0.969
                            36 C    0.101
    34   6 C    3.990 --    35 C    1.439    33 C    1.430    59 H    0.968
                            31 C    0.106
    35   6 C    3.989 --    34 C    1.439    36 C    1.422    60 H    0.967
                            32 C    0.108
    36   6 C    3.961 --    35 C    1.422    31 C    1.392    37 I    0.980
                            33 C    0.101
    37  53 I    1.132 --    36 C    0.980
    38   8 O    2.058 --    30 C    1.650    29 N    0.188
    39   1 H    0.997 --     1 C    0.963
    40   1 H    0.997 --     2 C    0.969
    41   1 H    0.998 --     3 C    0.971
    42   1 H    0.998 --     4 C    0.971
    43   1 H    0.999 --     5 C    0.968
    44   1 H    0.998 --     7 C    0.953
    45   1 H    0.996 --     8 C    0.952
    46   1 H    0.999 --    10 C    0.969
    47   1 H    0.998 --    11 C    0.971
    48   1 H    0.998 --    12 C    0.971
    49   1 H    0.998 --    13 C    0.970
    50   1 H    0.999 --    14 C    0.968
    51   1 H    0.996 --    20 C    0.967
    52   1 H    0.997 --    21 C    0.968
    53   1 H    0.996 --    22 C    0.969
    54   1 H    0.999 --    23 C    0.968
    55   1 H    0.996 --    25 C    0.945
    56   1 H    0.876 --    27 O    0.850
    57   1 H    0.998 --    32 C    0.967
    58   1 H    0.996 --    33 C    0.969
    59   1 H    0.997 --    34 C    0.968
    60   1 H    0.996 --    35 C    0.967
 ---------------------------------------------------------------------------

molecular dipole:
                 x           y           z       tot (Debye)
 q only:       -1.238      -1.720       1.204
   full:       -0.849      -1.919       2.709       8.709

           -------------------------------------------------
          | TOTAL ENERGY             -105.236541065035 Eh   |
          | GRADIENT NORM               0.000441683733 Eh/Î± |
          | HOMO-LUMO GAP               3.315046672338 eV   |
           -------------------------------------------------

 * finished run on 2022/03/16 at 21:20:10.781
