   * xtb version 6.3.3 (4ae9cef) compiled by 'conda@95abc7406d43' on 2020-10-14
          program call               : xtb acid_285.xyz --opt --chrg 0 --uhf 0 --gfn 2
          number of atoms            :                    74
          number of electrons        :                   230
          charge                     :                     0
          spin                       :                   0.0

   ID    Z sym.   atoms
    1    6 C      1, 3-16, 18, 20-22, 24-29, 31, 32, 36-38, 40-45
    2    8 O      2, 17, 30, 33, 34, 46
    3    7 N      19, 35
    4   16 S      23, 39
    5    1 H      47-74

          :  Hamiltonian                  GFN2-xTB          :
 * total energy  :  -128.1216446 Eh     change       -0.5697814E-08 Eh
 * total energy  :  -128.1392201 Eh     change       -0.1757549E-01 Eh
 * total energy  :  -128.1453200 Eh     change       -0.6099863E-02 Eh
 * total energy  :  -128.1479250 Eh     change       -0.2604949E-02 Eh
 * total energy  :  -128.1501085 Eh     change       -0.2183550E-02 Eh
 * total energy  :  -128.1515463 Eh     change       -0.1437783E-02 Eh
 * total energy  :  -128.1525894 Eh     change       -0.1043143E-02 Eh
 * total energy  :  -128.1532572 Eh     change       -0.6677261E-03 Eh
 * total energy  :  -128.1539421 Eh     change       -0.6849405E-03 Eh
 * total energy  :  -128.1544675 Eh     change       -0.5254015E-03 Eh
 * total energy  :  -128.1773726 Eh     change       -0.1905878E-04 Eh
 * total energy  :  -128.1773792 Eh     change       -0.6658447E-05 Eh
 * total energy  :  -128.1773972 Eh     change       -0.1803639E-04 Eh
 * total energy  :  -128.1773986 Eh     change       -0.1344658E-05 Eh
 * total energy  :  -128.1774067 Eh     change       -0.8107371E-05 Eh
 * total energy  :  -128.1774151 Eh     change       -0.8362006E-05 Eh
 * total energy  :  -128.1774153 Eh     change       -0.2742880E-06 Eh
 * total energy  :  -128.1774227 Eh     change       -0.7394454E-05 Eh
 * total energy  :  -128.1774255 Eh     change       -0.2812206E-05 Eh
   *** GEOMETRY OPTIMIZATION CONVERGED AFTER 133 ITERATIONS ***

 final structure:
================
74
 xtb: 6.3.3 (4ae9cef)
C        -2.97358465318067    1.17807805931434    0.56198591767742
O        -2.83749443385510    2.39940613091107   -0.02981664546100
C        -3.95193144281440    3.25946464130914   -0.06590187126261
C        -4.14989271561288    0.70649891045436    1.13220916846686
C        -4.18988455971710   -0.55226193201988    1.70744807517370
C        -3.06292370737965   -1.35153161526734    1.73039784957349
C        -1.89043742776551   -0.89276480571512    1.15625810825932
C        -1.83702746772484    0.35684400748775    0.55928631862334
C        -0.56281156535519    0.83226856045954   -0.09206058800009
C         0.57101310326579    1.02210803837617    0.93835664207803
C         0.94455260148512    2.47070291383914    1.11674101236685
C         0.63174358987676    3.12697657933210    2.29360934369500
C         0.95350434790610    4.46084120216723    2.47566181060410
C         1.60602540696698    5.14461533909557    1.46884247759385
C         1.92736688555978    4.50754856938943    0.28200169245500
C         1.59524290587094    3.17265112362786    0.09128825721850
O         1.85580984872839    2.47357936585258   -1.05521557307843
C         2.54692560242286    3.11893706255892   -2.09618120882023
N         1.67632637792199    0.22746617858398    0.42278820476757
C         2.85635449400471    0.18575153787931    1.08440302117362
C         3.91144338569366   -0.61621632235872    0.39987784888443
C         4.63556184996996   -0.18316585863453   -0.65607493617246
S         5.80915478985728   -1.32690099950094   -1.21118736733369
C         5.32687948762618   -2.45488527070912    0.02282459083053
C         4.29651955563762   -1.92915405368992    0.82496004962273
C         3.77878208504039   -2.70199178480672    1.86489396117875
C         4.28821198782944   -3.96275368422503    2.08056393660266
C         5.30888049535130   -4.47161014625083    1.27653217267408
C         5.83801495180666   -3.72513265672002    0.24380329758337
O         3.03159155072265    0.74938304258606    2.14394130221011
C         1.35754205462730   -0.46491197185750   -0.79520192608167
C         1.50493877361508   -1.99742646712590   -0.65665773352121
O         2.41037685936921   -2.48646857653615   -1.49256774459747
O         0.93416063231497   -2.63757738746214    0.18414025547136
N        -0.03397274950159   -0.14870067359982   -1.02477349882824
C        -0.73937865957877   -0.97290520842109   -1.82780893461842
C        -2.16126367760526   -0.61240360235795   -2.03729593316388
C        -2.59826343005971    0.55524003987963   -2.56401386440659
S        -4.31973314928637    0.66041340878018   -2.67393716715936
C        -4.49042139377902   -0.92801849245499   -1.97978325717355
C        -3.23689670141783   -1.50391006101229   -1.71125575873799
C        -3.17844809131766   -2.78283501701923   -1.15899326174621
C        -4.35245713672088   -3.44777301563446   -0.88532101179569
C        -5.58920841638395   -2.85856443101425   -1.14671176178638
C        -5.67141572038741   -1.59680547961960   -1.69832452723599
O        -0.20590211542630   -1.94140711265451   -2.34523566630840
H        -3.60320626282698    4.16670328969077   -0.55664783400395
H        -4.30088838994395    3.50583278264613    0.94124316051106
H        -4.77262525769296    2.82631557174165   -0.64652058006129
H        -5.04347096958215    1.30976678007989    1.12573943449914
H        -5.11495084466054   -0.90520727690149    2.13759727187846
H        -3.09612652190440   -2.32985791538753    2.18275049880743
H        -1.01152918382834   -1.52128249966600    1.14539948482333
H        -0.75101295222699    1.77694590717650   -0.61280815974801
H         0.27425217074413    0.61841519263300    1.91468432477591
H         0.13513597929733    2.57907128911444    3.08002643240926
H         0.70460683306963    4.95705647214950    3.40070091573550
H         1.87384225070517    6.18252483466876    1.59911879650481
H         2.43895573984706    5.06284457837831   -0.48812653953239
H         1.98626717500956    3.97598455904991   -2.48329473503860
H         2.65137461775881    2.37626682417468   -2.88685730391490
H         3.54025661412947    3.45072081820141   -1.77678739445479
H         4.56079593593870    0.76246546767919   -1.15688774554556
H         2.99234424724095   -2.30068143057847    2.48485855770377
H         3.89589414033778   -4.56833399173178    2.88333665253189
H         5.69079277728778   -5.46349894631941    1.46584295327136
H         6.62694492590184   -4.11264957259643   -0.38177449010583
H         1.97868732652961   -0.13348862710579   -1.64220441420065
H         2.44817947263471   -3.45408839467028   -1.42975468200645
H        -2.01098912522827    1.38332022480098   -2.90969493791238
H        -2.21718040727629   -3.23131036158837   -0.96278270104345
H        -4.31953517633669   -4.43916231656038   -0.45937868358034
H        -6.49575382916351   -3.39838046097730   -0.91772359003374
H        -6.62463469435961   -1.13698688333318   -1.90854376977192

          :  Hamiltonian                  GFN2-xTB          :
         :: total energy            -128.177425543299 Eh    ::
         :: gradient norm              0.000726084031 Eh/a0 ::
         :: HOMO-LUMO gap              3.045773404659 eV    ::
         :: SCC energy              -130.018339867097 Eh    ::
         :: -> dispersion             -0.121537256974 Eh    ::
         :: repulsion energy           1.836475269137 Eh    ::

    * Orbital Energies and Occupations

         #    Occupation            Energy/Eh            Energy/eV
      -------------------------------------------------------------
         1        2.0000           -0.7523755             -20.4732
       ...           ...                  ...                  ...
       103        2.0000           -0.4261031             -11.5949
       104        2.0000           -0.4140594             -11.2671
       105        2.0000           -0.4118054             -11.2058
       106        2.0000           -0.4057287             -11.0404
       107        2.0000           -0.4047025             -11.0125
       108        2.0000           -0.4028927             -10.9633
       109        2.0000           -0.3981308             -10.8337
       110        2.0000           -0.3956326             -10.7657
       111        2.0000           -0.3930475             -10.6954
       112        2.0000           -0.3889622             -10.5842
       113        2.0000           -0.3851734             -10.4811
       114        2.0000           -0.3824002             -10.4056
       115        2.0000           -0.3779703             -10.2851 (HOMO)
       116                         -0.2660402              -7.2393 (LUMO)
       117                         -0.2577195              -7.0129
       118                         -0.2449169              -6.6645
       119                         -0.2370522              -6.4505
       120                         -0.2334518              -6.3525
       121                         -0.2323043              -6.3213
       122                         -0.2295034              -6.2451
       123                         -0.2283159              -6.2128
       124                         -0.2234470              -6.0803
       125                         -0.2218124              -6.0358
       126                         -0.2192061              -5.9649
       ...                                ...                  ...
       222                          0.7051056              19.1869
      -------------------------------------------------------------
                  HL-Gap            0.1119301 Eh            3.0458 eV

     #   Z          covCN         q      C6AA      Î±(0)
     1   6 C        2.866     0.137    25.004     8.197
     2   8 O        1.705    -0.277    18.594     5.822
     3   6 C        3.643     0.036    20.311     6.479
     4   6 C        2.918    -0.066    29.636     8.927
     5   6 C        2.921    -0.031    28.784     8.798
     6   6 C        2.918    -0.039    28.958     8.824
     7   6 C        2.923    -0.037    28.914     8.818
     8   6 C        2.974    -0.027    28.660     8.781
     9   6 C        3.814     0.040    19.892     6.348
    10   6 C        3.823     0.052    19.687     6.314
    11   6 C        2.972    -0.011    28.279     8.723
    12   6 C        2.925    -0.027    28.674     8.782
    13   6 C        2.918    -0.037    28.919     8.818
    14   6 C        2.921    -0.030    28.748     8.793
    15   6 C        2.918    -0.065    29.611     8.923
    16   6 C        2.867     0.141    24.930     8.185
    17   8 O        1.705    -0.281    18.663     5.833
    18   6 C        3.643     0.042    20.211     6.463
    19   7 N        2.764    -0.102    23.228     7.158
    20   6 C        2.762     0.276    22.341     7.740
    21   6 C        3.126    -0.039    28.766     8.782
    22   6 C        2.937    -0.013    28.345     8.732
    23  16 S        2.249    -0.039   142.664    20.103
    24   6 C        3.007     0.032    27.277     8.567
    25   6 C        3.147     0.004    27.669     8.605
    26   6 C        2.915    -0.027    28.683     8.782
    27   6 C        2.919    -0.032    28.791     8.799
    28   6 C        2.923    -0.032    28.803     8.801
    29   6 C        2.932    -0.040    28.990     8.830
    30   8 O        0.859    -0.420    22.084     6.301
    31   6 C        3.762     0.097    19.017     6.216
    32   6 C        2.689     0.371    20.716     7.449
    33   8 O        1.659    -0.358    20.048     6.045
    34   8 O        0.856    -0.404    21.754     6.253
    35   7 N        2.768    -0.102    23.246     7.161
    36   6 C        2.770     0.276    22.332     7.740
    37   6 C        3.129    -0.031    28.557     8.749
    38   6 C        2.935    -0.011    28.288     8.723
    39  16 S        2.255    -0.043   142.849    20.116
    40   6 C        3.008     0.031    27.293     8.570
    41   6 C        3.148     0.007    27.593     8.593
    42   6 C        2.916    -0.027    28.679     8.782
    43   6 C        2.919    -0.031    28.782     8.798
    44   6 C        2.924    -0.031    28.762     8.795
    45   6 C        2.932    -0.039    28.958     8.825
    46   8 O        0.860    -0.432    22.333     6.336
    47   1 H        0.925     0.063     2.162     2.300
    48   1 H        0.924     0.044     2.396     2.421
    49   1 H        0.924     0.048     2.339     2.392
    50   1 H        0.926     0.041     2.429     2.437
    51   1 H        0.926     0.039     2.459     2.452
    52   1 H        0.926     0.043     2.410     2.428
    53   1 H        0.926     0.063     2.167     2.302
    54   1 H        0.924     0.070     2.080     2.256
    55   1 H        0.924     0.065     2.138     2.287
    56   1 H        0.926     0.045     2.387     2.416
    57   1 H        0.926     0.042     2.420     2.433
    58   1 H        0.926     0.040     2.445     2.445
    59   1 H        0.926     0.040     2.454     2.450
    60   1 H        0.924     0.041     2.432     2.439
    61   1 H        0.925     0.058     2.225     2.333
    62   1 H        0.924     0.041     2.437     2.441
    63   1 H        0.926     0.044     2.392     2.418
    64   1 H        0.926     0.046     2.372     2.408
    65   1 H        0.926     0.040     2.445     2.445
    66   1 H        0.926     0.039     2.467     2.456
    67   1 H        0.926     0.042     2.422     2.433
    68   1 H        0.923     0.069     2.093     2.263
    69   1 H        0.804     0.345     0.601     1.218
    70   1 H        0.926     0.049     2.332     2.388
    71   1 H        0.926     0.055     2.263     2.353
    72   1 H        0.926     0.041     2.430     2.437
    73   1 H        0.926     0.040     2.442     2.444
    74   1 H        0.926     0.042     2.420     2.433

Wiberg/Mayer (AO) data.
largest (>0.10) Wiberg bond orders for each atom

     #   Z sym  total        # sym  WBO       # sym  WBO       # sym  WBO
 ---------------------------------------------------------------------------
     1   6 C    3.935 --     4 C    1.380     8 C    1.326     2 O    1.059
     2   8 O    2.229 --     1 C    1.059     3 C    0.980
     3   6 C    3.941 --     2 O    0.980    47 H    0.979    48 H    0.976
                            49 H    0.974
     4   6 C    3.987 --     5 C    1.436     1 C    1.380    50 H    0.965
                             7 C    0.103
     5   6 C    3.990 --     6 C    1.441     4 C    1.436    51 H    0.971
                             8 C    0.105
     6   6 C    3.991 --     5 C    1.441     7 C    1.429    52 H    0.970
     7   6 C    3.988 --     8 C    1.432     6 C    1.429    53 H    0.962
                             4 C    0.103
     8   6 C    3.981 --     7 C    1.432     1 C    1.326     9 C    0.990
                             5 C    0.105
     9   6 C    3.962 --     8 C    0.990    35 N    0.958    10 C    0.954
                            54 H    0.951
    10   6 C    3.964 --    11 C    0.991    19 N    0.956     9 C    0.954
                            55 H    0.953
    11   6 C    3.983 --    12 C    1.437    16 C    1.326    10 C    0.991
                            14 C    0.107
    12   6 C    3.988 --    11 C    1.437    13 C    1.425    56 H    0.967
                            15 C    0.103
    13   6 C    3.991 --    14 C    1.446    12 C    1.425    57 H    0.970
    14   6 C    3.990 --    13 C    1.446    15 C    1.432    58 H    0.971
                            11 C    0.107
    15   6 C    3.987 --    14 C    1.432    16 C    1.386    59 H    0.965
                            12 C    0.103
    16   6 C    3.933 --    15 C    1.386    11 C    1.326    17 O    1.050
    17   8 O    2.219 --    16 C    1.050    18 C    0.985
    18   6 C    3.946 --    17 O    0.985    61 H    0.979    62 H    0.976
                            60 H    0.976
    19   7 N    3.481 --    20 C    1.220    31 C    0.988    10 C    0.956
                            30 O    0.195
    20   6 C    3.949 --    30 O    1.687    19 N    1.220    21 C    0.951
    21   6 C    3.983 --    22 C    1.650    25 C    1.156    20 C    0.951
                            23 S    0.100
    22   6 C    3.957 --    21 C    1.650    23 S    1.152    63 H    0.970
    23  16 S    2.555 --    22 C    1.152    24 C    1.105    21 C    0.100
    24   6 C    3.957 --    29 C    1.377    25 C    1.291    23 S    1.105
    25   6 C    3.987 --    26 C    1.334    24 C    1.291    21 C    1.156
    26   6 C    3.991 --    27 C    1.495    25 C    1.334    64 H    0.967
                            29 C    0.112
    27   6 C    3.992 --    26 C    1.495    28 C    1.384    65 H    0.970
    28   6 C    3.991 --    29 C    1.475    27 C    1.384    66 H    0.970
    29   6 C    3.990 --    28 C    1.475    24 C    1.377    67 H    0.969
                            26 C    0.112
    30   8 O    2.023 --    20 C    1.687    19 N    0.195
    31   6 C    3.964 --    19 N    0.988    35 N    0.977    68 H    0.942
                            32 C    0.906
    32   6 C    3.922 --    34 O    1.752    33 O    1.157    31 C    0.906
    33   8 O    2.219 --    32 C    1.157    69 H    0.855    34 O    0.172
    34   8 O    2.045 --    32 C    1.752    33 O    0.172
    35   7 N    3.481 --    36 C    1.237    31 C    0.977     9 C    0.958
                            46 O    0.188
    36   6 C    3.946 --    46 O    1.638    35 N    1.237    37 C    0.973
    37   6 C    3.984 --    38 C    1.637    41 C    1.151    36 C    0.973
    38   6 C    3.958 --    37 C    1.637    39 S    1.158    70 H    0.969
    39  16 S    2.556 --    38 C    1.158    40 C    1.097
    40   6 C    3.955 --    45 C    1.378    41 C    1.297    39 S    1.097
    41   6 C    3.987 --    42 C    1.335    40 C    1.297    37 C    1.151
    42   6 C    3.990 --    43 C    1.493    41 C    1.335    71 H    0.965
                            45 C    0.112
    43   6 C    3.991 --    42 C    1.493    44 C    1.386    72 H    0.970
    44   6 C    3.991 --    45 C    1.474    43 C    1.386    73 H    0.970
    45   6 C    3.990 --    44 C    1.474    40 C    1.378    74 H    0.969
                            42 C    0.112
    46   8 O    2.038 --    36 C    1.638    35 N    0.188
    47   1 H    0.996 --     3 C    0.979
    48   1 H    0.998 --     3 C    0.976
    49   1 H    0.998 --     3 C    0.974
    50   1 H    0.998 --     4 C    0.965
    51   1 H    0.998 --     5 C    0.971
    52   1 H    0.998 --     6 C    0.970
    53   1 H    0.995 --     7 C    0.962
    54   1 H    0.994 --     9 C    0.951
    55   1 H    0.995 --    10 C    0.953
    56   1 H    0.997 --    12 C    0.967
    57   1 H    0.998 --    13 C    0.970
    58   1 H    0.998 --    14 C    0.971
    59   1 H    0.998 --    15 C    0.965
    60   1 H    0.998 --    18 C    0.976
    61   1 H    0.996 --    18 C    0.979
    62   1 H    0.998 --    18 C    0.976
    63   1 H    0.997 --    22 C    0.970
    64   1 H    0.998 --    26 C    0.967
    65   1 H    0.997 --    27 C    0.970
    66   1 H    0.998 --    28 C    0.970
    67   1 H    0.998 --    29 C    0.969
    68   1 H    0.994 --    31 C    0.942
    69   1 H    0.880 --    33 O    0.855
    70   1 H    0.997 --    38 C    0.969
    71   1 H    0.997 --    42 C    0.965
    72   1 H    0.997 --    43 C    0.970
    73   1 H    0.998 --    44 C    0.970
    74   1 H    0.998 --    45 C    0.969
 ---------------------------------------------------------------------------

molecular dipole:
                 x           y           z       tot (Debye)
 q only:       -1.304       1.095      -0.443
   full:       -1.282       1.072      -0.478       4.418

           -------------------------------------------------
          | TOTAL ENERGY             -128.177425543299 Eh   |
          | GRADIENT NORM               0.000726084031 Eh/Î± |
          | HOMO-LUMO GAP               3.045773404659 eV   |
           -------------------------------------------------

 * finished run on 2022/03/16 at 23:23:28.863
