   * xtb version 6.3.3 (4ae9cef) compiled by 'conda@95abc7406d43' on 2020-10-14
          program call               : xtb acid_344.xyz --opt --chrg 0 --uhf 0 --gfn 2
          number of atoms            :                    62
          number of electrons        :                   206
          charge                     :                     0
          spin                       :                   0.0

   ID    Z sym.   atoms
    1    6 C      1, 3-16, 18, 20-23, 25, 28, 29, 33-36, 38
    2    8 O      2, 17, 27, 30, 31, 40
    3    7 N      19, 32
    4   35 Br     24, 37
    5   16 S      26, 39
    6    1 H      41-62

          :  Hamiltonian                  GFN2-xTB          :
 * total energy  :  -116.0761157 Eh     change       -0.6660770E-09 Eh
 * total energy  :  -116.0902561 Eh     change       -0.1414043E-01 Eh
 * total energy  :  -116.0944257 Eh     change       -0.4169576E-02 Eh
 * total energy  :  -116.0959211 Eh     change       -0.1495332E-02 Eh
 * total energy  :  -116.0970117 Eh     change       -0.1090665E-02 Eh
 * total energy  :  -116.0980910 Eh     change       -0.1079297E-02 Eh
 * total energy  :  -116.0990521 Eh     change       -0.9610428E-03 Eh
 * total energy  :  -116.0999894 Eh     change       -0.9373062E-03 Eh
 * total energy  :  -116.1008980 Eh     change       -0.9086079E-03 Eh
 * total energy  :  -116.1016753 Eh     change       -0.7773430E-03 Eh
 * total energy  :  -116.1170966 Eh     change       -0.2849353E-04 Eh
 * total energy  :  -116.1171149 Eh     change       -0.1828775E-04 Eh
 * total energy  :  -116.1171231 Eh     change       -0.8236417E-05 Eh
 * total energy  :  -116.1171308 Eh     change       -0.7701907E-05 Eh
 * total energy  :  -116.1171373 Eh     change       -0.6497134E-05 Eh
 * total energy  :  -116.1171518 Eh     change       -0.1451832E-04 Eh
 * total energy  :  -116.1171622 Eh     change       -0.1033437E-04 Eh
 * total energy  :  -116.1171676 Eh     change       -0.5404266E-05 Eh
 * total energy  :  -116.1171717 Eh     change       -0.4174007E-05 Eh
   *** GEOMETRY OPTIMIZATION CONVERGED AFTER 74 ITERATIONS ***

 final structure:
================
62
 xtb: 6.3.3 (4ae9cef)
C         0.96301167938924   -2.70939288438054    1.06812360978057
O        -0.05359089663487   -2.96046751792389    0.19430686041368
C        -0.60318734094473   -4.25537602843106    0.15446594678970
C         1.49119678646434   -3.63864850234624    1.95541248716253
C         2.51241323864235   -3.27567311325429    2.81774896667700
C         3.01423072108568   -1.98848190528947    2.81258702075969
C         2.49136624836418   -1.05765957244260    1.93123825182638
C         1.48059014028781   -1.40639434210614    1.05374831869906
C         0.87788655058327   -0.40440166415920    0.10736275138534
C        -0.26619528855223    0.38306300158134    0.78174882288126
C        -1.57729176580608   -0.33200422661321    0.61614434654996
C        -2.11572028055978   -0.99922645597863    1.70589812437424
C        -3.30385516975778   -1.69923133895433    1.60631168741402
C        -3.96639744441506   -1.73561922000656    0.39477072586572
C        -3.43830668457524   -1.09359365975176   -0.71177989078930
C        -2.23900843490475   -0.39932134933717   -0.61835889769352
O        -1.65878150012649    0.25739210613361   -1.67405240764493
C        -2.35162334098675    0.28931315126895   -2.90906103071792
N        -0.15539309266166    1.69707119757037    0.17203597421037
C        -1.09606879182664    2.63577852336392   -0.09870543247878
C        -2.43404246650064    2.42329168567169    0.48072652224222
C        -2.78999583058642    2.03103923723453    1.73771035357492
C        -4.18942546430698    1.94262844493854    1.87919255060975
Br       -5.01715369730821    1.35474553343926    3.46725675696766
C        -4.87580717855935    2.27791621630133    0.75259740735468
S        -3.81511147678290    2.73255808452778   -0.51304555705297
O        -0.83180637372223    3.59808971492981   -0.79566237224702
C         1.19683199088397    1.94243865686800   -0.28953994043239
C         1.20966816970311    2.54293000106833   -1.72765734669526
O         0.50615407311123    1.83751658047465   -2.60334772717837
O         1.91540421703908    3.45629233478275   -2.03268328946720
N         1.81610354979426    0.63308746859607   -0.29473508521383
C         2.92021330121982    0.26140840438384   -1.00997989108677
C         3.86451120313951    1.33424366903975   -1.37082146432480
C         4.54224642677551    1.41452795349186   -2.55241156631119
C         5.41535094920551    2.52038741750031   -2.58449022358276
Br        6.48832913064689    2.94011281596307   -4.07402110659969
C         5.42281698813608    3.24601030217838   -1.43425959378767
S         4.33559955727962    2.59916023761168   -0.28360097759036
O         3.12380506344636   -0.89851954472975   -1.30186250228035
H        -1.38129540148867   -4.21862811283523   -0.60636939448031
H        -1.05331564345473   -4.52780884605663    1.11416335746384
H         0.14528268300928   -5.00190955360779   -0.12708555664594
H         1.11709330752974   -4.64950359871204    1.98063986088834
H         2.91426138169432   -4.01148560486330    3.49784859334660
H         3.80849946231887   -1.70836281502179    3.48654577409202
H         2.88112991782132   -0.05029674267182    1.91464108497339
H         0.50855886531641   -0.94364196972471   -0.77449323757465
H        -0.03784226218094    0.47026478367299    1.85460741569834
H        -1.59193202016215   -0.96458253904429    2.64997445027700
H        -3.71053651571510   -2.20161617045377    2.46945465323499
H        -4.90056901252460   -2.26762379257786    0.30020519407094
H        -3.96927211379868   -1.14512793177494   -1.64812976643650
H        -1.75140502502953    0.90525341714782   -3.57633793606986
H        -3.33844218584613    0.74483217484845   -2.79353088862844
H        -2.45040612372709   -0.71409319243334   -3.33096620309043
H        -2.10074000545989    1.82943282416812    2.53603341430637
H        -5.93715575057046    2.28317614447141    0.60609955572852
H         1.71378725792937    2.64543128691861    0.38326943681523
H        -0.08299267137454    1.18655031999456   -2.17649655601735
H         4.40686961206561    0.72473277079815   -3.36510958345058
H         6.00145577798002    4.11801673454322   -1.20427785085764

          :  Hamiltonian                  GFN2-xTB          :
         :: total energy            -116.117171753958 Eh    ::
         :: gradient norm              0.000273493096 Eh/a0 ::
         :: HOMO-LUMO gap              2.559463276772 eV    ::
         :: SCC energy              -117.549057052361 Eh    ::
         :: -> dispersion             -0.104687365349 Eh    ::
         :: repulsion energy           1.428669943333 Eh    ::

    * Orbital Energies and Occupations

         #    Occupation            Energy/Eh            Energy/eV
      -------------------------------------------------------------
         1        2.0000           -0.8557438             -23.2860
       ...           ...                  ...                  ...
        91        2.0000           -0.4348940             -11.8341
        92        2.0000           -0.4304956             -11.7144
        93        2.0000           -0.4295012             -11.6873
        94        2.0000           -0.4283520             -11.6561
        95        2.0000           -0.4237240             -11.5301
        96        2.0000           -0.4192277             -11.4078
        97        2.0000           -0.4156223             -11.3097
        98        2.0000           -0.4150842             -11.2950
        99        2.0000           -0.4135146             -11.2523
       100        2.0000           -0.4099758             -11.1560
       101        2.0000           -0.4062009             -11.0533
       102        2.0000           -0.3953933             -10.7592
       103        2.0000           -0.3938221             -10.7164 (HOMO)
       104                         -0.2997635              -8.1570 (LUMO)
       105                         -0.2839157              -7.7257
       106                         -0.2618385              -7.1250
       107                         -0.2502341              -6.8092
       108                         -0.2495002              -6.7892
       109                         -0.2470216              -6.7218
       110                         -0.2439012              -6.6369
       111                         -0.2398228              -6.5259
       112                         -0.2351883              -6.3998
       113                         -0.2305229              -6.2728
       114                         -0.2242166              -6.1012
       ...                                ...                  ...
       202                          0.6815681              18.5464
      -------------------------------------------------------------
                  HL-Gap            0.0940585 Eh            2.5595 eV

     #   Z          covCN         q      C6AA      Î±(0)
     1   6 C        2.868     0.142    24.914     8.182
     2   8 O        1.705    -0.277    18.598     5.823
     3   6 C        3.644     0.037    20.284     6.474
     4   6 C        2.918    -0.064    29.585     8.919
     5   6 C        2.921    -0.029    28.730     8.790
     6   6 C        2.918    -0.038    28.957     8.824
     7   6 C        2.923    -0.031    28.777     8.797
     8   6 C        2.974    -0.014    28.352     8.734
     9   6 C        3.834     0.052    19.675     6.311
    10   6 C        3.822     0.044    19.815     6.335
    11   6 C        2.971    -0.020    28.513     8.759
    12   6 C        2.927    -0.031    28.769     8.796
    13   6 C        2.917    -0.035    28.873     8.811
    14   6 C        2.922    -0.029    28.736     8.791
    15   6 C        2.918    -0.064    29.593     8.921
    16   6 C        2.864     0.139    24.961     8.189
    17   8 O        1.703    -0.297    18.945     5.877
    18   6 C        3.640     0.027    20.469     6.506
    19   7 N        2.763    -0.120    23.618     7.218
    20   6 C        2.801     0.273    22.387     7.751
    21   6 C        3.004    -0.014    28.358     8.735
    22   6 C        3.150    -0.051    28.962     8.803
    23   6 C        3.132     0.070    26.230     8.384
    24  35 Br       1.033    -0.143   188.991    22.166
    25   6 C        2.997    -0.040    28.987     8.832
    26  16 S        2.350     0.074   138.062    19.776
    27   8 O        0.860    -0.417    22.026     6.292
    28   6 C        3.764     0.079    19.304     6.263
    29   6 C        2.685     0.366    20.789     7.462
    30   8 O        1.658    -0.363    20.154     6.060
    31   8 O        0.856    -0.356    20.828     6.119
    32   7 N        2.761    -0.133    23.869     7.256
    33   6 C        2.780     0.272    22.401     7.752
    34   6 C        3.001    -0.018    28.455     8.750
    35   6 C        3.154    -0.034    28.533     8.735
    36   6 C        3.135     0.077    26.074     8.358
    37  35 Br       1.036    -0.140   188.899    22.160
    38   6 C        3.001    -0.023    28.557     8.766
    39  16 S        2.338     0.025   140.043    19.917
    40   8 O        0.859    -0.410    21.876     6.271
    41   1 H        0.925     0.060     2.194     2.316
    42   1 H        0.924     0.042     2.426     2.436
    43   1 H        0.924     0.050     2.323     2.383
    44   1 H        0.926     0.044     2.399     2.422
    45   1 H        0.926     0.044     2.398     2.421
    46   1 H        0.926     0.044     2.401     2.423
    47   1 H        0.926     0.040     2.453     2.449
    48   1 H        0.924     0.072     2.067     2.248
    49   1 H        0.923     0.050     2.317     2.380
    50   1 H        0.926     0.042     2.423     2.434
    51   1 H        0.926     0.051     2.307     2.375
    52   1 H        0.926     0.047     2.352     2.398
    53   1 H        0.926     0.048     2.346     2.395
    54   1 H        0.925     0.080     1.983     2.202
    55   1 H        0.924     0.051     2.306     2.375
    56   1 H        0.924     0.052     2.293     2.368
    57   1 H        0.926     0.060     2.201     2.320
    58   1 H        0.926     0.073     2.049     2.238
    59   1 H        0.923     0.071     2.076     2.253
    60   1 H        0.804     0.349     0.591     1.207
    61   1 H        0.926     0.073     2.055     2.242
    62   1 H        0.926     0.073     2.056     2.242

Wiberg/Mayer (AO) data.
largest (>0.10) Wiberg bond orders for each atom

     #   Z sym  total        # sym  WBO       # sym  WBO       # sym  WBO
 ---------------------------------------------------------------------------
     1   6 C    3.934 --     4 C    1.382     8 C    1.323     2 O    1.059
     2   8 O    2.228 --     1 C    1.059     3 C    0.981
     3   6 C    3.943 --     2 O    0.981    41 H    0.980    42 H    0.977
                            43 H    0.976
     4   6 C    3.987 --     5 C    1.435     1 C    1.382    44 H    0.965
                             7 C    0.103
     5   6 C    3.990 --     6 C    1.444     4 C    1.435    45 H    0.970
                             8 C    0.106
     6   6 C    3.991 --     5 C    1.444     7 C    1.425    46 H    0.970
     7   6 C    3.989 --     8 C    1.439     6 C    1.425    47 H    0.967
                             4 C    0.103
     8   6 C    3.980 --     7 C    1.439     1 C    1.323     9 C    0.991
                             5 C    0.106
     9   6 C    3.962 --     8 C    0.991    32 N    0.960    48 H    0.947
                            10 C    0.945
    10   6 C    3.965 --    11 C    0.998    19 N    0.960    49 H    0.951
                             9 C    0.945
    11   6 C    3.982 --    12 C    1.425    16 C    1.331    10 C    0.998
                            14 C    0.107
    12   6 C    3.988 --    13 C    1.432    11 C    1.425    50 H    0.967
                            15 C    0.103
    13   6 C    3.991 --    14 C    1.440    12 C    1.432    51 H    0.969
    14   6 C    3.989 --    13 C    1.440    15 C    1.436    52 H    0.970
                            11 C    0.107
    15   6 C    3.988 --    14 C    1.436    16 C    1.385    53 H    0.964
                            12 C    0.103
    16   6 C    3.932 --    15 C    1.385    11 C    1.331    17 O    1.039
    17   8 O    2.223 --    16 C    1.039    18 C    0.969
    18   6 C    3.931 --    56 H    0.977    55 H    0.976    54 H    0.975
                            17 O    0.969
    19   7 N    3.471 --    20 C    1.210    28 C    0.976    10 C    0.960
                            27 O    0.190
    20   6 C    3.952 --    27 O    1.650    19 N    1.210    21 C    1.007
    21   6 C    3.953 --    22 C    1.557    26 S    1.167    20 C    1.007
                            25 C    0.105
    22   6 C    3.984 --    21 C    1.557    23 C    1.268    57 H    0.962
    23   6 C    3.937 --    25 C    1.561    22 C    1.268    24 Br   0.988
    24  35 Br   1.126 --    23 C    0.988
    25   6 C    3.949 --    23 C    1.561    26 S    1.219    58 H    0.968
                            21 C    0.105
    26  16 S    2.686 --    25 C    1.219    21 C    1.167
    27   8 O    2.044 --    20 C    1.650    19 N    0.190
    28   6 C    3.954 --    32 N    0.978    19 N    0.976    59 H    0.943
                            29 C    0.894
    29   6 C    3.929 --    31 O    1.789    30 O    1.161    28 C    0.894
    30   8 O    2.221 --    29 C    1.161    60 H    0.824    31 O    0.167
    31   8 O    2.088 --    29 C    1.789    30 O    0.167
    32   7 N    3.434 --    33 C    1.180    28 C    0.978     9 C    0.960
                            40 O    0.182
    33   6 C    3.953 --    40 O    1.682    32 N    1.180    34 C    1.009
    34   6 C    3.948 --    35 C    1.565    39 S    1.152    33 C    1.009
                            38 C    0.107
    35   6 C    3.985 --    34 C    1.565    36 C    1.266    61 H    0.961
    36   6 C    3.938 --    38 C    1.568    35 C    1.266    37 Br   0.988
    37  35 Br   1.126 --    36 C    0.988
    38   6 C    3.948 --    36 C    1.568    39 S    1.209    62 H    0.967
                            34 C    0.107
    39  16 S    2.669 --    38 C    1.209    34 C    1.152
    40   8 O    2.032 --    33 C    1.682    32 N    0.182
    41   1 H    0.996 --     3 C    0.980
    42   1 H    0.998 --     3 C    0.977
    43   1 H    0.997 --     3 C    0.976
    44   1 H    0.998 --     4 C    0.965
    45   1 H    0.998 --     5 C    0.970
    46   1 H    0.998 --     6 C    0.970
    47   1 H    0.998 --     7 C    0.967
    48   1 H    0.994 --     9 C    0.947
    49   1 H    0.997 --    10 C    0.951
    50   1 H    0.998 --    12 C    0.967
    51   1 H    0.997 --    13 C    0.969
    52   1 H    0.997 --    14 C    0.970
    53   1 H    0.997 --    15 C    0.964
    54   1 H    0.993 --    18 C    0.975
    55   1 H    0.997 --    18 C    0.976
    56   1 H    0.997 --    18 C    0.977
    57   1 H    0.996 --    22 C    0.962
    58   1 H    0.994 --    25 C    0.968
    59   1 H    0.994 --    28 C    0.943
    60   1 H    0.878 --    30 O    0.824
    61   1 H    0.995 --    35 C    0.961
    62   1 H    0.994 --    38 C    0.967
 ---------------------------------------------------------------------------

molecular dipole:
                 x           y           z       tot (Debye)
 q only:       -2.292      -2.285       1.486
   full:       -2.670      -2.479       1.624      10.140

           -------------------------------------------------
          | TOTAL ENERGY             -116.117171753958 Eh   |
          | GRADIENT NORM               0.000273493096 Eh/Î± |
          | HOMO-LUMO GAP               2.559463276772 eV   |
           -------------------------------------------------

 * finished run on 2022/03/17 at 00:05:21.794
