   * xtb version 6.3.3 (4ae9cef) compiled by 'conda@95abc7406d43' on 2020-10-14
          program call               : xtb acid_68.xyz --opt --chrg 0 --uhf 0 --gfn 2
          number of atoms            :                    72
          number of electrons        :                   226
          charge                     :                     0
          spin                       :                   0.0

   ID    Z sym.   atoms
    1    6 C      1-22, 24-29, 31, 33, 34, 38-41, 43-45
    2    7 N      23, 37
    3   35 Br     30, 42
    4    8 O      32, 35, 36, 46
    5    1 H      47-72

          :  Hamiltonian                  GFN2-xTB          :
 * total energy  :  -124.9442613 Eh     change       -0.3729923E-08 Eh
 * total energy  :  -124.9594942 Eh     change       -0.1523289E-01 Eh
 * total energy  :  -124.9636876 Eh     change       -0.4193462E-02 Eh
 * total energy  :  -124.9649235 Eh     change       -0.1235900E-02 Eh
 * total energy  :  -124.9656998 Eh     change       -0.7762262E-03 Eh
 * total energy  :  -124.9660596 Eh     change       -0.3598481E-03 Eh
 * total energy  :  -124.9663971 Eh     change       -0.3374955E-03 Eh
 * total energy  :  -124.9666928 Eh     change       -0.2957449E-03 Eh
 * total energy  :  -124.9669717 Eh     change       -0.2788391E-03 Eh
 * total energy  :  -124.9672199 Eh     change       -0.2482346E-03 Eh
 * total energy  :  -124.9704902 Eh     change       -0.3411233E-04 Eh
 * total energy  :  -124.9705104 Eh     change       -0.2015414E-04 Eh
 * total energy  :  -124.9705255 Eh     change       -0.1515868E-04 Eh
 * total energy  :  -124.9705434 Eh     change       -0.1786847E-04 Eh
 * total energy  :  -124.9705654 Eh     change       -0.2203022E-04 Eh
 * total energy  :  -124.9705790 Eh     change       -0.1363751E-04 Eh
 * total energy  :  -124.9705866 Eh     change       -0.7539775E-05 Eh
 * total energy  :  -124.9705941 Eh     change       -0.7531473E-05 Eh
 * total energy  :  -124.9705973 Eh     change       -0.3136773E-05 Eh
   *** GEOMETRY OPTIMIZATION CONVERGED AFTER 44 ITERATIONS ***

 final structure:
================
72
 xtb: 6.3.3 (4ae9cef)
C        -1.84342893751448   -1.97497908784572   -0.40797396040982
C        -2.43366125231268   -2.77918368335072   -1.33988386592466
C        -2.36667987414566   -2.46580627596137   -2.71327826303627
C        -2.98718155734777   -3.26076141370397   -3.69894492061523
C        -2.89493212465171   -2.92882615164205   -5.02172504883418
C        -2.17723505545677   -1.78956275448401   -5.42056410570821
C        -1.56514627051882   -0.99771738896722   -4.49015546122035
C        -1.64563853890034   -1.31155225154170   -3.11717125376633
C        -1.04368951654720   -0.50442094251244   -2.13297714428753
C        -1.15584494959335   -0.81205874549405   -0.80152860313976
C        -0.56469669017433    0.09445962499445    0.24392368190249
C         0.97697235827495    0.05434460112241    0.27900806582704
C         1.48215308034552   -0.83181426442208    1.38443830572970
C         2.02972740832439   -2.05530382544117    1.11056787449810
C         2.47882448386884   -2.89700875114671    2.14795613890651
C         3.05641849715498   -4.15774605197708    1.89056925298351
C         3.49464657797061   -4.94673226284391    2.91686866664375
C         3.37300287214726   -4.51417754183837    4.24683610403260
C         2.81428664614921   -3.29912908055037    4.52906396720231
C         2.35472243462079   -2.46088595679450    3.49279805908278
C         1.77889617464229   -1.19854625288685    3.74686822378323
C         1.34989550920791   -0.40781034836997    2.72124121960462
N         1.34755370835995    1.45014846207100    0.49043651721877
C         2.67735358679241    1.77465175737899    0.55935032658754
C         2.96665803981749    3.23993351422754    0.62597526467297
C         2.44060640474093    4.04028491575268    1.63398142248492
C         2.76539483696321    5.38483291532378    1.69072710831493
C         3.60792227442051    5.94168084416331    0.74433590028785
C         4.13612014405961    5.12996858793211   -0.24611897269376
Br        5.30624092810540    5.88566484498184   -1.53760028844704
C         3.83574214430993    3.78192553852323   -0.31130699256744
O         3.54059202744814    0.93177275992977    0.62654395310570
C         0.33016194074229    2.31903019473250   -0.03061592038905
C         0.68778503944525    2.79958098029713   -1.47726018658811
O        -0.17180170795958    3.63631083608766   -2.01227189499262
O         1.68911044146691    2.42707753892374   -2.01798966200573
N        -0.86965192971400    1.49727568056737   -0.01659403211149
C        -2.08960279259925    2.01537216883506   -0.22900721140666
C        -3.22943458320218    1.05736065567692   -0.14687366860092
C        -3.59651594316308    0.47410348699421    1.05734959966837
C        -4.64433967103425   -0.42964482223867    1.06950927765668
Br       -5.12588501655355   -1.25851039940751    2.71265296283462
C        -5.33071791269843   -0.75743603414946   -0.08710248935838
C        -4.97323288622675   -0.14671917558572   -1.27647296690526
C        -3.93398727786035    0.76510288704604   -1.30938754897939
O        -2.24777257832116    3.20071930419279   -0.51322148288590
H        -1.89931046300018   -2.22155253671858    0.64238817258528
H        -2.96609648486680   -3.66791056530714   -1.03423276026441
H        -3.53508277513424   -4.13849860560394   -3.38777517126454
H        -3.37162525077680   -3.54233254872712   -5.77177771010077
H        -2.11297203537331   -1.54544536844126   -6.47039949967280
H        -1.01047823603919   -0.12045744847118   -4.79002939832368
H        -0.50042607827375    0.37555390466803   -2.45038919360219
H        -0.94957730030893   -0.18342606196549    1.23325172100473
H         1.37427928383494   -0.29147683833789   -0.68495633488493
H         2.13514664401085   -2.38693111132993    0.08760829742948
H         3.15024831584264   -4.48484864436847    0.86509468733664
H         3.94019121587092   -5.90927749796440    2.71276527782828
H         3.72659430994963   -5.15033177798102    5.04490415060717
H         2.71920675439073   -2.96118874370625    5.55119647348261
H         1.68582382276194   -0.86608729293093    4.77089185675377
H         0.91808548551991    0.56239874586902    2.92402893826005
H         1.79882133104648    3.60674729762532    2.38736441587336
H         2.36215891038994    6.00605069342378    2.47609579275498
H         3.85916160938183    6.99046995936359    0.77844597431358
H         4.24986566521563    3.15139164670943   -1.08211709949847
H         0.18102977605504    3.21414213460038    0.59378872188757
H        -1.00210618802662    3.74223019953260   -1.46307708201836
H        -3.08432438803202    0.72405292033020    1.97437578298475
H        -6.13627047397798   -1.47434907892424   -0.05466194044043
H        -5.50795823370940   -0.38634045177164   -2.18217166229856
H        -3.65409570964836    1.24214943383840   -2.23558835888910

          :  Hamiltonian                  GFN2-xTB          :
         :: total energy            -124.970597255880 Eh    ::
         :: gradient norm              0.000276866743 Eh/a0 ::
         :: HOMO-LUMO gap              2.699487947101 eV    ::
         :: SCC energy              -126.886889583058 Eh    ::
         :: -> dispersion             -0.111322832448 Eh    ::
         :: repulsion energy           1.913427055305 Eh    ::

    * Orbital Energies and Occupations

         #    Occupation            Energy/Eh            Energy/eV
      -------------------------------------------------------------
         1        2.0000           -0.8553899             -23.2763
       ...           ...                  ...                  ...
       101        2.0000           -0.4324359             -11.7672
       102        2.0000           -0.4295226             -11.6879
       103        2.0000           -0.4274364             -11.6311
       104        2.0000           -0.4225883             -11.4992
       105        2.0000           -0.4224398             -11.4952
       106        2.0000           -0.4218011             -11.4778
       107        2.0000           -0.4139923             -11.2653
       108        2.0000           -0.4100227             -11.1573
       109        2.0000           -0.4087042             -11.1214
       110        2.0000           -0.4024742             -10.9519
       111        2.0000           -0.4013357             -10.9209
       112        2.0000           -0.4007896             -10.9060
       113        2.0000           -0.3860538             -10.5051 (HOMO)
       114                         -0.2868494              -7.8056 (LUMO)
       115                         -0.2839798              -7.7275
       116                         -0.2733184              -7.4374
       117                         -0.2680723              -7.2946
       118                         -0.2662392              -7.2447
       119                         -0.2611583              -7.1065
       120                         -0.2549573              -6.9377
       121                         -0.2537835              -6.9058
       122                         -0.2487237              -6.7681
       123                         -0.2379265              -6.4743
       124                         -0.2240501              -6.0967
       ...                                ...                  ...
       220                          0.6896466              18.7662
      -------------------------------------------------------------
                  HL-Gap            0.0992044 Eh            2.6995 eV

     #   Z          covCN         q      C6AA      Î±(0)
     1   6 C        2.919    -0.039    28.968     8.826
     2   6 C        2.918    -0.034    28.843     8.807
     3   6 C        2.987     0.013    27.724     8.637
     4   6 C        2.918    -0.034    28.838     8.806
     5   6 C        2.916    -0.027    28.664     8.779
     6   6 C        2.916    -0.026    28.655     8.778
     7   6 C        2.918    -0.033    28.814     8.802
     8   6 C        2.987     0.015    27.674     8.629
     9   6 C        2.923    -0.040    29.003     8.832
    10   6 C        2.970    -0.009    28.237     8.716
    11   6 C        3.820     0.037    19.931     6.353
    12   6 C        3.833     0.051    19.693     6.314
    13   6 C        2.971     0.009    27.814     8.651
    14   6 C        2.923    -0.034    28.846     8.808
    15   6 C        2.987     0.018    27.594     8.617
    16   6 C        2.918    -0.032    28.808     8.802
    17   6 C        2.916    -0.028    28.690     8.783
    18   6 C        2.916    -0.028    28.699     8.785
    19   6 C        2.918    -0.033    28.826     8.804
    20   6 C        2.988     0.015    27.665     8.628
    21   6 C        2.917    -0.033    28.811     8.802
    22   6 C        2.919    -0.033    28.825     8.804
    23   7 N        2.764    -0.125    23.706     7.231
    24   6 C        2.767     0.282    22.226     7.721
    25   6 C        2.979    -0.015    28.383     8.739
    26   6 C        2.920    -0.036    28.891     8.814
    27   6 C        2.922    -0.027    28.679     8.782
    28   6 C        2.995    -0.033    28.817     8.806
    29   6 C        2.918     0.087    26.055     8.370
    30  35 Br       1.076    -0.148   189.143    22.175
    31   6 C        3.000    -0.022    28.548     8.765
    32   8 O        0.859    -0.397    21.613     6.233
    33   6 C        3.760     0.080    19.301     6.263
    34   6 C        2.684     0.348    21.087     7.515
    35   8 O        1.654    -0.368    20.243     6.074
    36   8 O        0.856    -0.367    21.042     6.150
    37   7 N        2.763    -0.105    23.308     7.170
    38   6 C        2.765     0.270    22.441     7.758
    39   6 C        2.981    -0.007    28.180     8.708
    40   6 C        2.998    -0.034    28.827     8.807
    41   6 C        2.918     0.087    26.072     8.373
    42  35 Br       1.073    -0.150   189.176    22.177
    43   6 C        2.991    -0.031    28.757     8.797
    44   6 C        2.923    -0.022    28.551     8.763
    45   6 C        2.923    -0.021    28.541     8.761
    46   8 O        0.860    -0.455    22.812     6.404
    47   1 H        0.926     0.033     2.550     2.497
    48   1 H        0.926     0.042     2.416     2.431
    49   1 H        0.926     0.037     2.485     2.465
    50   1 H        0.926     0.039     2.467     2.456
    51   1 H        0.926     0.040     2.445     2.445
    52   1 H        0.926     0.042     2.417     2.431
    53   1 H        0.925     0.035     2.520     2.482
    54   1 H        0.924     0.054     2.274     2.358
    55   1 H        0.923     0.058     2.219     2.330
    56   1 H        0.926     0.038     2.473     2.459
    57   1 H        0.926     0.036     2.502     2.474
    58   1 H        0.926     0.035     2.521     2.483
    59   1 H        0.926     0.034     2.525     2.485
    60   1 H        0.926     0.035     2.517     2.481
    61   1 H        0.926     0.038     2.473     2.459
    62   1 H        0.926     0.026     2.651     2.546
    63   1 H        0.926     0.038     2.480     2.463
    64   1 H        0.926     0.050     2.323     2.383
    65   1 H        0.926     0.061     2.188     2.313
    66   1 H        0.926     0.079     1.993     2.208
    67   1 H        0.923     0.064     2.157     2.297
    68   1 H        0.799     0.367     0.551     1.167
    69   1 H        0.926     0.056     2.248     2.345
    70   1 H        0.926     0.065     2.145     2.290
    71   1 H        0.926     0.057     2.232     2.336
    72   1 H        0.926     0.055     2.253     2.347

Wiberg/Mayer (AO) data.
largest (>0.10) Wiberg bond orders for each atom

     #   Z sym  total        # sym  WBO       # sym  WBO       # sym  WBO
 ---------------------------------------------------------------------------
     1   6 C    3.990 --     2 C    1.560    10 C    1.296    47 H    0.968
     2   6 C    3.991 --     1 C    1.560     3 C    1.278    48 H    0.967
                             9 C    0.115
     3   6 C    3.990 --     4 C    1.281     2 C    1.278     8 C    1.249
     4   6 C    3.992 --     5 C    1.557     3 C    1.281    49 H    0.968
                             7 C    0.118
     5   6 C    3.989 --     4 C    1.557     6 C    1.320    50 H    0.971
     6   6 C    3.992 --     7 C    1.559     5 C    1.320    51 H    0.970
     7   6 C    3.989 --     6 C    1.559     8 C    1.277    52 H    0.968
                             4 C    0.118
     8   6 C    3.990 --     9 C    1.286     7 C    1.277     3 C    1.249
     9   6 C    3.991 --    10 C    1.521     8 C    1.286    53 H    0.965
                             2 C    0.115
    10   6 C    3.984 --     9 C    1.521     1 C    1.296    11 C    0.990
    11   6 C    3.956 --    10 C    0.990    12 C    0.953    37 N    0.952
                            54 H    0.951
    12   6 C    3.960 --    13 C    0.991    23 N    0.955    55 H    0.954
                            11 C    0.953
    13   6 C    3.984 --    14 C    1.528    22 C    1.292    12 C    0.991
    14   6 C    3.989 --    13 C    1.528    15 C    1.281    56 H    0.965
                            21 C    0.114
    15   6 C    3.990 --    14 C    1.281    16 C    1.279    20 C    1.251
    16   6 C    3.990 --    17 C    1.557    15 C    1.279    57 H    0.968
                            19 C    0.118
    17   6 C    3.992 --    16 C    1.557    18 C    1.321    58 H    0.971
    18   6 C    3.990 --    19 C    1.556    17 C    1.321    59 H    0.971
    19   6 C    3.992 --    18 C    1.556    20 C    1.282    60 H    0.968
                            16 C    0.118
    20   6 C    3.990 --    19 C    1.282    21 C    1.275    15 C    1.251
    21   6 C    3.991 --    22 C    1.566    20 C    1.275    61 H    0.968
                            14 C    0.114
    22   6 C    3.991 --    21 C    1.566    13 C    1.292    62 H    0.968
    23   7 N    3.419 --    24 C    1.168    33 C    1.002    12 C    0.955
                            32 O    0.179
    24   6 C    3.943 --    32 O    1.724    23 N    1.168    25 C    0.965
    25   6 C    3.987 --    31 C    1.404    26 C    1.400    24 C    0.965
                            28 C    0.107
    26   6 C    3.991 --    27 C    1.440    25 C    1.400    63 H    0.968
    27   6 C    3.991 --    26 C    1.440    28 C    1.437    64 H    0.968
                            31 C    0.108
    28   6 C    3.989 --    27 C    1.437    29 C    1.408    65 H    0.968
                            25 C    0.107
    29   6 C    3.944 --    31 C    1.416    28 C    1.408    30 Br   0.988
    30  35 Br   1.120 --    29 C    0.988
    31   6 C    3.986 --    29 C    1.416    25 C    1.404    66 H    0.963
                            27 C    0.108
    32   8 O    2.044 --    24 C    1.724    23 N    0.179
    33   6 C    3.960 --    23 N    1.002    37 N    0.967    67 H    0.939
                            34 C    0.882
    34   6 C    3.930 --    36 O    1.777    35 O    1.210    33 C    0.882
    35   8 O    2.239 --    34 C    1.210    68 H    0.761    36 O    0.183
    36   8 O    2.085 --    34 C    1.777    35 O    0.183
    37   7 N    3.509 --    38 C    1.281    33 C    0.967    11 C    0.952
                            46 O    0.190
    38   6 C    3.943 --    46 O    1.592    37 N    1.281    39 C    0.969
    39   6 C    3.987 --    40 C    1.405    45 C    1.398    38 C    0.969
                            43 C    0.107
    40   6 C    3.988 --    41 C    1.411    39 C    1.405    69 H    0.966
                            44 C    0.108
    41   6 C    3.944 --    40 C    1.411    43 C    1.409    42 Br   0.990
    42  35 Br   1.123 --    41 C    0.990
    43   6 C    3.988 --    44 C    1.437    41 C    1.409    70 H    0.967
                            39 C    0.107
    44   6 C    3.990 --    45 C    1.440    43 C    1.437    71 H    0.967
                            40 C    0.108
    45   6 C    3.989 --    44 C    1.440    39 C    1.398    72 H    0.968
    46   8 O    2.015 --    38 C    1.592    37 N    0.190
    47   1 H    0.998 --     1 C    0.968
    48   1 H    0.997 --     2 C    0.967
    49   1 H    0.998 --     4 C    0.968
    50   1 H    0.998 --     5 C    0.971
    51   1 H    0.998 --     6 C    0.970
    52   1 H    0.998 --     7 C    0.968
    53   1 H    0.998 --     9 C    0.965
    54   1 H    0.997 --    11 C    0.951
    55   1 H    0.996 --    12 C    0.954
    56   1 H    0.998 --    14 C    0.965
    57   1 H    0.998 --    16 C    0.968
    58   1 H    0.998 --    17 C    0.971
    59   1 H    0.998 --    18 C    0.971
    60   1 H    0.998 --    19 C    0.968
    61   1 H    0.998 --    21 C    0.968
    62   1 H    0.999 --    22 C    0.968
    63   1 H    0.998 --    26 C    0.968
    64   1 H    0.997 --    27 C    0.968
    65   1 H    0.996 --    28 C    0.968
    66   1 H    0.994 --    31 C    0.963
    67   1 H    0.995 --    33 C    0.939
    68   1 H    0.865 --    35 O    0.761
    69   1 H    0.997 --    40 C    0.966
    70   1 H    0.995 --    43 C    0.967
    71   1 H    0.996 --    44 C    0.967
    72   1 H    0.996 --    45 C    0.968
 ---------------------------------------------------------------------------

molecular dipole:
                 x           y           z       tot (Debye)
 q only:       -2.152      -1.564       0.478
   full:       -2.705      -1.446       0.584       7.936

           -------------------------------------------------
          | TOTAL ENERGY             -124.970597255880 Eh   |
          | GRADIENT NORM               0.000276866743 Eh/Î± |
          | HOMO-LUMO GAP               2.699487947101 eV   |
           -------------------------------------------------

 * finished run on 2022/03/17 at 01:59:17.451
