   * xtb version 6.3.3 (4ae9cef) compiled by 'conda@95abc7406d43' on 2020-10-14
          program call               : xtb acid_378.xyz --opt --chrg 0 --uhf 0 --gfn 2
          number of atoms            :                    72
          number of electrons        :                   226
          charge                     :                     0
          spin                       :                   0.0

   ID    Z sym.   atoms
    1    6 C      1-22, 24-29, 31, 33, 34, 38-41, 43-45
    2    7 N      23, 37
    3   35 Br     30, 42
    4    8 O      32, 35, 36, 46
    5    1 H      47-72

          :  Hamiltonian                  GFN2-xTB          :
 * total energy  :  -124.9254685 Eh     change       -0.1748930E-08 Eh
 * total energy  :  -124.9419080 Eh     change       -0.1643950E-01 Eh
 * total energy  :  -124.9464425 Eh     change       -0.4534523E-02 Eh
 * total energy  :  -124.9478876 Eh     change       -0.1445088E-02 Eh
 * total energy  :  -124.9490140 Eh     change       -0.1126454E-02 Eh
 * total energy  :  -124.9497435 Eh     change       -0.7295267E-03 Eh
 * total energy  :  -124.9504333 Eh     change       -0.6897868E-03 Eh
 * total energy  :  -124.9510584 Eh     change       -0.6250417E-03 Eh
 * total energy  :  -124.9515708 Eh     change       -0.5123910E-03 Eh
 * total energy  :  -124.9519746 Eh     change       -0.4038297E-03 Eh
 * total energy  :  -124.9542395 Eh     change       -0.1484962E-04 Eh
 * total energy  :  -124.9542249 Eh     change        0.1460350E-04 Eh
 * total energy  :  -124.9542430 Eh     change       -0.1816300E-04 Eh
 * total energy  :  -124.9542533 Eh     change       -0.1028995E-04 Eh
 * total energy  :  -124.9542465 Eh     change        0.6789510E-05 Eh
 * total energy  :  -124.9542323 Eh     change        0.1424042E-04 Eh
 * total energy  :  -124.9542589 Eh     change       -0.2664572E-04 Eh
 * total energy  :  -124.9542663 Eh     change       -0.7403796E-05 Eh
 * total energy  :  -124.9542665 Eh     change       -0.1586638E-06 Eh
   *** GEOMETRY OPTIMIZATION CONVERGED AFTER 44 ITERATIONS ***

 final structure:
================
72
 xtb: 6.3.3 (4ae9cef)
C         2.48222043154487   -1.76326765766149    3.54237847760743
C         1.73165411857638   -0.85650326845166    4.23398116598131
C         0.87761307539234    0.00967021866187    3.53863138122306
C         0.79580023551485   -0.03830119792987    2.17482838666056
C         1.56780467876777   -0.95024284971309    1.42137863860300
C         2.42139810180303   -1.83801440852918    2.13509327996144
C         3.19681723322989   -2.78350603999307    1.43396400522336
C         3.13294628225638   -2.86073483505077    0.07326702160889
C         2.31486890191961   -1.97389665882135   -0.63564451181401
C         1.55630468774815   -1.02173839431760    0.00097517750964
C         0.72900709592716   -0.10983038928273   -0.87348641722231
C        -0.79295419951850   -0.43236600330481   -0.77327829713819
C        -1.39350430818281   -0.96121384442128   -2.06068777997230
C        -1.01307815332832   -0.41994244097808   -3.26640154794162
C        -1.51757890729441   -0.89354257097898   -4.48373276478124
C        -2.40063925475589   -1.93277894391738   -4.49529957697233
C        -2.83403518325383   -2.51499120190438   -3.28729597454908
C        -2.34931919770579   -2.01887130670116   -2.04286343752810
C        -2.85600624203086   -2.60884854785899   -0.86288218154788
C        -3.75479362134340   -3.63840252881163   -0.91334596930556
C        -4.20320844758584   -4.14320001546159   -2.14129129164084
C        -3.75472483462548   -3.58405748219982   -3.30287179218250
N        -1.41681227432440    0.83234222738947   -0.34555149317068
C        -2.22945417596199    0.81621585149257    0.76624004979182
C        -2.54309121677076    2.13339727313065    1.39384802741279
C        -2.94919978434495    3.26685155365377    0.69575772372611
C        -3.23703323370447    4.43387192908949    1.38342989109554
C        -3.11837461155946    4.49074544264062    2.76102666027419
C        -2.72962719859433    3.35229038436299    3.44789646198790
Br       -2.57516979461963    3.40299555451234    5.34184085611067
C        -2.45351054586332    2.17364606551664    2.78200578203533
O        -2.67120537264367   -0.21957092322854    1.21282934828689
C        -0.49982187691343    1.90351856348991   -0.65684725272866
C        -0.75077103333755    2.49123132169666   -2.06825059420768
O        -2.00517035197588    2.34664957064016   -2.50245334289660
O         0.09462098328944    3.05689956056664   -2.68998808051591
N         0.81532657776574    1.31215402109193   -0.56389971648921
C         1.80339401496181    1.99398582337795    0.08422981020874
C         3.13914610136774    1.33674582109898    0.10871621480519
C         3.70361990177109    0.82705073150588   -1.05272601358663
C         4.94050523245396    0.21490764785038   -0.97998383330770
Br        5.68634808406497   -0.54247452715007   -2.55592049202236
C         5.63178748803638    0.11352477695296    0.21501216195770
C         5.07620486793276    0.66013079881122    1.35879494588439
C         3.83910856555218    1.27590569850986    1.30847159415213
O         1.59226243384943    3.07535678059854    0.59388846677925
H         3.13856332127224   -2.44537343323135    4.06327695562106
H         1.78503976961708   -0.80279339601398    5.31083409635107
H         0.28413524666848    0.72331350507483    4.09059907688960
H         0.12497365053007    0.64337205387009    1.68141347759693
H         3.83724644742316   -3.44697682882494    1.99623748265068
H         3.71742753258412   -3.58781460701132   -0.46925670056366
H         2.29488702800140   -2.03929725466247   -1.71435016953789
H         1.05813563319147   -0.27049214968955   -1.90662107225847
H        -0.95290760484998   -1.15809257143262    0.02833614987327
H        -0.30218301260763    0.39199367355839   -3.30974316435173
H        -1.18924748477989   -0.43233539222516   -5.40223606801254
H        -2.78388805312246   -2.32280684682078   -5.42674116032734
H        -2.57100890515797   -2.23135342256044    0.10447174082738
H        -4.12892617022089   -4.06583319049313    0.00487229338029
H        -4.90733877989541   -4.96161009535813   -2.15988504553298
H        -4.10079049619263   -3.94743141172835   -4.25983140417738
H        -3.06624348888475    3.24640909940149   -0.37667268123752
H        -3.55326839191835    5.31028887978462    0.83957792412599
H        -3.33181008471221    5.40305430493067    3.29572796198999
H        -2.17091676727578    1.28215857424718    3.32115331353492
H        -0.55501738561877    2.74541394378982    0.05086849394569
H        -2.49960559194895    1.71251161162131   -1.95333732208343
H         3.19173920817674    0.91709486405685   -1.99823095636539
H         6.59155871373318   -0.37847518121489    0.24676036417849
H         5.61256623730843    0.60012073776303    2.29303199358151
H         3.39720415518537    1.70116395318074    2.19596325253715

          :  Hamiltonian                  GFN2-xTB          :
         :: total energy            -124.954266487149 Eh    ::
         :: gradient norm              0.000373436819 Eh/a0 ::
         :: HOMO-LUMO gap              2.811276017790 eV    ::
         :: SCC energy              -126.868627345832 Eh    ::
         :: -> dispersion             -0.118623545526 Eh    ::
         :: repulsion energy           1.909615164801 Eh    ::

    * Orbital Energies and Occupations

         #    Occupation            Energy/Eh            Energy/eV
      -------------------------------------------------------------
         1        2.0000           -0.8478770             -23.0719
       ...           ...                  ...                  ...
       101        2.0000           -0.4326215             -11.7722
       102        2.0000           -0.4307216             -11.7205
       103        2.0000           -0.4230789             -11.5126
       104        2.0000           -0.4223805             -11.4936
       105        2.0000           -0.4211069             -11.4589
       106        2.0000           -0.4189802             -11.4010
       107        2.0000           -0.4154615             -11.3053
       108        2.0000           -0.4153583             -11.3025
       109        2.0000           -0.4141326             -11.2691
       110        2.0000           -0.4113269             -11.1928
       111        2.0000           -0.4092428             -11.1361
       112        2.0000           -0.3977389             -10.8230
       113        2.0000           -0.3927449             -10.6871 (HOMO)
       114                         -0.2894324              -7.8759 (LUMO)
       115                         -0.2833706              -7.7109
       116                         -0.2771288              -7.5411
       117                         -0.2761925              -7.5156
       118                         -0.2683148              -7.3012
       119                         -0.2634734              -7.1695
       120                         -0.2599445              -7.0735
       121                         -0.2474098              -6.7324
       122                         -0.2434869              -6.6256
       123                         -0.2345822              -6.3833
       124                         -0.2202761              -5.9940
       ...                                ...                  ...
       220                          0.6802375              18.5102
      -------------------------------------------------------------
                  HL-Gap            0.1033125 Eh            2.8113 eV

     #   Z          covCN         q      C6AA      Î±(0)
     1   6 C        2.922    -0.033    28.813     8.803
     2   6 C        2.915    -0.027    28.669     8.780
     3   6 C        2.917    -0.025    28.631     8.774
     4   6 C        2.917    -0.032    28.806     8.801
     5   6 C        2.982     0.007    27.866     8.659
     6   6 C        2.989     0.013    27.707     8.634
     7   6 C        2.921    -0.035    28.872     8.812
     8   6 C        2.913    -0.030    28.740     8.791
     9   6 C        2.926    -0.037    28.917     8.819
    10   6 C        2.964    -0.014    28.351     8.734
    11   6 C        3.820     0.037    19.945     6.356
    12   6 C        3.830     0.038    19.912     6.349
    13   6 C        2.962    -0.018    28.449     8.749
    14   6 C        2.922    -0.039    28.971     8.827
    15   6 C        2.913    -0.030    28.752     8.793
    16   6 C        2.921    -0.033    28.820     8.804
    17   6 C        2.988     0.014    27.681     8.630
    18   6 C        2.982     0.008    27.835     8.654
    19   6 C        2.916    -0.040    28.999     8.831
    20   6 C        2.917    -0.026    28.652     8.778
    21   6 C        2.914    -0.027    28.684     8.782
    22   6 C        2.922    -0.034    28.850     8.808
    23   7 N        2.750    -0.156    24.374     7.332
    24   6 C        2.767     0.273    22.390     7.749
    25   6 C        2.975    -0.018    28.443     8.748
    26   6 C        2.918    -0.036    28.885     8.813
    27   6 C        2.923    -0.022    28.550     8.762
    28   6 C        2.990    -0.028    28.684     8.785
    29   6 C        2.916     0.088    26.034     8.367
    30  35 Br       1.072    -0.147   189.113    22.173
    31   6 C        3.006    -0.024    28.580     8.770
    32   8 O        0.859    -0.408    21.843     6.266
    33   6 C        3.782     0.081    19.258     6.251
    34   6 C        2.686     0.349    21.073     7.512
    35   8 O        1.658    -0.360    20.082     6.050
    36   8 O        0.856    -0.341    20.539     6.076
    37   7 N        2.755    -0.124    23.686     7.228
    38   6 C        2.766     0.279    22.284     7.731
    39   6 C        2.980    -0.007    28.196     8.710
    40   6 C        3.001    -0.033    28.809     8.805
    41   6 C        2.919     0.084    26.121     8.381
    42  35 Br       1.077    -0.155   189.326    22.186
    43   6 C        2.994    -0.032    28.791     8.802
    44   6 C        2.923    -0.025    28.618     8.773
    45   6 C        2.923    -0.020    28.508     8.756
    46   8 O        0.859    -0.423    22.152     6.310
    47   1 H        0.926     0.038     2.470     2.458
    48   1 H        0.926     0.040     2.443     2.444
    49   1 H        0.926     0.038     2.474     2.460
    50   1 H        0.926     0.021     2.722     2.580
    51   1 H        0.926     0.041     2.435     2.440
    52   1 H        0.926     0.044     2.395     2.420
    53   1 H        0.926     0.036     2.504     2.475
    54   1 H        0.924     0.054     2.266     2.354
    55   1 H        0.924     0.077     2.016     2.220
    56   1 H        0.926     0.033     2.539     2.492
    57   1 H        0.926     0.043     2.414     2.429
    58   1 H        0.926     0.040     2.443     2.444
    59   1 H        0.926     0.059     2.216     2.328
    60   1 H        0.926     0.038     2.472     2.459
    61   1 H        0.926     0.036     2.509     2.477
    62   1 H        0.926     0.036     2.502     2.473
    63   1 H        0.926     0.044     2.393     2.419
    64   1 H        0.926     0.058     2.227     2.334
    65   1 H        0.926     0.065     2.142     2.288
    66   1 H        0.926     0.072     2.068     2.249
    67   1 H        0.923     0.091     1.868     2.137
    68   1 H        0.804     0.332     0.631     1.248
    69   1 H        0.926     0.059     2.210     2.325
    70   1 H        0.926     0.060     2.194     2.316
    71   1 H        0.926     0.053     2.284     2.363
    72   1 H        0.926     0.057     2.230     2.335

Wiberg/Mayer (AO) data.
largest (>0.10) Wiberg bond orders for each atom

     #   Z sym  total        # sym  WBO       # sym  WBO       # sym  WBO
 ---------------------------------------------------------------------------
     1   6 C    3.991 --     2 C    1.556     6 C    1.281    47 H    0.968
                             4 C    0.118
     2   6 C    3.991 --     1 C    1.556     3 C    1.323    48 H    0.970
     3   6 C    3.992 --     4 C    1.552     2 C    1.323    49 H    0.970
     4   6 C    3.993 --     3 C    1.552     5 C    1.284    50 H    0.963
                             1 C    0.118
     5   6 C    3.989 --     4 C    1.284    10 C    1.252     6 C    1.250
     6   6 C    3.990 --     1 C    1.281     7 C    1.279     5 C    1.250
     7   6 C    3.989 --     8 C    1.552     6 C    1.279    51 H    0.967
                            10 C    0.115
     8   6 C    3.991 --     7 C    1.552     9 C    1.328    52 H    0.969
     9   6 C    3.989 --    10 C    1.520     8 C    1.328    53 H    0.967
    10   6 C    3.983 --     9 C    1.520     5 C    1.252    11 C    0.993
                             7 C    0.115
    11   6 C    3.962 --    10 C    0.993    37 N    0.961    12 C    0.949
                            54 H    0.947
    12   6 C    3.954 --    13 C    0.988    11 C    0.949    55 H    0.947
                            23 N    0.944
    13   6 C    3.981 --    14 C    1.524    18 C    1.252    12 C    0.988
                            16 C    0.115
    14   6 C    3.991 --    13 C    1.524    15 C    1.325    56 H    0.959
    15   6 C    3.991 --    16 C    1.552    14 C    1.325    57 H    0.970
    16   6 C    3.990 --    15 C    1.552    17 C    1.281    58 H    0.967
                            13 C    0.115
    17   6 C    3.990 --    16 C    1.281    22 C    1.279    18 C    1.250
    18   6 C    3.988 --    19 C    1.285    13 C    1.252    17 C    1.250
    19   6 C    3.990 --    20 C    1.553    18 C    1.285    59 H    0.955
                            22 C    0.119
    20   6 C    3.991 --    19 C    1.553    21 C    1.323    60 H    0.971
    21   6 C    3.992 --    22 C    1.557    20 C    1.323    61 H    0.970
    22   6 C    3.991 --    21 C    1.557    17 C    1.279    62 H    0.968
                            19 C    0.119
    23   7 N    3.426 --    24 C    1.164    33 C    0.984    12 C    0.944
                            32 O    0.175
    24   6 C    3.945 --    32 O    1.707    23 N    1.164    25 C    0.981
    25   6 C    3.986 --    26 C    1.394    31 C    1.393    24 C    0.981
                            28 C    0.104
    26   6 C    3.991 --    27 C    1.440    25 C    1.394    63 H    0.965
    27   6 C    3.990 --    26 C    1.440    28 C    1.438    64 H    0.967
                            31 C    0.107
    28   6 C    3.988 --    27 C    1.438    29 C    1.404    65 H    0.967
                            25 C    0.104
    29   6 C    3.944 --    31 C    1.418    28 C    1.404    30 Br   0.991
    30  35 Br   1.128 --    29 C    0.991
    31   6 C    3.987 --    29 C    1.418    25 C    1.393    66 H    0.963
                            27 C    0.107
    32   8 O    2.038 --    24 C    1.707    23 N    0.175
    33   6 C    3.961 --    23 N    0.984    37 N    0.981    67 H    0.921
                            34 C    0.906
    34   6 C    3.925 --    36 O    1.813    35 O    1.140    33 C    0.906
    35   8 O    2.218 --    34 C    1.140    68 H    0.846    36 O    0.170
    36   8 O    2.100 --    34 C    1.813    35 O    0.170
    37   7 N    3.452 --    38 C    1.193    33 C    0.981    11 C    0.961
                            46 O    0.185
    38   6 C    3.945 --    46 O    1.687    37 N    1.193    39 C    0.978
    39   6 C    3.987 --    45 C    1.397    40 C    1.397    38 C    0.978
                            43 C    0.105
    40   6 C    3.989 --    41 C    1.418    39 C    1.397    69 H    0.965
                            44 C    0.107
    41   6 C    3.942 --    40 C    1.418    43 C    1.407    42 Br   0.984
    42  35 Br   1.113 --    41 C    0.984
    43   6 C    3.989 --    44 C    1.436    41 C    1.407    70 H    0.968
                            39 C    0.105
    44   6 C    3.990 --    45 C    1.442    43 C    1.436    71 H    0.967
                            40 C    0.107
    45   6 C    3.989 --    44 C    1.442    39 C    1.397    72 H    0.967
    46   8 O    2.022 --    38 C    1.687    37 N    0.185
    47   1 H    0.998 --     1 C    0.968
    48   1 H    0.998 --     2 C    0.970
    49   1 H    0.998 --     3 C    0.970
    50   1 H    0.999 --     4 C    0.963
    51   1 H    0.997 --     7 C    0.967
    52   1 H    0.997 --     8 C    0.969
    53   1 H    0.998 --     9 C    0.967
    54   1 H    0.997 --    11 C    0.947
    55   1 H    0.994 --    12 C    0.947
    56   1 H    0.998 --    14 C    0.959
    57   1 H    0.997 --    15 C    0.970
    58   1 H    0.997 --    16 C    0.967
    59   1 H    0.996 --    19 C    0.955
    60   1 H    0.998 --    20 C    0.971
    61   1 H    0.998 --    21 C    0.970
    62   1 H    0.998 --    22 C    0.968
    63   1 H    0.997 --    26 C    0.965
    64   1 H    0.996 --    27 C    0.967
    65   1 H    0.995 --    28 C    0.967
    66   1 H    0.995 --    31 C    0.963
    67   1 H    0.991 --    33 C    0.921
    68   1 H    0.889 --    35 O    0.846
    69   1 H    0.997 --    40 C    0.965
    70   1 H    0.996 --    43 C    0.968
    71   1 H    0.997 --    44 C    0.967
    72   1 H    0.996 --    45 C    0.967
 ---------------------------------------------------------------------------

molecular dipole:
                 x           y           z       tot (Debye)
 q only:       -0.490      -1.491       0.112
   full:       -0.816      -1.282       0.293       3.934

           -------------------------------------------------
          | TOTAL ENERGY             -124.954266487149 Eh   |
          | GRADIENT NORM               0.000373436819 Eh/Î± |
          | HOMO-LUMO GAP               2.811276017790 eV   |
           -------------------------------------------------

 * finished run on 2022/03/17 at 00:28:46.551
