   * xtb version 6.3.3 (4ae9cef) compiled by 'conda@95abc7406d43' on 2020-10-14
          program call               : xtb acid_190.xyz --opt --chrg 0 --uhf 0 --gfn 2
          number of atoms            :                    60
          number of electrons        :                   190
          charge                     :                     0
          spin                       :                   0.0

   ID    Z sym.   atoms
    1    8 O      1, 13, 14, 24
    2    6 C      2-6, 8, 9, 11, 12, 16-20, 22, 23, 25-38
    3   53 I      7, 21
    4    7 N      10, 15
    5    1 H      39-60

          :  Hamiltonian                  GFN2-xTB          :
 * total energy  :  -105.2071668 Eh     change       -0.8855778E-09 Eh
 * total energy  :  -105.2192463 Eh     change       -0.1207943E-01 Eh
 * total energy  :  -105.2225379 Eh     change       -0.3291638E-02 Eh
 * total energy  :  -105.2232877 Eh     change       -0.7497610E-03 Eh
 * total energy  :  -105.2236460 Eh     change       -0.3583026E-03 Eh
 * total energy  :  -105.2238199 Eh     change       -0.1739145E-03 Eh
 * total energy  :  -105.2239871 Eh     change       -0.1672037E-03 Eh
 * total energy  :  -105.2241631 Eh     change       -0.1759615E-03 Eh
 * total energy  :  -105.2243152 Eh     change       -0.1521688E-03 Eh
 * total energy  :  -105.2244130 Eh     change       -0.9778063E-04 Eh
 * total energy  :  -105.2270111 Eh     change       -0.1202430E-04 Eh
 * total energy  :  -105.2270214 Eh     change       -0.1034026E-04 Eh
 * total energy  :  -105.2270329 Eh     change       -0.1143593E-04 Eh
 * total energy  :  -105.2270416 Eh     change       -0.8709749E-05 Eh
 * total energy  :  -105.2270480 Eh     change       -0.6442456E-05 Eh
 * total energy  :  -105.2270484 Eh     change       -0.4445394E-06 Eh
 * total energy  :  -105.2270429 Eh     change        0.5597213E-05 Eh
 * total energy  :  -105.2270519 Eh     change       -0.9095588E-05 Eh
 * total energy  :  -105.2270564 Eh     change       -0.4459519E-05 Eh
   *** GEOMETRY OPTIMIZATION CONVERGED AFTER 66 ITERATIONS ***

 final structure:
================
60
 xtb: 6.3.3 (4ae9cef)
O        -1.72888628267439   -0.41013513221973    2.70056119153618
C        -1.28912384996833    0.23902245478693    1.77857557894859
C        -0.85613707737170    1.66466251515035    1.90441465033982
C        -1.36144082560376    2.67257315252061    1.08919001609372
C        -0.86110410269798    3.95885358433726    1.18167187530104
C         0.14704786337621    4.23348507094577    2.09049130819843
I         0.97948284696819    6.17656097038684    2.16349709558794
C         0.62773274723442    3.25149195576900    2.93947701890780
C         0.11674687907930    1.96923346667634    2.85055383380666
N        -1.12190705313732   -0.29560825943451    0.53238048778962
C        -0.35949390937920    0.27437905884676   -0.53887076239763
C        -1.21168726957598    0.49129121314858   -1.80675277966038
O        -2.42816456693332    0.93864812274256   -1.51187675697615
O        -0.80328654040678    0.33533235726769   -2.92103553763901
N         0.67955445769057   -0.69884545518259   -0.78355258533095
C         1.87714631917295   -0.46444302203633   -1.38164664380368
C         2.11607548347628    0.98984730234954   -1.66748013305819
C         2.41863395034141    1.84937107388524   -0.61510272754357
C         2.59766395773626    3.20128524087246   -0.84354624783413
C         2.47474758468011    3.68884618900614   -2.13287827545287
I         2.68106644789866    5.76569876323577   -2.47473456317133
C         2.21016217469412    2.84206164125726   -3.19416211777323
C         2.03517020104222    1.48874269708344   -2.95923407504347
O         2.66943997572270   -1.34540926726394   -1.62213056487159
C         0.31668354504703   -1.99164725443969   -0.21015478605977
C         1.24600886317169   -2.37751734837122    0.91545419313600
C         1.56798993775106   -3.71230303034011    1.11742615975112
C         2.38872004121804   -4.08329932103092    2.16705591699986
C         2.89652868658605   -3.12329686346289    3.02532320996001
C         2.57866679149215   -1.79065664382757    2.82997674820014
C         1.75576316742106   -1.42032467312793    1.78207702639906
C        -1.11275520060946   -1.74413684698258    0.32252577297283
C        -2.25457162253668   -2.11496060673104   -0.59413871921094
C        -2.10586703502262   -2.36450672359407   -1.95157329655708
C        -3.21591889314252   -2.63882929510068   -2.73498001433977
C        -4.48052232409789   -2.66048654871595   -2.17499203300545
C        -4.63611579690302   -2.40711602268359   -0.82162171537050
C        -3.53066383905979   -2.13609428047936   -0.03814877731303
H        -2.14702074021000    2.44826641110005    0.38366465300163
H        -1.24827151102857    4.73733054030768    0.54307956715881
H         1.39668507373880    3.47953885407162    3.66167308055251
H         0.47937842184900    1.19259216315577    3.50730646818752
H         0.05197331132795    1.25727027260316   -0.27321195965966
H        -2.95695192180342    1.06368645034384   -2.31760577341016
H         2.52268295744851    1.46148683569200    0.38866931303625
H         2.82772767626736    3.86565105786984   -0.02467817611518
H         2.13457932112651    3.22996939996387   -4.19814185125691
H         1.81581030838831    0.82104848962482   -3.77681757120099
H         0.34507022419478   -2.77032815515983   -0.97671014871743
H         1.17633806889892   -4.46229071811388    0.44591754530298
H         2.63606806115744   -5.12414981817976    2.31236819836719
H         3.54086634694481   -3.41166714367039    3.84212747044883
H         2.97413712771388   -1.03680341819461    3.49495225139349
H         1.51482095106029   -0.37649765329449    1.63581339677586
H        -1.25964904640522   -2.21872220297388    1.29841695525821
H        -1.13370484159288   -2.34409366110498   -2.41973327086034
H        -3.08573876188862   -2.83317118925575   -3.78907843594475
H        -5.34182826460893   -2.87525527274332   -2.78968840451661
H        -5.61960117418820   -2.42267971474200   -0.37652437858834
H        -3.64675532107347   -1.93295076256943    1.01616309926321

          :  Hamiltonian                  GFN2-xTB          :
         :: total energy            -105.227056406913 Eh    ::
         :: gradient norm              0.000675198262 Eh/a0 ::
         :: HOMO-LUMO gap              3.394220452531 eV    ::
         :: SCC energy              -106.770308695052 Eh    ::
         :: -> dispersion             -0.095138541220 Eh    ::
         :: repulsion energy           1.539634459266 Eh    ::

    * Orbital Energies and Occupations

         #    Occupation            Energy/Eh            Energy/eV
      -------------------------------------------------------------
         1        2.0000           -0.7897361             -21.4898
       ...           ...                  ...                  ...
        83        2.0000           -0.4360627             -11.8659
        84        2.0000           -0.4316701             -11.7463
        85        2.0000           -0.4265392             -11.6067
        86        2.0000           -0.4241084             -11.5406
        87        2.0000           -0.4208683             -11.4524
        88        2.0000           -0.4179419             -11.3728
        89        2.0000           -0.4168312             -11.3426
        90        2.0000           -0.4157348             -11.3127
        91        2.0000           -0.4148014             -11.2873
        92        2.0000           -0.4123533             -11.2207
        93        2.0000           -0.4105139             -11.1707
        94        2.0000           -0.4075604             -11.0903
        95        2.0000           -0.4058363             -11.0434 (HOMO)
        96                         -0.2811010              -7.6491 (LUMO)
        97                         -0.2781436              -7.5687
        98                         -0.2661457              -7.2422
        99                         -0.2647517              -7.2043
       100                         -0.2582751              -7.0280
       101                         -0.2469664              -6.7203
       102                         -0.2415801              -6.5737
       103                         -0.2387793              -6.4975
       104                         -0.2383473              -6.4858
       105                         -0.2356064              -6.4112
       106                         -0.2327272              -6.3328
       ...                                ...                  ...
       184                          0.6534396              17.7810
      -------------------------------------------------------------
                  HL-Gap            0.1247353 Eh            3.3942 eV

     #   Z          covCN         q      C6AA      Î±(0)
     1   8 O        0.859    -0.408    21.834     6.265
     2   6 C        2.761     0.275    22.356     7.743
     3   6 C        2.975    -0.018    28.444     8.748
     4   6 C        2.923    -0.034    28.853     8.809
     5   6 C        3.049    -0.032    28.759     8.795
     6   6 C        2.957     0.060    26.662     8.469
     7  53 I        1.221    -0.113   380.314    33.665
     8   6 C        3.047    -0.031    28.726     8.790
     9   6 C        2.927    -0.021    28.521     8.758
    10   7 N        2.771    -0.115    23.494     7.199
    11   6 C        3.785     0.091    19.094     6.224
    12   6 C        2.688     0.351    21.044     7.507
    13   8 O        1.659    -0.361    20.107     6.053
    14   8 O        0.856    -0.381    21.311     6.189
    15   7 N        2.770    -0.121    23.621     7.218
    16   6 C        2.759     0.277    22.307     7.734
    17   6 C        2.976    -0.017    28.427     8.746
    18   6 C        2.926    -0.032    28.801     8.801
    19   6 C        3.052    -0.034    28.801     8.801
    20   6 C        2.958     0.058    26.692     8.474
    21  53 I        1.224    -0.119   380.788    33.686
    22   6 C        3.047    -0.030    28.711     8.788
    23   6 C        2.924    -0.019    28.474     8.751
    24   8 O        0.859    -0.406    21.792     6.259
    25   6 C        3.826     0.040    19.885     6.345
    26   6 C        2.974     0.007    27.859     8.658
    27   6 C        2.925    -0.030    28.761     8.795
    28   6 C        2.920    -0.024    28.600     8.770
    29   6 C        2.921    -0.027    28.669     8.780
    30   6 C        2.920    -0.025    28.637     8.775
    31   6 C        2.924    -0.027    28.668     8.781
    32   6 C        3.853     0.035    19.957     6.354
    33   6 C        2.972    -0.001    28.058     8.689
    34   6 C        2.921    -0.038    28.942     8.822
    35   6 C        2.920    -0.029    28.725     8.789
    36   6 C        2.920    -0.030    28.750     8.793
    37   6 C        2.919    -0.027    28.677     8.782
    38   6 C        2.927    -0.032    28.809     8.802
    39   1 H        0.926     0.053     2.278     2.360
    40   1 H        0.926     0.058     2.226     2.333
    41   1 H        0.926     0.060     2.195     2.317
    42   1 H        0.926     0.060     2.202     2.320
    43   1 H        0.923     0.065     2.142     2.289
    44   1 H        0.804     0.346     0.597     1.214
    45   1 H        0.926     0.036     2.509     2.477
    46   1 H        0.926     0.056     2.249     2.345
    47   1 H        0.926     0.060     2.193     2.316
    48   1 H        0.926     0.067     2.117     2.275
    49   1 H        0.924     0.069     2.094     2.263
    50   1 H        0.926     0.037     2.486     2.466
    51   1 H        0.926     0.041     2.431     2.438
    52   1 H        0.926     0.040     2.452     2.449
    53   1 H        0.926     0.035     2.521     2.483
    54   1 H        0.925     0.013     2.841     2.636
    55   1 H        0.924     0.083     1.949     2.183
    56   1 H        0.926     0.040     2.442     2.444
    57   1 H        0.926     0.041     2.441     2.443
    58   1 H        0.926     0.038     2.469     2.457
    59   1 H        0.926     0.041     2.438     2.442
    60   1 H        0.926     0.049     2.331     2.388

Wiberg/Mayer (AO) data.
largest (>0.10) Wiberg bond orders for each atom

     #   Z sym  total        # sym  WBO       # sym  WBO       # sym  WBO
 ---------------------------------------------------------------------------
     1   8 O    2.033 --     2 C    1.708    10 N    0.186
     2   6 C    3.945 --     1 O    1.708    10 N    1.186     3 C    0.969
     3   6 C    3.988 --     9 C    1.400     4 C    1.393     2 C    0.969
     4   6 C    3.990 --     5 C    1.444     3 C    1.393    39 H    0.964
                             8 C    0.108
     5   6 C    3.990 --     4 C    1.444     6 C    1.416    40 H    0.968
                             9 C    0.108
     6   6 C    3.957 --     8 C    1.419     5 C    1.416     7 I    0.981
     7  53 I    1.104 --     6 C    0.981
     8   6 C    3.989 --     9 C    1.441     6 C    1.419    41 H    0.967
                             4 C    0.108
     9   6 C    3.989 --     8 C    1.441     3 C    1.400    42 H    0.965
                             5 C    0.108
    10   7 N    3.455 --     2 C    1.186    11 C    0.999    32 C    0.947
                             1 O    0.186
    11   6 C    3.977 --    10 N    0.999    15 N    0.983    43 H    0.919
                            12 C    0.912
    12   6 C    3.921 --    14 O    1.782    13 O    1.154    11 C    0.912
    13   8 O    2.219 --    12 C    1.154    44 H    0.854    14 O    0.181
    14   8 O    2.066 --    12 C    1.782    13 O    0.181
    15   7 N    3.459 --    16 C    1.203    11 C    0.983    25 C    0.956
                            24 O    0.193
    16   6 C    3.948 --    24 O    1.711    15 N    1.203    17 C    0.952
    17   6 C    3.988 --    23 C    1.412    18 C    1.396    16 C    0.952
                            20 C    0.101
    18   6 C    3.991 --    19 C    1.443    17 C    1.396    45 H    0.965
                            22 C    0.109
    19   6 C    3.990 --    18 C    1.443    20 C    1.417    46 H    0.967
                            23 C    0.109
    20   6 C    3.955 --    22 C    1.426    19 C    1.417    21 I    0.975
                            17 C    0.101
    21  53 I    1.092 --    20 C    0.975
    22   6 C    3.989 --    23 C    1.434    20 C    1.426    47 H    0.967
                            18 C    0.109
    23   6 C    3.988 --    22 C    1.434    17 C    1.412    48 H    0.965
                            19 C    0.109
    24   8 O    2.034 --    16 C    1.711    15 N    0.193
    25   6 C    3.961 --    26 C    0.987    32 C    0.959    15 N    0.956
                            49 H    0.950
    26   6 C    3.986 --    31 C    1.414    27 C    1.412    25 C    0.987
                            29 C    0.110
    27   6 C    3.990 --    28 C    1.446    26 C    1.412    50 H    0.969
                            30 C    0.112
    28   6 C    3.992 --    27 C    1.446    29 C    1.438    51 H    0.970
                            31 C    0.111
    29   6 C    3.990 --    30 C    1.439    28 C    1.438    52 H    0.971
                            26 C    0.110
    30   6 C    3.992 --    31 C    1.444    29 C    1.439    53 H    0.971
                            27 C    0.112
    31   6 C    3.992 --    30 C    1.444    26 C    1.414    54 H    0.966
                            28 C    0.111
    32   6 C    3.957 --    33 C    0.985    25 C    0.959    55 H    0.950
                            10 N    0.947
    33   6 C    3.984 --    34 C    1.421    38 C    1.403    32 C    0.985
                            36 C    0.109
    34   6 C    3.991 --    35 C    1.434    33 C    1.421    56 H    0.964
                            37 C    0.109
    35   6 C    3.992 --    36 C    1.447    34 C    1.434    57 H    0.971
                            38 C    0.113
    36   6 C    3.991 --    35 C    1.447    37 C    1.431    58 H    0.971
                            33 C    0.109
    37   6 C    3.992 --    38 C    1.454    36 C    1.431    59 H    0.970
                            34 C    0.109
    38   6 C    3.989 --    37 C    1.454    33 C    1.403    60 H    0.968
                            35 C    0.113
    39   1 H    0.997 --     4 C    0.964
    40   1 H    0.996 --     5 C    0.968
    41   1 H    0.996 --     8 C    0.967
    42   1 H    0.996 --     9 C    0.965
    43   1 H    0.996 --    11 C    0.919
    44   1 H    0.879 --    13 O    0.854
    45   1 H    0.999 --    18 C    0.965
    46   1 H    0.996 --    19 C    0.967
    47   1 H    0.996 --    22 C    0.967
    48   1 H    0.995 --    23 C    0.965
    49   1 H    0.995 --    25 C    0.950
    50   1 H    0.999 --    27 C    0.969
    51   1 H    0.998 --    28 C    0.970
    52   1 H    0.998 --    29 C    0.971
    53   1 H    0.998 --    30 C    0.971
    54   1 H    1.000 --    31 C    0.966
    55   1 H    0.992 --    32 C    0.950
    56   1 H    0.998 --    34 C    0.964
    57   1 H    0.998 --    35 C    0.971
    58   1 H    0.998 --    36 C    0.971
    59   1 H    0.998 --    37 C    0.970
    60   1 H    0.998 --    38 C    0.968
 ---------------------------------------------------------------------------

molecular dipole:
                 x           y           z       tot (Debye)
 q only:       -1.441      -0.562      -0.094
   full:       -1.799      -1.198      -0.118       5.502

           -------------------------------------------------
          | TOTAL ENERGY             -105.227056406913 Eh   |
          | GRADIENT NORM               0.000675198262 Eh/Î± |
          | HOMO-LUMO GAP               3.394220452531 eV   |
           -------------------------------------------------

 * finished run on 2022/03/16 at 22:19:38.339
