   * xtb version 6.3.3 (4ae9cef) compiled by 'conda@95abc7406d43' on 2020-10-14
          program call               : xtb acid_0.xyz --opt --chrg 0 --uhf 0 --gfn 2
          number of atoms            :                    68
          number of electrons        :                   206
          charge                     :                     0
          spin                       :                   0.0

   ID    Z sym.   atoms
    1    6 C      1, 3-16, 18, 20-22, 24-26, 28, 29, 33-35, 37-39
    2    8 O      2, 17, 27, 30, 31, 40
    3    7 N      19, 32
    4   16 S      23, 36
    5    1 H      41-68

          :  Hamiltonian                  GFN2-xTB          :
 * total energy  :  -115.2717196 Eh     change       -0.3576346E-08 Eh
 * total energy  :  -115.2849324 Eh     change       -0.1321276E-01 Eh
 * total energy  :  -115.2891580 Eh     change       -0.4225645E-02 Eh
 * total energy  :  -115.2904135 Eh     change       -0.1255444E-02 Eh
 * total energy  :  -115.2912699 Eh     change       -0.8564066E-03 Eh
 * total energy  :  -115.2918605 Eh     change       -0.5906467E-03 Eh
 * total energy  :  -115.2924111 Eh     change       -0.5505604E-03 Eh
 * total energy  :  -115.2929530 Eh     change       -0.5419315E-03 Eh
 * total energy  :  -115.2934658 Eh     change       -0.5127347E-03 Eh
 * total energy  :  -115.2938817 Eh     change       -0.4158975E-03 Eh
 * total energy  :  -115.2984950 Eh     change       -0.2212517E-04 Eh
 * total energy  :  -115.2985008 Eh     change       -0.5797595E-05 Eh
 * total energy  :  -115.2984902 Eh     change        0.1057953E-04 Eh
 * total energy  :  -115.2985033 Eh     change       -0.1304825E-04 Eh
 * total energy  :  -115.2985089 Eh     change       -0.5611739E-05 Eh
 * total energy  :  -115.2985125 Eh     change       -0.3654045E-05 Eh
 * total energy  :  -115.2985104 Eh     change        0.2108524E-05 Eh
 * total energy  :  -115.2985173 Eh     change       -0.6884797E-05 Eh
 * total energy  :  -115.2985189 Eh     change       -0.1625267E-05 Eh
   *** GEOMETRY OPTIMIZATION CONVERGED AFTER 68 ITERATIONS ***

 final structure:
================
68
 xtb: 6.3.3 (4ae9cef)
C         0.69939334838120   -1.98402072756275    3.05436868591929
O         0.01783547987558   -2.97743177548204    2.42432778924333
C        -0.53848964952188   -4.01347357857179    3.19387289703603
C         0.91974937001379   -1.91300928815149    4.42335722790012
C         1.66520818002207   -0.87189911250435    4.95421623814103
C         2.20701194383924    0.09316819204799    4.12923519068782
C         1.98204233638205    0.03072760979514    2.76222771900094
C         1.21677500719602   -0.98170488194626    2.21669578981944
C         0.91757865638519   -1.09068412577084    0.74431686804184
C        -0.59776764056113   -0.94421854983741    0.43773962675238
C        -1.17730992202272   -2.12600819154542   -0.29002815509422
C        -0.62806777715564   -2.54158348989556   -1.49076703854825
C        -1.16410892476965   -3.60924163209147   -2.18915879484199
C        -2.26836060545759   -4.26373661818581   -1.67879137337143
C        -2.83536063207210   -3.85904820819910   -0.48246497817946
C        -2.30029055473879   -2.78793919431499    0.22444953069472
O        -2.79063020586352   -2.33367215059513    1.40922404240374
C        -4.02469293847755   -2.83383954076555    1.85972824718115
N        -0.65960926636620    0.25085648792554   -0.40190208975090
C        -1.80611187202971    0.70143035386641   -0.96823481349495
C        -1.62398689078125    1.95979548691341   -1.75531434444511
C        -0.95341703573173    2.04271707475562   -2.93531761501553
S        -0.94044765963362    3.64557282440029   -3.55977445119258
C        -1.86207899432450    4.22459415495749   -2.20783416681960
C        -2.23616500891837    5.65931631056719   -2.10569026418521
C        -2.14857970311796    3.21351141091066   -1.34672479660556
O        -2.87296214434255    0.14047717930415   -0.85460732979974
C         0.58713450972081    0.96710036396830   -0.34497804135186
C         0.57617564882618    2.03318181578170    0.77410542394535
O        -0.39984703167041    1.84112514140056    1.64858440391112
O         1.35887137278798    2.94209124529067    0.83710010631283
N         1.55615418652802   -0.05679057014364   -0.05683443121761
C         2.61827779988760   -0.39471421986334   -0.85805905750360
C         3.03621156577132    0.60970392661386   -1.85999324940888
C         3.41638674809555    0.22399922497603   -3.11256611608917
S         3.84146841687479    1.55334708896296   -4.10422723893475
C         3.54242512355045    2.66958057459109   -2.80510235606159
C         3.73235140229145    4.12983324381478   -3.00152136510382
C         3.12395938911842    2.02062737331610   -1.68914757159982
O         3.17089728664424   -1.46905675338129   -0.74247155001091
H        -1.29314851706773   -3.63460021157438    3.89044500945460
H         0.22952253574234   -4.56254716590372    3.74846720065906
H        -1.01159243660739   -4.68339595667167    2.47754053760888
H         0.52273733526247   -2.66659948341259    5.08484225649854
H         1.82929843788554   -0.82966434119843    6.02067932829592
H         2.80604952221951    0.89106775635844    4.54038557727990
H         2.42360148106960    0.77272005947118    2.11409035922457
H         1.28687045168518   -2.06270946306323    0.39496043953647
H        -1.16848186146751   -0.77587681339793    1.35570990271097
H         0.23177681170918   -2.01936337708698   -1.88669438532495
H        -0.72493578263873   -3.92261989501750   -3.12374257362349
H        -2.70104885646673   -5.09670076471484   -2.21318867851179
H        -3.70167741069347   -4.38434249773158   -0.11196220468736
H        -3.96201428137659   -3.89578559996670    2.12312766025984
H        -4.81050648681559   -2.68770123264598    1.11293921686203
H        -4.26754584434331   -2.25854293800153    2.75235521985609
H        -0.47846777237724    1.25648794110237   -3.48868263559792
H        -2.79785573175890    5.97293094761459   -2.98475174861255
H        -1.34647802994436    6.28499744504392   -2.03759499492982
H        -2.84807645249899    5.82105435490216   -1.22174333276629
H        -2.72015995939494    3.34024986628610   -0.44487799579974
H         0.82025146909688    1.47901196584236   -1.28498073757654
H        -0.37264845829220    2.50460055794649    2.35738976908265
H         3.45017612429804   -0.77365487062113   -3.50161790106104
H         4.74749960955269    4.34604606429839   -3.33203757704258
H         3.04597885281880    4.50571736955613   -3.76041340503227
H         3.54431396664216    4.65284317390766   -2.06714584892617
H         2.90894096912636    2.52569363331674   -0.76554005620864

          :  Hamiltonian                  GFN2-xTB          :
         :: total energy            -115.298518925323 Eh    ::
         :: gradient norm              0.000640321986 Eh/a0 ::
         :: HOMO-LUMO gap              2.864251915719 eV    ::
         :: SCC energy              -116.848823051657 Eh    ::
         :: -> dispersion             -0.097546718207 Eh    ::
         :: repulsion energy           1.546731889111 Eh    ::

    * Orbital Energies and Occupations

         #    Occupation            Energy/Eh            Energy/eV
      -------------------------------------------------------------
         1        2.0000           -0.7741934             -21.0669
       ...           ...                  ...                  ...
        91        2.0000           -0.4228988             -11.5077
        92        2.0000           -0.4119178             -11.2089
        93        2.0000           -0.4068862             -11.0719
        94        2.0000           -0.4034767             -10.9792
        95        2.0000           -0.4021719             -10.9437
        96        2.0000           -0.4005263             -10.8989
        97        2.0000           -0.3979338             -10.8283
        98        2.0000           -0.3959573             -10.7745
        99        2.0000           -0.3919192             -10.6647
       100        2.0000           -0.3895497             -10.6002
       101        2.0000           -0.3885888             -10.5740
       102        2.0000           -0.3817290             -10.3874
       103        2.0000           -0.3726555             -10.1405 (HOMO)
       104                         -0.2673961              -7.2762 (LUMO)
       105                         -0.2571441              -6.9972
       106                         -0.2520446              -6.8585
       107                         -0.2296831              -6.2500
       108                         -0.2235891              -6.0842
       109                         -0.2217565              -6.0343
       110                         -0.2198710              -5.9830
       111                         -0.2177253              -5.9246
       112                         -0.2093390              -5.6964
       113                         -0.2034563              -5.5363
       114                         -0.2030333              -5.5248
       ...                                ...                  ...
       198                          0.6946447              18.9022
      -------------------------------------------------------------
                  HL-Gap            0.1052593 Eh            2.8643 eV

     #   Z          covCN         q      C6AA      Î±(0)
     1   6 C        2.871     0.139    24.959     8.189
     2   8 O        1.706    -0.266    18.417     5.794
     3   6 C        3.644     0.040    20.234     6.466
     4   6 C        2.917    -0.067    29.656     8.930
     5   6 C        2.921    -0.033    28.833     8.806
     6   6 C        2.918    -0.043    29.071     8.842
     7   6 C        2.922    -0.035    28.879     8.813
     8   6 C        2.972    -0.017    28.432     8.746
     9   6 C        3.838     0.040    19.879     6.343
    10   6 C        3.823     0.044    19.816     6.335
    11   6 C        2.974    -0.006    28.167     8.706
    12   6 C        2.925    -0.031    28.780     8.798
    13   6 C        2.917    -0.040    28.999     8.831
    14   6 C        2.921    -0.031    28.776     8.797
    15   6 C        2.918    -0.065    29.621     8.925
    16   6 C        2.869     0.151    24.718     8.150
    17   8 O        1.705    -0.262    18.338     5.782
    18   6 C        3.645     0.038    20.258     6.469
    19   7 N        2.769    -0.116    23.527     7.204
    20   6 C        2.757     0.275    22.358     7.743
    21   6 C        3.167    -0.037    28.549     8.731
    22   6 C        2.940    -0.031    28.779     8.798
    23  16 S        2.331    -0.025   142.084    20.062
    24   6 C        2.981     0.028    27.378     8.583
    25   6 C        3.776    -0.109    22.618     6.776
    26   6 C        3.122    -0.056    29.200     8.849
    27   8 O        0.858    -0.414    21.971     6.284
    28   6 C        3.774     0.086    19.184     6.241
    29   6 C        2.688     0.354    20.983     7.497
    30   8 O        1.659    -0.349    19.885     6.020
    31   8 O        0.856    -0.396    21.592     6.230
    32   7 N        2.763    -0.118    23.576     7.211
    33   6 C        2.764     0.272    22.412     7.753
    34   6 C        3.161    -0.038    28.601     8.742
    35   6 C        2.943    -0.016    28.404     8.741
    36  16 S        2.323    -0.015   141.694    20.034
    37   6 C        2.981     0.028    27.369     8.582
    38   6 C        3.776    -0.112    22.660     6.782
    39   6 C        3.115    -0.071    29.586     8.910
    40   8 O        0.859    -0.420    22.078     6.300
    41   1 H        0.924     0.044     2.403     2.424
    42   1 H        0.924     0.042     2.427     2.436
    43   1 H        0.925     0.062     2.179     2.308
    44   1 H        0.926     0.039     2.461     2.453
    45   1 H        0.926     0.037     2.486     2.465
    46   1 H        0.926     0.037     2.488     2.467
    47   1 H        0.926     0.037     2.489     2.467
    48   1 H        0.924     0.094     1.841     2.122
    49   1 H        0.924     0.078     1.995     2.209
    50   1 H        0.926     0.032     2.557     2.501
    51   1 H        0.926     0.037     2.494     2.470
    52   1 H        0.926     0.037     2.494     2.469
    53   1 H        0.926     0.038     2.479     2.462
    54   1 H        0.924     0.035     2.511     2.478
    55   1 H        0.924     0.049     2.337     2.391
    56   1 H        0.925     0.059     2.209     2.324
    57   1 H        0.926     0.041     2.434     2.440
    58   1 H        0.925     0.060     2.198     2.318
    59   1 H        0.925     0.059     2.215     2.328
    60   1 H        0.925     0.054     2.268     2.355
    61   1 H        0.926     0.042     2.428     2.437
    62   1 H        0.924     0.076     2.016     2.220
    63   1 H        0.804     0.343     0.606     1.223
    64   1 H        0.926     0.058     2.219     2.329
    65   1 H        0.925     0.059     2.212     2.326
    66   1 H        0.925     0.059     2.210     2.325
    67   1 H        0.925     0.058     2.219     2.329
    68   1 H        0.926     0.060     2.203     2.321

Wiberg/Mayer (AO) data.
largest (>0.10) Wiberg bond orders for each atom

     #   Z sym  total        # sym  WBO       # sym  WBO       # sym  WBO
 ---------------------------------------------------------------------------
     1   6 C    3.935 --     4 C    1.387     8 C    1.310     2 O    1.068
     2   8 O    2.243 --     1 C    1.068     3 C    0.983
     3   6 C    3.944 --     2 O    0.983    43 H    0.979    41 H    0.976
                            42 H    0.976
     4   6 C    3.987 --     5 C    1.427     1 C    1.387    44 H    0.966
     5   6 C    3.991 --     6 C    1.452     4 C    1.427    45 H    0.971
                             8 C    0.106
     6   6 C    3.991 --     5 C    1.452     7 C    1.414    46 H    0.971
     7   6 C    3.989 --     8 C    1.449     6 C    1.414    47 H    0.965
     8   6 C    3.983 --     7 C    1.449     1 C    1.310     9 C    0.994
                             5 C    0.106
     9   6 C    3.959 --     8 C    0.994    32 N    0.966    10 C    0.949
                            48 H    0.937
    10   6 C    3.958 --    11 C    0.993    49 H    0.951     9 C    0.949
                            19 N    0.948
    11   6 C    3.984 --    12 C    1.438    16 C    1.324    10 C    0.993
                            14 C    0.107
    12   6 C    3.991 --    11 C    1.438    13 C    1.427    50 H    0.968
                            15 C    0.102
    13   6 C    3.991 --    14 C    1.442    12 C    1.427    51 H    0.971
    14   6 C    3.990 --    13 C    1.442    15 C    1.437    52 H    0.971
                            11 C    0.107
    15   6 C    3.987 --    14 C    1.437    16 C    1.378    53 H    0.966
                            12 C    0.102
    16   6 C    3.936 --    15 C    1.378    11 C    1.324    17 O    1.066
    17   8 O    2.240 --    16 C    1.066    18 C    0.985
    18   6 C    3.946 --    17 O    0.985    56 H    0.980    55 H    0.976
                            54 H    0.976
    19   7 N    3.469 --    20 C    1.213    28 C    0.987    10 C    0.948
                            27 O    0.193
    20   6 C    3.949 --    27 O    1.697    19 N    1.213    21 C    0.951
    21   6 C    3.983 --    22 C    1.595    26 C    1.235    20 C    0.951
    22   6 C    3.947 --    21 C    1.595    23 S    1.183    57 H    0.970
                            24 C    0.111
    23  16 S    2.607 --    22 C    1.183    24 C    1.160
    24   6 C    3.953 --    26 C    1.609    23 S    1.160    25 C    1.039
                            22 C    0.111
    25   6 C    3.994 --    24 C    1.039    60 H    0.980    58 H    0.970
                            59 H    0.968
    26   6 C    3.983 --    24 C    1.609    21 C    1.235    61 H    0.964
    27   8 O    2.028 --    20 C    1.697    19 N    0.193
    28   6 C    3.972 --    32 N    0.987    19 N    0.987    62 H    0.931
                            29 C    0.908
    29   6 C    3.916 --    31 O    1.763    30 O    1.171    28 C    0.908
    30   8 O    2.237 --    29 C    1.171    63 H    0.856    31 O    0.183
    31   8 O    2.052 --    29 C    1.763    30 O    0.183
    32   7 N    3.444 --    33 C    1.168    28 C    0.987     9 C    0.966
                            40 O    0.177
    33   6 C    3.945 --    40 O    1.690    32 N    1.168    34 C    0.997
    34   6 C    3.982 --    35 C    1.568    39 C    1.220    33 C    0.997
    35   6 C    3.951 --    34 C    1.568    36 S    1.211    64 H    0.969
                            37 C    0.104
    36  16 S    2.622 --    35 C    1.211    37 C    1.149
    37   6 C    3.952 --    39 C    1.621    36 S    1.149    38 C    1.040
                            35 C    0.104
    38   6 C    3.994 --    37 C    1.040    67 H    0.979    65 H    0.970
                            66 H    0.968
    39   6 C    3.983 --    37 C    1.621    34 C    1.220    68 H    0.955
    40   8 O    2.022 --    33 C    1.690    32 N    0.177
    41   1 H    0.998 --     3 C    0.976
    42   1 H    0.998 --     3 C    0.976
    43   1 H    0.996 --     3 C    0.979
    44   1 H    0.998 --     4 C    0.966
    45   1 H    0.998 --     5 C    0.971
    46   1 H    0.998 --     6 C    0.971
    47   1 H    0.998 --     7 C    0.965
    48   1 H    0.991 --     9 C    0.937
    49   1 H    0.993 --    10 C    0.951
    50   1 H    0.998 --    12 C    0.968
    51   1 H    0.998 --    13 C    0.971
    52   1 H    0.998 --    14 C    0.971
    53   1 H    0.998 --    15 C    0.966
    54   1 H    0.999 --    18 C    0.976
    55   1 H    0.998 --    18 C    0.976
    56   1 H    0.996 --    18 C    0.980
    57   1 H    0.998 --    22 C    0.970
    58   1 H    0.996 --    25 C    0.970
    59   1 H    0.996 --    25 C    0.968
    60   1 H    0.997 --    25 C    0.980
    61   1 H    0.998 --    26 C    0.964
    62   1 H    0.994 --    28 C    0.931
    63   1 H    0.882 --    30 O    0.856
    64   1 H    0.996 --    35 C    0.969
    65   1 H    0.996 --    38 C    0.970
    66   1 H    0.996 --    38 C    0.968
    67   1 H    0.996 --    38 C    0.979
    68   1 H    0.996 --    39 C    0.955
 ---------------------------------------------------------------------------

molecular dipole:
                 x           y           z       tot (Debye)
 q only:       -0.796       0.841       0.877
   full:       -1.107       0.762       1.413       4.955

           -------------------------------------------------
          | TOTAL ENERGY             -115.298518925323 Eh   |
          | GRADIENT NORM               0.000640321986 Eh/Î± |
          | HOMO-LUMO GAP               2.864251915719 eV   |
           -------------------------------------------------

 * finished run on 2022/03/16 at 21:17:37.965
