   * xtb version 6.3.3 (4ae9cef) compiled by 'conda@95abc7406d43' on 2020-10-14
          program call               : xtb acid_289.xyz --opt --chrg 0 --uhf 0 --gfn 2
          number of atoms            :                    68
          number of electrons        :                   214
          charge                     :                     0
          spin                       :                   0.0

   ID    Z sym.   atoms
    1    6 C      1, 3-16, 18, 20-24, 26, 27, 29, 30, 34-38, 40, 41
    2    8 O      2, 17, 28, 31, 32, 42
    3    7 N      19, 33
    4   53 I      25, 39
    5    1 H      43-68

          :  Hamiltonian                  GFN2-xTB          :
 * total energy  :  -119.6634858 Eh     change       -0.1713360E-08 Eh
 * total energy  :  -119.6798705 Eh     change       -0.1638466E-01 Eh
 * total energy  :  -119.6847447 Eh     change       -0.4874267E-02 Eh
 * total energy  :  -119.6864441 Eh     change       -0.1699376E-02 Eh
 * total energy  :  -119.6874982 Eh     change       -0.1054064E-02 Eh
 * total energy  :  -119.6881609 Eh     change       -0.6627573E-03 Eh
 * total energy  :  -119.6887017 Eh     change       -0.5407482E-03 Eh
 * total energy  :  -119.6892584 Eh     change       -0.5567543E-03 Eh
 * total energy  :  -119.6898954 Eh     change       -0.6369099E-03 Eh
 * total energy  :  -119.6904919 Eh     change       -0.5965141E-03 Eh
 * total energy  :  -119.7046167 Eh     change       -0.1822409E-04 Eh
 * total energy  :  -119.7046364 Eh     change       -0.1975533E-04 Eh
 * total energy  :  -119.7046567 Eh     change       -0.2024650E-04 Eh
 * total energy  :  -119.7046751 Eh     change       -0.1846369E-04 Eh
 * total energy  :  -119.7046889 Eh     change       -0.1373158E-04 Eh
 * total energy  :  -119.7046985 Eh     change       -0.9631712E-05 Eh
 * total energy  :  -119.7047061 Eh     change       -0.7608868E-05 Eh
 * total energy  :  -119.7047123 Eh     change       -0.6194008E-05 Eh
 * total energy  :  -119.7047167 Eh     change       -0.4367894E-05 Eh
   *** GEOMETRY OPTIMIZATION CONVERGED AFTER 84 ITERATIONS ***

 final structure:
================
68
 xtb: 6.3.3 (4ae9cef)
C         1.88013087432932   -1.15709766353215    1.07418662347020
O         1.71908791224622    0.09141753681618    1.59704681340015
C         2.38364623323237    0.41260786056820    2.79624027960229
C         2.72092258682495   -2.12791780590365    1.60295116293002
C         2.81685268567523   -3.37203529177280    1.00330691838534
C         2.07210302051661   -3.66583615844491   -0.12234015898251
C         1.24092226859116   -2.69831737054835   -0.65837491908178
C         1.14704710246089   -1.44024729037215   -0.08769811262014
C         0.18970115720542   -0.43567918308517   -0.66135245737165
C        -1.03360275841226   -0.26834544049015    0.26892253973246
C        -2.13762942063587   -1.21554757623844   -0.11410845392497
C        -3.03746168397259   -0.90866313288338   -1.11945620367732
C        -4.03630915210065   -1.80343264748653   -1.46456145159659
C        -4.12533554325362   -3.01392151561474   -0.80460343324005
C        -3.21979519508284   -3.34408152385835    0.19045953240500
C        -2.21602611672462   -2.45135993146659    0.54274801097208
O        -1.26335730270034   -2.68886206498140    1.49294234415072
C        -1.30296671357361   -3.90672426185198    2.19518386573252
N        -1.38770729830565    1.13368091418970    0.13120619471636
C        -2.47338639166204    1.65242205292949    0.76124975190965
C        -2.68289061193058    3.11856850055312    0.52864627572218
C        -1.93614581836195    4.06466766656070    1.21935303519742
C        -2.15791459947795    5.41517489612478    1.01458356436888
C        -3.13052666277107    5.80994665161127    0.11437694878975
I        -3.45934446630200    7.87301396805740   -0.21229647565247
C        -3.89402767005823    4.88112784924557   -0.56852884792046
C        -3.67274957308673    3.53289645502554   -0.35281381331267
O        -3.21127957823469    0.97871158608140    1.44495053336196
C        -0.39586690760630    1.87668192917000   -0.58845923961453
C        -0.92717679012639    2.44451145807744   -1.93889155229323
O        -0.10069061975871    3.28512984305599   -2.52500909504669
O        -1.99231522923419    2.13071115271753   -2.38689443869152
N         0.67860827387400    0.92522097289442   -0.83136235108356
C         1.90751922279990    1.39853356441163   -1.09905737834729
C         3.02053972224191    0.42445383030173   -1.22087961131461
C         4.13138228626779    0.58758732047553   -0.40179260098453
C         5.15875178839489   -0.33636861343626   -0.42954870858223
C         5.08222722555861   -1.40243865297951   -1.30764796013389
I         6.59720576611206   -2.87234347598533   -1.29015475687341
C         4.02387972990191   -1.52995954986034   -2.18893675312308
C         2.98900836684202   -0.61503677609703   -2.14173239025265
O         2.09295388769251    2.60967960890818   -1.22779506560378
H         2.07373211274800   -0.24508084265112    3.61367539479976
H         2.09231589672227    1.43580262437094    3.02835500703186
H         3.47069298380579    0.36416426075747    2.67996994779050
H         3.30237951159677   -1.92687507819479    2.48832636775336
H         3.47707845468140   -4.11328249613092    1.42734525454232
H         2.13764059000172   -4.63955583133471   -0.58171087648268
H         0.65133982937089   -2.92062592172091   -1.53578497920808
H        -0.16650228415776   -0.79334856282568   -1.63888358707736
H        -0.74966242531944   -0.46636658106071    1.30904957205882
H        -2.96037161574615    0.04108679834579   -1.62807612526277
H        -4.74061497007474   -1.55227217782045   -2.24207236500804
H        -4.90413744330604   -3.71654228965974   -1.06130657502526
H        -3.30893709981906   -4.29724064908039    0.68696325489183
H        -2.23732636876988   -4.02054998754511    2.75301149472933
H        -1.16944235248170   -4.76058161193526    1.52346506808621
H        -0.46760631750785   -3.86852644639131    2.89283404560177
H        -1.18813328881919    3.75007528433541    1.93339927488001
H        -1.57732030470958    6.14826474791820    1.55325167627739
H        -4.65574227446229    5.19964238258725   -1.26287144599662
H        -4.26052843615556    2.79757610214430   -0.87877357963687
H         0.00273076070418    2.72195545932844   -0.00121822549565
H         0.78530697925626    3.32072713502440   -2.06958089049389
H         4.17297661823668    1.43069414582798    0.27071161217302
H         6.00709804373616   -0.22714896448573    0.22849549614938
H         3.99457922238537   -2.34379882011248   -2.89622659587659
H         2.16047017064471   -0.71072337063575   -2.82640638670739

          :  Hamiltonian                  GFN2-xTB          :
         :: total energy            -119.704716673482 Eh    ::
         :: gradient norm              0.000323445776 Eh/a0 ::
         :: HOMO-LUMO gap              2.742637180305 eV    ::
         :: SCC energy              -121.342141076810 Eh    ::
         :: -> dispersion             -0.108096911088 Eh    ::
         :: repulsion energy           1.633947269990 Eh    ::

    * Orbital Energies and Occupations

         #    Occupation            Energy/Eh            Energy/eV
      -------------------------------------------------------------
         1        2.0000           -0.7615572             -20.7230
       ...           ...                  ...                  ...
        95        2.0000           -0.4323775             -11.7656
        96        2.0000           -0.4297323             -11.6936
        97        2.0000           -0.4282117             -11.6522
        98        2.0000           -0.4255572             -11.5800
        99        2.0000           -0.4229734             -11.5097
       100        2.0000           -0.4179055             -11.3718
       101        2.0000           -0.4120513             -11.2125
       102        2.0000           -0.4089755             -11.1288
       103        2.0000           -0.4072495             -11.0818
       104        2.0000           -0.4020892             -10.9414
       105        2.0000           -0.4017856             -10.9331
       106        2.0000           -0.3982808             -10.8378
       107        2.0000           -0.3861654             -10.5081 (HOMO)
       108                         -0.2853753              -7.7655 (LUMO)
       109                         -0.2690873              -7.3222
       110                         -0.2599295              -7.0730
       111                         -0.2550802              -6.9411
       112                         -0.2514708              -6.8429
       113                         -0.2486643              -6.7665
       114                         -0.2427858              -6.6065
       115                         -0.2420858              -6.5875
       116                         -0.2374028              -6.4601
       117                         -0.2318453              -6.3088
       118                         -0.2255095              -6.1364
       ...                                ...                  ...
       204                          0.6614806              17.9998
      -------------------------------------------------------------
                  HL-Gap            0.1007901 Eh            2.7426 eV

     #   Z          covCN         q      C6AA      Î±(0)
     1   6 C        2.867     0.141    24.929     8.184
     2   8 O        1.705    -0.277    18.598     5.823
     3   6 C        3.643     0.040    20.240     6.467
     4   6 C        2.918    -0.066    29.637     8.927
     5   6 C        2.921    -0.030    28.743     8.792
     6   6 C        2.917    -0.039    28.965     8.825
     7   6 C        2.926    -0.033    28.832     8.806
     8   6 C        2.972    -0.020    28.494     8.756
     9   6 C        3.822     0.046    19.788     6.330
    10   6 C        3.828     0.051    19.704     6.316
    11   6 C        2.974    -0.014    28.348     8.734
    12   6 C        2.922    -0.033    28.815     8.803
    13   6 C        2.918    -0.038    28.935     8.821
    14   6 C        2.921    -0.030    28.757     8.794
    15   6 C        2.918    -0.065    29.608     8.923
    16   6 C        2.868     0.140    24.953     8.188
    17   8 O        1.705    -0.281    18.662     5.833
    18   6 C        3.643     0.039    20.256     6.470
    19   7 N        2.761    -0.108    23.362     7.179
    20   6 C        2.763     0.275    22.350     7.742
    21   6 C        2.975    -0.018    28.455     8.750
    22   6 C        2.925    -0.031    28.782     8.798
    23   6 C        3.053    -0.033    28.763     8.796
    24   6 C        2.959     0.060    26.651     8.468
    25  53 I        1.227    -0.125   381.194    33.704
    26   6 C        3.049    -0.028    28.640     8.777
    27   6 C        2.927    -0.016    28.415     8.742
    28   8 O        0.859    -0.411    21.896     6.274
    29   6 C        3.767     0.078    19.317     6.264
    30   6 C        2.685     0.349    21.081     7.514
    31   8 O        1.655    -0.365    20.188     6.065
    32   8 O        0.856    -0.366    21.021     6.147
    33   7 N        2.759    -0.096    23.118     7.141
    34   6 C        2.770     0.272    22.405     7.752
    35   6 C        2.976    -0.006    28.175     8.707
    36   6 C        2.929    -0.017    28.438     8.745
    37   6 C        3.053    -0.032    28.737     8.792
    38   6 C        2.959     0.061    26.638     8.466
    39  53 I        1.232    -0.115   380.464    33.671
    40   6 C        3.055    -0.030    28.700     8.786
    41   6 C        2.925    -0.025    28.639     8.776
    42   8 O        0.860    -0.468    23.076     6.441
    43   1 H        0.924     0.047     2.355     2.400
    44   1 H        0.925     0.064     2.152     2.294
    45   1 H        0.924     0.041     2.431     2.438
    46   1 H        0.926     0.044     2.396     2.420
    47   1 H        0.926     0.048     2.343     2.394
    48   1 H        0.926     0.046     2.370     2.407
    49   1 H        0.926     0.040     2.452     2.449
    50   1 H        0.923     0.052     2.295     2.369
    51   1 H        0.924     0.077     2.009     2.217
    52   1 H        0.926     0.060     2.200     2.319
    53   1 H        0.926     0.043     2.404     2.424
    54   1 H        0.926     0.041     2.441     2.443
    55   1 H        0.926     0.040     2.447     2.446
    56   1 H        0.924     0.048     2.348     2.396
    57   1 H        0.924     0.040     2.446     2.446
    58   1 H        0.925     0.058     2.219     2.330
    59   1 H        0.926     0.038     2.480     2.463
    60   1 H        0.926     0.055     2.258     2.350
    61   1 H        0.926     0.061     2.186     2.312
    62   1 H        0.926     0.064     2.150     2.293
    63   1 H        0.923     0.066     2.128     2.281
    64   1 H        0.800     0.365     0.555     1.170
    65   1 H        0.926     0.059     2.206     2.322
    66   1 H        0.926     0.059     2.214     2.327
    67   1 H        0.926     0.060     2.202     2.321
    68   1 H        0.926     0.047     2.358     2.401

Wiberg/Mayer (AO) data.
largest (>0.10) Wiberg bond orders for each atom

     #   Z sym  total        # sym  WBO       # sym  WBO       # sym  WBO
 ---------------------------------------------------------------------------
     1   6 C    3.935 --     4 C    1.382     8 C    1.321     2 O    1.061
     2   8 O    2.229 --     1 C    1.061     3 C    0.980
     3   6 C    3.942 --     2 O    0.980    44 H    0.979    43 H    0.977
                            45 H    0.976
     4   6 C    3.987 --     5 C    1.435     1 C    1.382    46 H    0.965
                             7 C    0.102
     5   6 C    3.989 --     6 C    1.442     4 C    1.435    47 H    0.970
                             8 C    0.106
     6   6 C    3.991 --     5 C    1.442     7 C    1.428    48 H    0.970
     7   6 C    3.988 --     8 C    1.431     6 C    1.428    49 H    0.967
                             4 C    0.102
     8   6 C    3.981 --     7 C    1.431     1 C    1.321     9 C    0.998
                             5 C    0.106
     9   6 C    3.962 --     8 C    0.998    33 N    0.956    50 H    0.951
                            10 C    0.945
    10   6 C    3.961 --    11 C    0.991    19 N    0.958    51 H    0.947
                             9 C    0.945
    11   6 C    3.981 --    12 C    1.438    16 C    1.326    10 C    0.991
                            14 C    0.106
    12   6 C    3.987 --    11 C    1.438    13 C    1.425    52 H    0.962
                            15 C    0.104
    13   6 C    3.991 --    14 C    1.446    12 C    1.425    53 H    0.970
    14   6 C    3.990 --    13 C    1.446    15 C    1.433    54 H    0.971
                            11 C    0.106
    15   6 C    3.987 --    14 C    1.433    16 C    1.384    55 H    0.965
                            12 C    0.104
    16   6 C    3.932 --    15 C    1.384    11 C    1.326    17 O    1.053
    17   8 O    2.222 --    16 C    1.053    18 C    0.983
    18   6 C    3.945 --    17 O    0.983    58 H    0.980    57 H    0.977
                            56 H    0.976
    19   7 N    3.468 --    20 C    1.205    29 C    1.000    10 C    0.958
                            28 O    0.193
    20   6 C    3.947 --    28 O    1.703    19 N    1.205    21 C    0.953
    21   6 C    3.988 --    22 C    1.407    27 C    1.405    20 C    0.953
                            24 C    0.101
    22   6 C    3.991 --    23 C    1.438    21 C    1.407    59 H    0.967
                            26 C    0.109
    23   6 C    3.990 --    22 C    1.438    24 C    1.422    60 H    0.968
                            27 C    0.110
    24   6 C    3.954 --    26 C    1.424    23 C    1.422    25 I    0.969
                            21 C    0.101
    25  53 I    1.083 --    24 C    0.969
    26   6 C    3.989 --    27 C    1.438    24 C    1.424    61 H    0.967
                            22 C    0.109
    27   6 C    3.988 --    26 C    1.438    21 C    1.405    62 H    0.965
                            23 C    0.110
    28   8 O    2.030 --    20 C    1.703    19 N    0.193
    29   6 C    3.960 --    19 N    1.000    33 N    0.967    63 H    0.936
                            30 C    0.891
    30   6 C    3.931 --    32 O    1.776    31 O    1.203    29 C    0.891
    31   8 O    2.239 --    30 C    1.203    64 H    0.775    32 O    0.183
    32   8 O    2.079 --    30 C    1.776    31 O    0.183
    33   7 N    3.514 --    34 C    1.276    29 C    0.967     9 C    0.956
                            42 O    0.188
    34   6 C    3.944 --    42 O    1.581    33 N    1.276    35 C    0.984
    35   6 C    3.988 --    36 C    1.397    41 C    1.395    34 C    0.984
    36   6 C    3.988 --    37 C    1.442    35 C    1.397    65 H    0.965
                            40 C    0.107
    37   6 C    3.989 --    36 C    1.442    38 C    1.420    66 H    0.968
                            41 C    0.108
    38   6 C    3.955 --    37 C    1.420    40 C    1.419    39 I    0.975
    39  53 I    1.091 --    38 C    0.975
    40   6 C    3.989 --    41 C    1.443    38 C    1.419    67 H    0.967
                            36 C    0.107
    41   6 C    3.990 --    40 C    1.443    35 C    1.395    68 H    0.967
                            37 C    0.108
    42   8 O    1.991 --    34 C    1.581    33 N    0.188
    43   1 H    0.998 --     3 C    0.977
    44   1 H    0.995 --     3 C    0.979
    45   1 H    0.998 --     3 C    0.976
    46   1 H    0.998 --     4 C    0.965
    47   1 H    0.997 --     5 C    0.970
    48   1 H    0.997 --     6 C    0.970
    49   1 H    0.998 --     7 C    0.967
    50   1 H    0.997 --     9 C    0.951
    51   1 H    0.994 --    10 C    0.947
    52   1 H    0.996 --    12 C    0.962
    53   1 H    0.998 --    13 C    0.970
    54   1 H    0.998 --    14 C    0.971
    55   1 H    0.998 --    15 C    0.965
    56   1 H    0.998 --    18 C    0.976
    57   1 H    0.998 --    18 C    0.977
    58   1 H    0.996 --    18 C    0.980
    59   1 H    0.999 --    22 C    0.967
    60   1 H    0.996 --    23 C    0.968
    61   1 H    0.996 --    26 C    0.967
    62   1 H    0.996 --    27 C    0.965
    63   1 H    0.995 --    29 C    0.936
    64   1 H    0.866 --    31 O    0.775
    65   1 H    0.996 --    36 C    0.965
    66   1 H    0.996 --    37 C    0.968
    67   1 H    0.996 --    40 C    0.967
    68   1 H    0.998 --    41 C    0.967
 ---------------------------------------------------------------------------

molecular dipole:
                 x           y           z       tot (Debye)
 q only:        1.499      -2.280       0.932
   full:        1.531      -2.578       1.299       8.306

           -------------------------------------------------
          | TOTAL ENERGY             -119.704716673482 Eh   |
          | GRADIENT NORM               0.000323445776 Eh/Î± |
          | HOMO-LUMO GAP               2.742637180305 eV   |
           -------------------------------------------------

 * finished run on 2022/03/16 at 23:25:30.782
