   * xtb version 6.3.3 (4ae9cef) compiled by 'conda@95abc7406d43' on 2020-10-14
          program call               : xtb acid_438.xyz --opt --chrg 0 --uhf 0 --gfn 2
          number of atoms            :                    72
          number of electrons        :                   238
          charge                     :                     0
          spin                       :                   0.0

   ID    Z sym.   atoms
    1    6 C      1, 2, 6-15, 19-22, 24-31, 33, 34, 38-45
    2    9 F      3-5, 16-18
    3    7 N      23, 37
    4    8 O      32, 35, 36, 46
    5    1 H      47-72

          :  Hamiltonian                  GFN2-xTB          :
 * total energy  :  -136.6174724 Eh     change       -0.1611539E-08 Eh
 * total energy  :  -136.6329134 Eh     change       -0.1544106E-01 Eh
 * total energy  :  -136.6369018 Eh     change       -0.3988392E-02 Eh
 * total energy  :  -136.6379555 Eh     change       -0.1053631E-02 Eh
 * total energy  :  -136.6386459 Eh     change       -0.6904646E-03 Eh
 * total energy  :  -136.6390353 Eh     change       -0.3893537E-03 Eh
 * total energy  :  -136.6393718 Eh     change       -0.3364737E-03 Eh
 * total energy  :  -136.6397323 Eh     change       -0.3605530E-03 Eh
 * total energy  :  -136.6401087 Eh     change       -0.3764212E-03 Eh
 * total energy  :  -136.6404445 Eh     change       -0.3358047E-03 Eh
 * total energy  :  -136.6419662 Eh     change       -0.3913972E-04 Eh
 * total energy  :  -136.6420013 Eh     change       -0.3509091E-04 Eh
 * total energy  :  -136.6420216 Eh     change       -0.2032133E-04 Eh
 * total energy  :  -136.6420417 Eh     change       -0.2005193E-04 Eh
 * total energy  :  -136.6420530 Eh     change       -0.1126548E-04 Eh
 * total energy  :  -136.6420612 Eh     change       -0.8269550E-05 Eh
 * total energy  :  -136.6420698 Eh     change       -0.8610627E-05 Eh
 * total energy  :  -136.6420767 Eh     change       -0.6899637E-05 Eh
 * total energy  :  -136.6420813 Eh     change       -0.4525485E-05 Eh
   *** GEOMETRY OPTIMIZATION CONVERGED AFTER 40 ITERATIONS ***

 final structure:
================
72
 xtb: 6.3.3 (4ae9cef)
C        -1.64494121552300   -3.97910899472464   -0.88742740228259
C        -1.90092707372897   -4.26771546974297    0.56780802772650
F        -2.49623352954161   -5.45075723398644    0.76518805706975
F        -0.74967066266026   -4.31988422908342    1.27971122095035
F        -2.67008425413018   -3.36525661203685    1.19515252066199
C        -2.03482495099685   -4.93493332428648   -1.81721883584275
C        -1.76027015765578   -4.75976264019889   -3.16031833771691
C        -1.07023782923178   -3.63587607736056   -3.57477052633320
C        -0.68452919773059   -2.68291668386200   -2.65083068562872
C        -0.97684649670928   -2.82264269834146   -1.29924979539456
C        -0.56018666806886   -1.74669497815904   -0.33041703903442
C         0.97469354547069   -1.60662290894306   -0.16947683048480
C         1.48536353882873   -2.37429815728761    1.02065729042026
C         2.25163205385483   -3.53377281814794    0.90736389788850
C         2.60906758282737   -4.09983458493404   -0.43780760651932
F         3.32433820969777   -3.26611222448129   -1.21088508752571
F         3.32119577077623   -5.22984404716334   -0.36092456545804
F         1.51062738471892   -4.41454884821678   -1.16788554795439
C         2.67773881946942   -4.20888972749537    2.04470902161545
C         2.34446452794424   -3.73912526025979    3.29998489249526
C         1.57582149589929   -2.59518381377203    3.42310338915287
C         1.14936588656213   -1.92652674819208    2.29319806990392
N         1.13969230553775   -0.16936467530817    0.02114918411956
C         2.31504945054921    0.38808295072895    0.45723888710966
C         2.28830614348928    1.87535989422685    0.54759351162268
C         1.31223644575953    2.53708674011064    1.28521736776409
C         1.30792589869871    3.91846101277155    1.35088502467886
C         2.27372093318877    4.66449623603698    0.68764389620324
C         2.26196635498762    6.16147310053830    0.72999678180527
C         3.26232018261535    3.99235299453706   -0.02386257221936
C         3.27844403017372    2.61313356350946   -0.08913182315536
O         3.25755106314714   -0.29306326365517    0.78936061724875
C         0.13123090071618    0.50014963866863   -0.75610580672836
C         0.63587937751096    0.76990733370620   -2.20499847885712
O        -0.27103887343934    0.54594360634444   -3.15657269765476
O         1.73517175110867    1.17224191796596   -2.43121741636544
N        -0.99587015235779   -0.40093125568609   -0.74363861820393
C        -2.30463609314356   -0.04720608866630   -0.46602921728461
C        -2.58455354055408    1.40258903401631   -0.27013686358648
C        -2.23600158644741    2.42158301640392   -1.15143156097919
C        -2.50732031337521    3.73916629097774   -0.82993976359966
C        -3.12492969044560    4.07546458067928    0.36834345117444
C        -3.41263365745398    5.50336226158973    0.70960345685755
C        -3.49915773342791    3.05032398094589    1.23026832260820
C        -3.24263506466645    1.73163434199859    0.91368254684747
O        -3.14844661066571   -0.90570602538983   -0.34571234462268
H        -2.55060285449608   -5.82204177822790   -1.48484403458298
H        -2.07048812175311   -5.50687952750046   -3.87357513343540
H        -0.82501697448470   -3.49838893385304   -4.61661485056260
H        -0.12375882637007   -1.82824246062131   -2.99357506829580
H        -1.00816470491934   -1.93728568661823    0.64942694370504
H         1.47688025112690   -1.91315162300292   -1.09414013962464
H         3.27124156937236   -5.10379284512136    1.94183544667185
H         2.68218681944421   -4.26787405077694    4.17737324806731
H         1.30648910039569   -2.22368817189777    4.40003551514581
H         0.55382125524478   -1.03128113008460    2.39410266182752
H         0.56490925005529    1.97384927777122    1.82848906831722
H         0.54262232442370    4.42066171146432    1.92572113029819
H         2.07505279625550    6.56290587438538   -0.26563004441873
H         3.22702980414722    6.53988116613687    1.06264001326301
H         1.49113672076253    6.52886733693771    1.40266592434005
H         4.02730896077027    4.56050057998252   -0.53249999332326
H         4.04229424605326    2.09436099276788   -0.64580115602546
H        -0.11762754810764    1.48102014596850   -0.32936696514610
H        -1.07762536686884    0.13492201515131   -2.79207614529383
H        -1.77601019626480    2.20451564133408   -2.10354340803537
H        -2.22886369875555    4.51878154402854   -1.52369260468625
H        -2.72682209148620    6.17241087150332    0.19575238871431
H        -3.33678650056084    5.66868783592821    1.78189677176639
H        -4.42747655269176    5.75861129458550    0.40342066698772
H        -3.99832064022392    3.28856596359343    2.15810455407962
H        -3.54123332263441    0.93784884979325    1.58202519775414

          :  Hamiltonian                  GFN2-xTB          :
         :: total energy            -136.642081255750 Eh    ::
         :: gradient norm              0.000562038472 Eh/a0 ::
         :: HOMO-LUMO gap              3.435322807469 eV    ::
         :: SCC energy              -138.350709682773 Eh    ::
         :: -> dispersion             -0.102491472688 Eh    ::
         :: repulsion energy           1.704620181886 Eh    ::

    * Orbital Energies and Occupations

         #    Occupation            Energy/Eh            Energy/eV
      -------------------------------------------------------------
         1        2.0000           -0.8778238             -23.8868
       ...           ...                  ...                  ...
       107        2.0000           -0.4424931             -12.0408
       108        2.0000           -0.4387424             -11.9388
       109        2.0000           -0.4360406             -11.8653
       110        2.0000           -0.4345930             -11.8259
       111        2.0000           -0.4325994             -11.7716
       112        2.0000           -0.4318892             -11.7523
       113        2.0000           -0.4273404             -11.6285
       114        2.0000           -0.4211137             -11.4591
       115        2.0000           -0.4188193             -11.3967
       116        2.0000           -0.4170685             -11.3490
       117        2.0000           -0.4121676             -11.2156
       118        2.0000           -0.4029171             -10.9639
       119        2.0000           -0.3992593             -10.8644 (HOMO)
       120                         -0.2730135              -7.4291 (LUMO)
       121                         -0.2693515              -7.3294
       122                         -0.2678031              -7.2873
       123                         -0.2615046              -7.1159
       124                         -0.2582660              -7.0278
       125                         -0.2527368              -6.8773
       126                         -0.2500167              -6.8033
       127                         -0.2494427              -6.7877
       128                         -0.2349114              -6.3923
       129                         -0.2246371              -6.1127
       130                         -0.2073411              -5.6420
       ...                                ...                  ...
       210                          0.6614323              17.9985
      -------------------------------------------------------------
                  HL-Gap            0.1262458 Eh            3.4353 eV

     #   Z          covCN         q      C6AA      Î±(0)
     1   6 C        2.976    -0.022    28.544     8.764
     2   6 C        3.335     0.486    17.295     6.587
     3   9 F        0.792    -0.201    11.241     3.960
     4   9 F        0.791    -0.224    11.486     4.003
     5   9 F        0.791    -0.199    11.225     3.958
     6   6 C        2.924    -0.019    28.475     8.751
     7   6 C        2.920    -0.020    28.501     8.755
     8   6 C        2.919    -0.017    28.428     8.743
     9   6 C        2.927    -0.032    28.793     8.800
    10   6 C        2.968     0.018    27.610     8.619
    11   6 C        3.829     0.047    19.761     6.325
    12   6 C        3.834     0.050    19.706     6.316
    13   6 C        2.972     0.027    27.397     8.586
    14   6 C        2.977    -0.023    28.581     8.769
    15   6 C        3.336     0.486    17.289     6.586
    16   9 F        0.791    -0.203    11.267     3.965
    17   9 F        0.792    -0.200    11.231     3.959
    18   9 F        0.791    -0.226    11.510     4.008
    19   6 C        2.923    -0.018    28.456     8.748
    20   6 C        2.921    -0.019    28.490     8.753
    21   6 C        2.919    -0.015    28.377     8.736
    22   6 C        2.928    -0.019    28.479     8.752
    23   7 N        2.766    -0.131    23.827     7.250
    24   6 C        2.760     0.279    22.275     7.729
    25   6 C        2.977    -0.020    28.506     8.758
    26   6 C        2.920    -0.037    28.909     8.817
    27   6 C        2.924    -0.040    28.999     8.831
    28   6 C        2.966     0.023    27.493     8.601
    29   6 C        3.758    -0.112    22.702     6.793
    30   6 C        2.925    -0.035    28.862     8.810
    31   6 C        2.922    -0.015    28.390     8.738
    32   8 O        0.859    -0.405    21.785     6.258
    33   6 C        3.771     0.072    19.410     6.278
    34   6 C        2.685     0.343    21.179     7.531
    35   8 O        1.658    -0.358    20.050     6.045
    36   8 O        0.856    -0.343    20.581     6.082
    37   7 N        2.755    -0.157    24.397     7.336
    38   6 C        2.767     0.265    22.532     7.774
    39   6 C        2.972    -0.028    28.695     8.787
    40   6 C        2.918    -0.039    28.971     8.826
    41   6 C        2.925    -0.037    28.914     8.818
    42   6 C        2.966     0.027    27.400     8.586
    43   6 C        3.758    -0.114    22.726     6.797
    44   6 C        2.924    -0.035    28.883     8.813
    45   6 C        2.928    -0.021    28.531     8.760
    46   8 O        0.859    -0.402    21.710     6.247
    47   1 H        0.926     0.071     2.078     2.254
    48   1 H        0.926     0.060     2.196     2.317
    49   1 H        0.926     0.060     2.197     2.318
    50   1 H        0.926     0.055     2.259     2.350
    51   1 H        0.924     0.067     2.116     2.275
    52   1 H        0.924     0.056     2.248     2.345
    53   1 H        0.926     0.069     2.095     2.264
    54   1 H        0.926     0.059     2.209     2.324
    55   1 H        0.926     0.057     2.235     2.338
    56   1 H        0.926     0.047     2.358     2.401
    57   1 H        0.925     0.023     2.684     2.562
    58   1 H        0.926     0.034     2.527     2.486
    59   1 H        0.925     0.052     2.297     2.370
    60   1 H        0.925     0.053     2.283     2.363
    61   1 H        0.925     0.044     2.395     2.420
    62   1 H        0.926     0.046     2.375     2.410
    63   1 H        0.926     0.061     2.186     2.312
    64   1 H        0.923     0.077     2.009     2.216
    65   1 H        0.804     0.338     0.618     1.235
    66   1 H        0.926     0.032     2.556     2.500
    67   1 H        0.926     0.043     2.412     2.429
    68   1 H        0.925     0.050     2.324     2.384
    69   1 H        0.925     0.051     2.309     2.376
    70   1 H        0.924     0.058     2.221     2.331
    71   1 H        0.926     0.045     2.377     2.411
    72   1 H        0.926     0.053     2.278     2.360

Wiberg/Mayer (AO) data.
largest (>0.10) Wiberg bond orders for each atom

     #   Z sym  total        # sym  WBO       # sym  WBO       # sym  WBO
 ---------------------------------------------------------------------------
     1   6 C    3.971 --     6 C    1.418    10 C    1.382     2 C    0.950
                             8 C    0.106
     2   6 C    3.822 --     3 F    0.956     5 F    0.950     1 C    0.950
                             4 F    0.927
     3   9 F    1.078 --     2 C    0.956
     4   9 F    1.055 --     2 C    0.927
     5   9 F    1.082 --     2 C    0.950
     6   6 C    3.987 --     7 C    1.440     1 C    1.418    47 H    0.965
                             9 C    0.108
     7   6 C    3.988 --     6 C    1.440     8 C    1.437    48 H    0.968
                            10 C    0.109
     8   6 C    3.989 --     9 C    1.443     7 C    1.437    49 H    0.968
                             1 C    0.106
     9   6 C    3.989 --     8 C    1.443    10 C    1.415    50 H    0.961
                             6 C    0.108
    10   6 C    3.986 --     9 C    1.415     1 C    1.382    11 C    0.998
                             7 C    0.109
    11   6 C    3.964 --    10 C    0.998    51 H    0.955    12 C    0.948
                            37 N    0.947
    12   6 C    3.970 --    13 C    0.998    23 N    0.960    52 H    0.953
                            11 C    0.948
    13   6 C    3.987 --    22 C    1.407    14 C    1.387    12 C    0.998
                            20 C    0.109
    14   6 C    3.970 --    19 C    1.411    13 C    1.387    15 C    0.952
                            21 C    0.104
    15   6 C    3.821 --    17 F    0.957    14 C    0.952    16 F    0.947
                            18 F    0.925
    16   9 F    1.078 --    15 C    0.947
    17   9 F    1.080 --    15 C    0.957
    18   9 F    1.052 --    15 C    0.925
    19   6 C    3.987 --    20 C    1.445    14 C    1.411    53 H    0.965
                            22 C    0.109
    20   6 C    3.988 --    19 C    1.445    21 C    1.431    54 H    0.969
                            13 C    0.109
    21   6 C    3.990 --    22 C    1.451    20 C    1.431    55 H    0.969
                            14 C    0.104
    22   6 C    3.990 --    21 C    1.451    13 C    1.407    56 H    0.967
                            19 C    0.109
    23   7 N    3.418 --    24 C    1.160    33 C    0.990    12 C    0.960
                            32 O    0.177
    24   6 C    3.939 --    32 O    1.718    23 N    1.160    25 C    0.974
    25   6 C    3.986 --    26 C    1.396    31 C    1.395    24 C    0.974
                            28 C    0.105
    26   6 C    3.991 --    27 C    1.447    25 C    1.396    57 H    0.968
                            30 C    0.109
    27   6 C    3.991 --    26 C    1.447    28 C    1.409    58 H    0.968
                            31 C    0.105
    28   6 C    3.988 --    27 C    1.409    30 C    1.404    29 C    1.028
                            25 C    0.105
    29   6 C    3.996 --    28 C    1.028    61 H    0.986    60 H    0.973
                            59 H    0.969
    30   6 C    3.991 --    31 C    1.456    28 C    1.404    62 H    0.968
                            26 C    0.109
    31   6 C    3.988 --    30 C    1.456    25 C    1.395    63 H    0.967
                            27 C    0.105
    32   8 O    2.040 --    24 C    1.718    23 N    0.177
    33   6 C    3.967 --    37 N    0.991    23 N    0.990    64 H    0.920
                            34 C    0.895
    34   6 C    3.924 --    36 O    1.814    35 O    1.148    33 C    0.895
    35   8 O    2.226 --    34 C    1.148    65 H    0.839    36 O    0.172
    36   8 O    2.102 --    34 C    1.814    35 O    0.172
    37   7 N    3.409 --    38 C    1.141    33 C    0.991    11 C    0.947
                            46 O    0.173
    38   6 C    3.940 --    46 O    1.726    37 N    1.141    39 C    0.985
    39   6 C    3.985 --    40 C    1.394    45 C    1.384    38 C    0.985
                            42 C    0.103
    40   6 C    3.991 --    41 C    1.450    39 C    1.394    66 H    0.966
                            44 C    0.106
    41   6 C    3.991 --    40 C    1.450    42 C    1.407    67 H    0.968
                            45 C    0.106
    42   6 C    3.987 --    41 C    1.407    44 C    1.401    43 C    1.030
                            39 C    0.103
    43   6 C    3.995 --    42 C    1.030    68 H    0.982    69 H    0.979
                            70 H    0.963
    44   6 C    3.991 --    45 C    1.458    42 C    1.401    71 H    0.968
                            40 C    0.106
    45   6 C    3.989 --    44 C    1.458    39 C    1.384    72 H    0.968
                            41 C    0.106
    46   8 O    2.042 --    38 C    1.726    37 N    0.173
    47   1 H    0.995 --     6 C    0.965
    48   1 H    0.995 --     7 C    0.968
    49   1 H    0.996 --     8 C    0.968
    50   1 H    0.997 --     9 C    0.961
    51   1 H    0.995 --    11 C    0.955
    52   1 H    0.996 --    12 C    0.953
    53   1 H    0.995 --    19 C    0.965
    54   1 H    0.996 --    20 C    0.969
    55   1 H    0.996 --    21 C    0.969
    56   1 H    0.997 --    22 C    0.967
    57   1 H    0.999 --    26 C    0.968
    58   1 H    0.998 --    27 C    0.968
    59   1 H    0.997 --    29 C    0.969
    60   1 H    0.997 --    29 C    0.973
    61   1 H    0.998 --    29 C    0.986
    62   1 H    0.997 --    30 C    0.968
    63   1 H    0.996 --    31 C    0.967
    64   1 H    0.993 --    33 C    0.920
    65   1 H    0.886 --    35 O    0.839
    66   1 H    0.999 --    40 C    0.966
    67   1 H    0.998 --    41 C    0.968
    68   1 H    0.997 --    43 C    0.982
    69   1 H    0.997 --    43 C    0.979
    70   1 H    0.996 --    43 C    0.963
    71   1 H    0.997 --    44 C    0.968
    72   1 H    0.997 --    45 C    0.968
 ---------------------------------------------------------------------------

molecular dipole:
                 x           y           z       tot (Debye)
 q only:       -1.309       2.243       0.299
   full:       -1.587       2.395       0.374       7.365

           -------------------------------------------------
          | TOTAL ENERGY             -136.642081255750 Eh   |
          | GRADIENT NORM               0.000562038472 Eh/Î± |
          | HOMO-LUMO GAP               3.435322807469 eV   |
           -------------------------------------------------

 * finished run on 2022/03/17 at 01:12:02.214
