   * xtb version 6.3.3 (4ae9cef) compiled by 'conda@95abc7406d43' on 2020-10-14
          program call               : xtb acid_312.xyz --opt --chrg 0 --uhf 0 --gfn 2
          number of atoms            :                    60
          number of electrons        :                   190
          charge                     :                     0
          spin                       :                   0.0

   ID    Z sym.   atoms
    1    6 C      1-14, 16-18, 20-23, 25, 26, 30-36
    2    7 N      15, 29
    3   35 Br     19, 37
    4    8 O      24, 27, 28, 38
    5    1 H      39-60

          :  Hamiltonian                  GFN2-xTB          :
 * total energy  :  -105.7466110 Eh     change       -0.2729578E-08 Eh
 * total energy  :  -105.7602992 Eh     change       -0.1368813E-01 Eh
 * total energy  :  -105.7647037 Eh     change       -0.4404548E-02 Eh
 * total energy  :  -105.7658638 Eh     change       -0.1160091E-02 Eh
 * total energy  :  -105.7663393 Eh     change       -0.4755127E-03 Eh
 * total energy  :  -105.7665843 Eh     change       -0.2450340E-03 Eh
 * total energy  :  -105.7668606 Eh     change       -0.2763004E-03 Eh
 * total energy  :  -105.7671788 Eh     change       -0.3181686E-03 Eh
 * total energy  :  -105.7675247 Eh     change       -0.3458804E-03 Eh
 * total energy  :  -105.7678511 Eh     change       -0.3263772E-03 Eh
 * total energy  :  -105.7702232 Eh     change       -0.6973605E-06 Eh
 * total energy  :  -105.7702292 Eh     change       -0.6086747E-05 Eh
 * total energy  :  -105.7702308 Eh     change       -0.1587209E-05 Eh
 * total energy  :  -105.7702372 Eh     change       -0.6396686E-05 Eh
 * total energy  :  -105.7702383 Eh     change       -0.1025991E-05 Eh
 * total energy  :  -105.7702337 Eh     change        0.4517424E-05 Eh
 * total energy  :  -105.7702443 Eh     change       -0.1052482E-04 Eh
 * total energy  :  -105.7702518 Eh     change       -0.7499593E-05 Eh
 * total energy  :  -105.7702555 Eh     change       -0.3751271E-05 Eh
   *** GEOMETRY OPTIMIZATION CONVERGED AFTER 43 ITERATIONS ***

 final structure:
================
60
 xtb: 6.3.3 (4ae9cef)
C         1.70434215226341   -0.98722896839535    2.46444019496302
C         2.52127578339504   -1.12332744586587    3.57136411729050
C         3.61556574937879   -1.97063188700779    3.52391833328857
C         3.88824936496099   -2.67866095559165    2.36640936335317
C         3.07000080433885   -2.54284346845467    1.25862670553891
C         1.97094325546480   -1.69818342144477    1.30054888334396
C         1.08056010659167   -1.53565252355814    0.09471167946742
C        -0.40455578523114   -1.85877547768567    0.38426678298871
C        -1.02405857333490   -2.75343538964987   -0.66599153329122
C        -2.20657765388725   -2.42270090660066   -1.30898711977805
C        -2.74161115278132   -3.26439004493535   -2.26911680363153
C        -2.10351472232108   -4.44817150101035   -2.59052012289498
C        -0.93511405002223   -4.79685767414381   -1.93363689638756
C        -0.40061987008885   -3.95719696515560   -0.97468244820111
N        -1.02154783107062   -0.54259406553943    0.46478267212982
C        -1.92447544406180   -0.22757865588584    1.42934337432425
C        -2.28090612842509    1.23106337835155    1.50698709575869
C        -3.42536193886506    1.73796467446055    0.90726885934453
Br       -4.54423780042009    0.59621846921938   -0.11620209810269
C        -3.77098533443324    3.07316434996407    1.03616180180342
C        -2.96531282394568    3.91548578928615    1.78076813200598
C        -1.82516833733680    3.42451473784848    2.39608302624499
C        -1.48837471633238    2.08944685566644    2.26210338013934
O        -2.39481790422023   -1.05241340738818    2.17812974017710
C        -0.28960497310663    0.38050589588376   -0.35973951194441
C        -0.84764505538111    0.37511177896316   -1.80257705581277
O        -1.95105097103190    1.11535992907542   -1.87373875466890
O        -0.35249438308914   -0.20321410956522   -2.72242998866460
N         1.05353204678717   -0.13528709596844   -0.32588525962715
C         2.14438298908645    0.43003823499100   -0.90397634582313
C         1.93393390023725    1.84797787963699   -1.34617621242776
C         1.71313056561374    2.84417250513286   -0.40075981196697
C         1.55490750931817    4.16199561864721   -0.78903853660784
C         1.61733442839283    4.49783648600889   -2.13233794891010
C         1.85345216707049    3.52215270693435   -3.08289239631957
C         2.02099983858481    2.20304034119369   -2.68666654296508
Br        2.35115940737631    0.88324125349973   -4.00743313982463
O         3.20402090587791   -0.14400338422031   -1.00081274567939
H         0.84891130730864   -0.32719871717633    2.50638134724632
H         2.30430660470818   -0.56792106078060    4.47215824368388
H         4.25520744270187   -2.07521286559235    4.38758511652209
H         4.74400050933486   -3.33560600132796    2.32349407925675
H         3.29250835365678   -3.08358508354036    0.35126780531577
H         1.46653251672864   -2.13961601906027   -0.73341369452157
H        -0.52081532028060   -2.33719079979795    1.36489710400391
H        -2.73029358191649   -1.51447806223218   -1.05446714574095
H        -3.66226322920031   -2.99020415432681   -2.76216609828838
H        -2.51801178338988   -5.10147249817731   -3.34342201044062
H        -0.43856574881865   -5.72667983949932   -2.16782190918612
H         0.50259018068155   -4.24126583417032   -0.45398900863710
H        -4.66534197538901    3.44355959346866    0.55951676673924
H        -3.23359427355205    4.95556983698218    1.88397509562127
H        -1.20079388580111    4.07910568027422    2.98427092756489
H        -0.60765316430157    1.69995655207073    2.75265010263201
H        -0.36701605429686    1.40588752874596    0.02379128738336
H        -2.35463802601095    1.06778680415865   -2.75700208574487
H         1.68837184461687    2.57759791671529    0.64649796811109
H         1.38827962169692    4.92603208028404   -0.04527912246193
H         1.49204682952358    5.52418282264449   -2.44136590841329
H         1.91647430664209    3.77460858364676   -4.12987372927781

          :  Hamiltonian                  GFN2-xTB          :
         :: total energy            -105.770255515259 Eh    ::
         :: gradient norm              0.000452117944 Eh/a0 ::
         :: HOMO-LUMO gap              3.433351138108 eV    ::
         :: SCC energy              -107.311899897674 Eh    ::
         :: -> dispersion             -0.093081945329 Eh    ::
         :: repulsion energy           1.538146928628 Eh    ::

    * Orbital Energies and Occupations

         #    Occupation            Energy/Eh            Energy/eV
      -------------------------------------------------------------
         1        2.0000           -0.8483153             -23.0838
       ...           ...                  ...                  ...
        83        2.0000           -0.4306401             -11.7183
        84        2.0000           -0.4245039             -11.5513
        85        2.0000           -0.4216192             -11.4728
        86        2.0000           -0.4182486             -11.3811
        87        2.0000           -0.4153194             -11.3014
        88        2.0000           -0.4140543             -11.2670
        89        2.0000           -0.4120137             -11.2115
        90        2.0000           -0.4116128             -11.2006
        91        2.0000           -0.4092459             -11.1361
        92        2.0000           -0.4061042             -11.0507
        93        2.0000           -0.4042537             -11.0003
        94        2.0000           -0.4019196             -10.9368
        95        2.0000           -0.4014553             -10.9242 (HOMO)
        96                         -0.2752820              -7.4908 (LUMO)
        97                         -0.2687704              -7.3136
        98                         -0.2673356              -7.2746
        99                         -0.2668926              -7.2625
       100                         -0.2605699              -7.0905
       101                         -0.2415442              -6.5728
       102                         -0.2358957              -6.4190
       103                         -0.2314786              -6.2989
       104                         -0.2283013              -6.2124
       105                         -0.2272343              -6.1834
       106                         -0.2232622              -6.0753
       ...                                ...                  ...
       184                          0.6626332              18.0312
      -------------------------------------------------------------
                  HL-Gap            0.1261733 Eh            3.4334 eV

     #   Z          covCN         q      C6AA      α(0)
     1   6 C        2.924    -0.031    28.778     8.797
     2   6 C        2.919    -0.028    28.693     8.784
     3   6 C        2.921    -0.028    28.692     8.784
     4   6 C        2.920    -0.024    28.609     8.771
     5   6 C        2.924    -0.026    28.644     8.777
     6   6 C        2.974     0.006    27.879     8.661
     7   6 C        3.825     0.042    19.847     6.339
     8   6 C        3.831     0.039    19.889     6.345
     9   6 C        2.971     0.004    27.939     8.670
    10   6 C        2.924    -0.031    28.765     8.795
    11   6 C        2.920    -0.025    28.619     8.773
    12   6 C        2.920    -0.027    28.677     8.782
    13   6 C        2.920    -0.025    28.619     8.773
    14   6 C        2.925    -0.035    28.868     8.811
    15   7 N        2.769    -0.108    23.368     7.180
    16   6 C        2.763     0.281    22.246     7.724
    17   6 C        3.043    -0.022    28.507     8.757
    18   6 C        2.919     0.086    26.092     8.376
    19  35 Br       1.076    -0.148   189.120    22.173
    20   6 C        2.999    -0.032    28.780     8.800
    21   6 C        2.922    -0.026    28.647     8.777
    22   6 C        2.918    -0.029    28.724     8.789
    23   6 C        2.926    -0.028    28.691     8.784
    24   8 O        0.859    -0.402    21.726     6.249
    25   6 C        3.766     0.093    19.079     6.226
    26   6 C        2.688     0.350    21.063     7.511
    27   8 O        1.660    -0.368    20.231     6.072
    28   8 O        0.856    -0.361    20.911     6.131
    29   7 N        2.770    -0.121    23.623     7.219
    30   6 C        2.766     0.282    22.227     7.721
    31   6 C        3.042    -0.027    28.643     8.778
    32   6 C        2.925    -0.033    28.814     8.803
    33   6 C        2.918    -0.031    28.779     8.797
    34   6 C        2.922    -0.026    28.663     8.780
    35   6 C        2.999    -0.034    28.841     8.809
    36   6 C        2.917     0.086    26.090     8.376
    37  35 Br       1.073    -0.128   188.562    22.141
    38   8 O        0.859    -0.400    21.674     6.242
    39   1 H        0.925     0.019     2.743     2.590
    40   1 H        0.926     0.034     2.527     2.486
    41   1 H        0.926     0.037     2.483     2.464
    42   1 H        0.926     0.041     2.432     2.439
    43   1 H        0.926     0.046     2.376     2.411
    44   1 H        0.924     0.073     2.054     2.241
    45   1 H        0.924     0.081     1.968     2.194
    46   1 H        0.926     0.033     2.539     2.492
    47   1 H        0.926     0.039     2.457     2.451
    48   1 H        0.926     0.039     2.467     2.456
    49   1 H        0.926     0.039     2.457     2.451
    50   1 H        0.926     0.033     2.539     2.492
    51   1 H        0.926     0.062     2.172     2.304
    52   1 H        0.926     0.052     2.299     2.371
    53   1 H        0.926     0.049     2.327     2.385
    54   1 H        0.926     0.042     2.417     2.431
    55   1 H        0.924     0.060     2.193     2.316
    56   1 H        0.804     0.350     0.588     1.204
    57   1 H        0.926     0.038     2.475     2.460
    58   1 H        0.926     0.046     2.371     2.408
    59   1 H        0.926     0.051     2.304     2.374
    60   1 H        0.926     0.065     2.144     2.290

Wiberg/Mayer (AO) data.
largest (>0.10) Wiberg bond orders for each atom

     #   Z sym  total        # sym  WBO       # sym  WBO       # sym  WBO
 ---------------------------------------------------------------------------
     1   6 C    3.992 --     2 C    1.449     6 C    1.410    39 H    0.968
                             4 C    0.112
     2   6 C    3.992 --     1 C    1.449     3 C    1.435    40 H    0.971
                             5 C    0.111
     3   6 C    3.991 --     4 C    1.442     2 C    1.435    41 H    0.971
                             6 C    0.110
     4   6 C    3.992 --     3 C    1.442     5 C    1.441    42 H    0.970
                             1 C    0.112
     5   6 C    3.989 --     4 C    1.441     6 C    1.417    43 H    0.967
                             2 C    0.111
     6   6 C    3.985 --     5 C    1.417     1 C    1.410     7 C    0.988
                             3 C    0.110
     7   6 C    3.958 --     6 C    0.988     8 C    0.957    44 H    0.952
                            29 N    0.948
     8   6 C    3.957 --     9 C    0.985    15 N    0.960     7 C    0.957
                            45 H    0.943
     9   6 C    3.985 --    10 C    1.423    14 C    1.404     8 C    0.985
                            12 C    0.110
    10   6 C    3.991 --    11 C    1.435     9 C    1.423    46 H    0.963
                            13 C    0.110
    11   6 C    3.992 --    12 C    1.446    10 C    1.435    47 H    0.971
                            14 C    0.113
    12   6 C    3.991 --    11 C    1.446    13 C    1.432    48 H    0.971
                             9 C    0.110
    13   6 C    3.991 --    14 C    1.452    12 C    1.432    49 H    0.970
                            10 C    0.110
    14   6 C    3.991 --    13 C    1.452     9 C    1.404    50 H    0.968
                            11 C    0.113
    15   7 N    3.477 --    16 C    1.207    25 C    0.988     8 C    0.960
                            24 O    0.194
    16   6 C    3.949 --    24 O    1.709    15 N    1.207    17 C    0.948
    17   6 C    3.987 --    23 C    1.399    18 C    1.387    16 C    0.948
                            21 C    0.108
    18   6 C    3.944 --    20 C    1.407    17 C    1.387    19 Br   0.989
                            22 C    0.100
    19  35 Br   1.146 --    18 C    0.989
    20   6 C    3.989 --    21 C    1.443    18 C    1.407    51 H    0.967
                            23 C    0.109
    21   6 C    3.990 --    20 C    1.443    22 C    1.431    52 H    0.968
                            17 C    0.108
    22   6 C    3.991 --    23 C    1.443    21 C    1.431    53 H    0.969
                            18 C    0.100
    23   6 C    3.990 --    22 C    1.443    17 C    1.399    54 H    0.966
                            20 C    0.109
    24   8 O    2.042 --    16 C    1.709    15 N    0.194
    25   6 C    3.974 --    29 N    0.990    15 N    0.988    55 H    0.937
                            26 C    0.900
    26   6 C    3.922 --    28 O    1.801    27 O    1.148    25 C    0.900
    27   8 O    2.216 --    26 C    1.148    56 H    0.851    28 O    0.183
    28   8 O    2.089 --    26 C    1.801    27 O    0.183
    29   7 N    3.458 --    30 C    1.204    25 C    0.990     7 C    0.948
                            38 O    0.192
    30   6 C    3.950 --    38 O    1.709    29 N    1.204    31 C    0.955
    31   6 C    3.987 --    32 C    1.398    36 C    1.384    30 C    0.955
                            34 C    0.106
    32   6 C    3.991 --    33 C    1.446    31 C    1.398    57 H    0.967
                            35 C    0.109
    33   6 C    3.991 --    32 C    1.446    34 C    1.426    58 H    0.969
    34   6 C    3.991 --    35 C    1.448    33 C    1.426    59 H    0.968
                            31 C    0.106
    35   6 C    3.988 --    34 C    1.448    36 C    1.400    60 H    0.966
                            32 C    0.109
    36   6 C    3.949 --    35 C    1.400    31 C    1.384    37 Br   1.006
    37  35 Br   1.167 --    36 C    1.006
    38   8 O    2.043 --    30 C    1.709    29 N    0.192
    39   1 H    1.000 --     1 C    0.968
    40   1 H    0.998 --     2 C    0.971
    41   1 H    0.998 --     3 C    0.971
    42   1 H    0.998 --     4 C    0.970
    43   1 H    0.998 --     5 C    0.967
    44   1 H    0.994 --     7 C    0.952
    45   1 H    0.993 --     8 C    0.943
    46   1 H    0.999 --    10 C    0.963
    47   1 H    0.998 --    11 C    0.971
    48   1 H    0.998 --    12 C    0.971
    49   1 H    0.998 --    13 C    0.970
    50   1 H    0.999 --    14 C    0.968
    51   1 H    0.996 --    20 C    0.967
    52   1 H    0.997 --    21 C    0.968
    53   1 H    0.996 --    22 C    0.969
    54   1 H    0.998 --    23 C    0.966
    55   1 H    0.996 --    25 C    0.937
    56   1 H    0.877 --    27 O    0.851
    57   1 H    0.999 --    32 C    0.967
    58   1 H    0.996 --    33 C    0.969
    59   1 H    0.997 --    34 C    0.968
    60   1 H    0.995 --    35 C    0.966
 ---------------------------------------------------------------------------

molecular dipole:
                 x           y           z       tot (Debye)
 q only:       -0.530       1.701       0.320
   full:       -0.505       2.481       1.094       7.009

           -------------------------------------------------
          | TOTAL ENERGY             -105.770255515259 Eh   |
          | GRADIENT NORM               0.000452117944 Eh/α |
          | HOMO-LUMO GAP               3.433351138108 eV   |
           -------------------------------------------------

 * finished run on 2022/03/16 at 23:41:39.494
