   * xtb version 6.3.3 (4ae9cef) compiled by 'conda@95abc7406d43' on 2020-10-14
          program call               : xtb acid_405.xyz --opt --chrg 0 --uhf 0 --gfn 2
          number of atoms            :                    68
          number of electrons        :                   206
          charge                     :                     0
          spin                       :                   0.0

   ID    Z sym.   atoms
    1    6 C      1, 3-16, 18, 20-25, 28, 29, 33-38
    2    8 O      2, 17, 27, 30, 31, 40
    3    7 N      19, 32
    4   16 S      26, 39
    5    1 H      41-68

          :  Hamiltonian                  GFN2-xTB          :
 * total energy  :  -115.2584386 Eh     change       -0.4054939E-08 Eh
 * total energy  :  -115.2737960 Eh     change       -0.1535738E-01 Eh
 * total energy  :  -115.2792429 Eh     change       -0.5446927E-02 Eh
 * total energy  :  -115.2810544 Eh     change       -0.1811429E-02 Eh
 * total energy  :  -115.2822286 Eh     change       -0.1174230E-02 Eh
 * total energy  :  -115.2829679 Eh     change       -0.7392593E-03 Eh
 * total energy  :  -115.2835438 Eh     change       -0.5759429E-03 Eh
 * total energy  :  -115.2840959 Eh     change       -0.5521261E-03 Eh
 * total energy  :  -115.2846515 Eh     change       -0.5556077E-03 Eh
 * total energy  :  -115.2851790 Eh     change       -0.5274500E-03 Eh
 * total energy  :  -115.3016930 Eh     change       -0.9110705E-05 Eh
 * total energy  :  -115.3017012 Eh     change       -0.8183019E-05 Eh
 * total energy  :  -115.3017081 Eh     change       -0.6894793E-05 Eh
 * total energy  :  -115.3017109 Eh     change       -0.2792169E-05 Eh
 * total energy  :  -115.3017092 Eh     change        0.1683981E-05 Eh
 * total energy  :  -115.3017054 Eh     change        0.3757540E-05 Eh
 * total energy  :  -115.3016995 Eh     change        0.5974407E-05 Eh
 * total energy  :  -115.3017147 Eh     change       -0.1522747E-04 Eh
 * total energy  :  -115.3017189 Eh     change       -0.4203338E-05 Eh
   *** GEOMETRY OPTIMIZATION CONVERGED AFTER 175 ITERATIONS ***

 final structure:
================
68
 xtb: 6.3.3 (4ae9cef)
C        -2.61606419420786   -1.10145257012502   -0.17164204154015
O        -2.30517790841749   -1.54689182575865    1.07708825638926
C        -3.20278649615683   -2.40919505401145    1.73095006756139
C        -3.78003904287198   -1.42677627301486   -0.85668724027585
C        -4.00560119460459   -0.92419166739371   -2.12727434745707
C        -3.07649270989953   -0.10021066563230   -2.73235144812138
C        -1.91654590051605    0.22847476831736   -2.05277781425070
C        -1.68137662353739   -0.24824593073065   -0.77492721491470
C        -0.41334261333209    0.09674312861554   -0.04334081148881
C         0.79592131660320   -0.65310359623920   -0.63844430696040
C         1.11148183138043   -1.87674073992758    0.17807214448175
C         1.80984140671572   -1.78716467557062    1.36875163545806
C         2.06696279153611   -2.91959455296348    2.12225804906633
C         1.60999518620667   -4.14702715224109    1.68360179958201
C         0.88617061733278   -4.25049078028971    0.50715073470313
C         0.62380616989395   -3.11775864405981   -0.25231623715927
O        -0.10739775989588   -3.11079820377903   -1.40589718948712
C        -0.58420369442002   -4.33389348574459   -1.90834662103778
N         1.86089287603006    0.33897145649641   -0.64222826463192
C         3.14228125524642   -0.00337647767776   -0.93048543241646
C         4.11248400993018    1.11824066680608   -0.83685444130996
C         4.30209149445644    2.16970440462748   -1.67912383136141
C         5.36913543233050    3.00625029887439   -1.28334125434726
C         5.98673043825536    2.58933402450802   -0.14670331186091
C         7.13547227141419    3.21011696290851    0.56483350798058
S         5.26416164369172    1.12856440407271    0.45528506444443
O         3.46550542897978   -1.13295094191348   -1.22819203151855
C         1.38351624778687    1.66239776998553   -0.33544808252106
C         1.98278328266115    2.19409081894629    0.98370222420293
O         2.64743178555768    3.32403835442913    0.80807364588238
O         1.84261958581521    1.64545158143243    2.04179631355868
N        -0.04229890052976    1.49500664626819   -0.16603800207263
C        -0.82331226652821    2.57926200059212    0.07564613993793
C        -2.22460702112004    2.26596802286384    0.43413225529300
C        -2.68685407571984    1.62588381939981    1.54366367456901
C        -4.09420472304101    1.52447364458189    1.56925704581779
C        -4.69470761141639    2.08537222263190    0.48559574259399
C        -6.14204718611029    2.13521210151726    0.15057891601127
S        -3.52320119053813    2.78925747770891   -0.58146910096124
O        -0.38563274418885    3.71007872970282   -0.01313222104077
H        -2.73777511629085   -2.64267114799583    2.68742693659178
H        -3.35302961692016   -3.33590052621014    1.16837588223077
H        -4.17005911380043   -1.92660583232253    1.90431942148771
H        -4.52015537348491   -2.07046413962418   -0.40847639546976
H        -4.91749947225016   -1.18574108515651   -2.64334320630176
H        -3.25252230708865    0.28764156276041   -3.72337597997101
H        -1.18804606413069    0.88126657020086   -2.51084996476640
H        -0.51523093645734   -0.17442584406373    1.01385472161307
H         0.58952735000287   -0.96235334841821   -1.67050383272652
H         2.15514872798928   -0.82214888422577    1.70941716361829
H         2.62124829299031   -2.84027003646405    3.04454702428938
H         1.80960134337139   -5.03884455958264    2.25943798018342
H         0.53377228458790   -5.21995479011099    0.19146832529300
H         0.23504003153837   -5.02120792498250   -2.14138633086991
H        -1.27590069288627   -4.81500584218112   -1.20853300847459
H        -1.11852072530468   -4.08436387388228   -2.82402187142509
H         3.71069464246080    2.33765520808455   -2.56161399891143
H         5.66026408375278    3.88730751399852   -1.82658027078391
H         8.00903682987496    2.55994487827412    0.52170796376749
H         6.89692902242833    3.37498203627080    1.61457153474886
H         7.38666176751427    4.16275281855544    0.10507247101699
H         1.59448264202464    2.39701206845371   -1.12634331031118
H         2.96875954073703    3.68152863295319    1.65238320768081
H        -2.04666994609122    1.24528918061026    2.31901607800944
H        -4.63740635126460    1.04811011490678    2.36642008077679
H        -6.72585342928203    1.67702028732224    0.94507141109653
H        -6.47267068833683    3.16440100983662    0.01917727899451
H        -6.33321994045485    1.60201488472493   -0.78027628234021

          :  Hamiltonian                  GFN2-xTB          :
         :: total energy            -115.301718892459 Eh    ::
         :: gradient norm              0.000399871207 Eh/a0 ::
         :: HOMO-LUMO gap              3.136297781273 eV    ::
         :: SCC energy              -116.854768934232 Eh    ::
         :: -> dispersion             -0.102456713493 Eh    ::
         :: repulsion energy           1.549675203407 Eh    ::

    * Orbital Energies and Occupations

         #    Occupation            Energy/Eh            Energy/eV
      -------------------------------------------------------------
         1        2.0000           -0.7625946             -20.7513
       ...           ...                  ...                  ...
        91        2.0000           -0.4207589             -11.4494
        92        2.0000           -0.4151582             -11.2970
        93        2.0000           -0.4073752             -11.0852
        94        2.0000           -0.4030383             -10.9672
        95        2.0000           -0.3991727             -10.8620
        96        2.0000           -0.3969351             -10.8012
        97        2.0000           -0.3953905             -10.7591
        98        2.0000           -0.3934217             -10.7055
        99        2.0000           -0.3911581             -10.6440
       100        2.0000           -0.3881959             -10.5633
       101        2.0000           -0.3836078             -10.4385
       102        2.0000           -0.3832660             -10.4292
       103        2.0000           -0.3744644             -10.1897 (HOMO)
       104                         -0.2592076              -7.0534 (LUMO)
       105                         -0.2521681              -6.8618
       106                         -0.2466453              -6.7116
       107                         -0.2358585              -6.4180
       108                         -0.2238974              -6.0926
       109                         -0.2219885              -6.0406
       110                         -0.2194848              -5.9725
       111                         -0.2165346              -5.8922
       112                         -0.2094513              -5.6995
       113                         -0.1965658              -5.3488
       114                         -0.1953247              -5.3151
       ...                                ...                  ...
       198                          0.6911860              18.8081
      -------------------------------------------------------------
                  HL-Gap            0.1152568 Eh            3.1363 eV

     #   Z          covCN         q      C6AA      Î±(0)
     1   6 C        2.868     0.142    24.900     8.180
     2   8 O        1.705    -0.272    18.511     5.809
     3   6 C        3.644     0.039    20.249     6.468
     4   6 C        2.918    -0.066    29.632     8.926
     5   6 C        2.921    -0.032    28.792     8.799
     6   6 C        2.917    -0.039    28.967     8.826
     7   6 C        2.924    -0.031    28.783     8.798
     8   6 C        2.974    -0.017    28.438     8.747
     9   6 C        3.821     0.040    19.886     6.346
    10   6 C        3.826     0.050    19.716     6.318
    11   6 C        2.975    -0.007    28.185     8.708
    12   6 C        2.923    -0.028    28.702     8.786
    13   6 C        2.918    -0.038    28.935     8.821
    14   6 C        2.921    -0.031    28.779     8.797
    15   6 C        2.918    -0.065    29.605     8.923
    16   6 C        2.868     0.143    24.886     8.177
    17   8 O        1.705    -0.277    18.601     5.823
    18   6 C        3.643     0.040    20.232     6.466
    19   7 N        2.764    -0.114    23.476     7.196
    20   6 C        2.787     0.272    22.402     7.753
    21   6 C        2.994    -0.023    28.575     8.769
    22   6 C        3.111    -0.045    28.955     8.815
    23   6 C        3.115    -0.056    29.223     8.855
    24   6 C        2.984     0.026    27.422     8.590
    25   6 C        3.776    -0.111    22.648     6.781
    26  16 S        2.357    -0.014   141.651    20.031
    27   8 O        0.859    -0.413    21.951     6.282
    28   6 C        3.761     0.095    19.063     6.224
    29   6 C        2.689     0.359    20.913     7.484
    30   8 O        1.659    -0.348    19.866     6.017
    31   8 O        0.856    -0.390    21.477     6.213
    32   7 N        2.768    -0.112    23.436     7.190
    33   6 C        2.787     0.271    22.425     7.757
    34   6 C        2.996    -0.015    28.380     8.739
    35   6 C        3.111    -0.043    28.923     8.811
    36   6 C        3.118    -0.058    29.258     8.859
    37   6 C        2.984     0.025    27.438     8.592
    38   6 C        3.777    -0.111    22.637     6.779
    39  16 S        2.356    -0.005   141.281    20.005
    40   8 O        0.859    -0.433    22.345     6.338
    41   1 H        0.925     0.065     2.142     2.289
    42   1 H        0.924     0.041     2.436     2.441
    43   1 H        0.924     0.043     2.414     2.430
    44   1 H        0.926     0.039     2.457     2.451
    45   1 H        0.926     0.038     2.470     2.458
    46   1 H        0.926     0.042     2.423     2.434
    47   1 H        0.926     0.041     2.433     2.439
    48   1 H        0.924     0.073     2.058     2.244
    49   1 H        0.924     0.073     2.051     2.240
    50   1 H        0.926     0.052     2.301     2.372
    51   1 H        0.926     0.040     2.445     2.445
    52   1 H        0.926     0.037     2.490     2.467
    53   1 H        0.926     0.037     2.487     2.466
    54   1 H        0.924     0.046     2.375     2.410
    55   1 H        0.924     0.036     2.497     2.471
    56   1 H        0.925     0.060     2.199     2.319
    57   1 H        0.926     0.037     2.488     2.467
    58   1 H        0.926     0.043     2.406     2.426
    59   1 H        0.925     0.060     2.197     2.318
    60   1 H        0.925     0.056     2.246     2.344
    61   1 H        0.925     0.055     2.258     2.350
    62   1 H        0.923     0.080     1.984     2.203
    63   1 H        0.804     0.345     0.600     1.216
    64   1 H        0.926     0.043     2.404     2.424
    65   1 H        0.926     0.037     2.483     2.464
    66   1 H        0.925     0.053     2.280     2.361
    67   1 H        0.925     0.061     2.190     2.314
    68   1 H        0.925     0.057     2.230     2.335

Wiberg/Mayer (AO) data.
largest (>0.10) Wiberg bond orders for each atom

     #   Z sym  total        # sym  WBO       # sym  WBO       # sym  WBO
 ---------------------------------------------------------------------------
     1   6 C    3.934 --     4 C    1.381     8 C    1.323     2 O    1.062
     2   8 O    2.235 --     1 C    1.062     3 C    0.982
     3   6 C    3.944 --     2 O    0.982    41 H    0.979    42 H    0.976
                            43 H    0.976
     4   6 C    3.987 --     5 C    1.434     1 C    1.381    44 H    0.966
                             7 C    0.102
     5   6 C    3.990 --     6 C    1.443     4 C    1.434    45 H    0.971
                             8 C    0.106
     6   6 C    3.991 --     5 C    1.443     7 C    1.426    46 H    0.970
     7   6 C    3.990 --     8 C    1.436     6 C    1.426    47 H    0.968
                             4 C    0.102
     8   6 C    3.983 --     7 C    1.436     1 C    1.323     9 C    0.993
                             5 C    0.106
     9   6 C    3.962 --     8 C    0.993    32 N    0.960    10 C    0.949
                            48 H    0.948
    10   6 C    3.960 --    11 C    0.992    19 N    0.955     9 C    0.949
                            49 H    0.948
    11   6 C    3.983 --    12 C    1.439    16 C    1.326    10 C    0.992
                            14 C    0.107
    12   6 C    3.989 --    11 C    1.439    13 C    1.425    50 H    0.964
                            15 C    0.103
    13   6 C    3.991 --    14 C    1.446    12 C    1.425    51 H    0.971
    14   6 C    3.990 --    13 C    1.446    15 C    1.432    52 H    0.971
                            11 C    0.107
    15   6 C    3.987 --    14 C    1.432    16 C    1.384    53 H    0.966
                            12 C    0.103
    16   6 C    3.933 --    15 C    1.384    11 C    1.326    17 O    1.054
    17   8 O    2.225 --    16 C    1.054    18 C    0.985
    18   6 C    3.946 --    17 O    0.985    56 H    0.980    55 H    0.976
                            54 H    0.976
    19   7 N    3.470 --    20 C    1.208    28 C    0.986    10 C    0.955
                            27 O    0.195
    20   6 C    3.951 --    27 O    1.689    19 N    1.208    21 C    0.973
    21   6 C    3.946 --    22 C    1.593    26 S    1.148    20 C    0.973
                            24 C    0.110
    22   6 C    3.986 --    21 C    1.593    23 C    1.268    57 H    0.964
    23   6 C    3.984 --    24 C    1.600    22 C    1.268    58 H    0.963
    24   6 C    3.950 --    23 C    1.600    26 S    1.162    25 C    1.038
                            21 C    0.110
    25   6 C    3.994 --    24 C    1.038    61 H    0.980    60 H    0.972
                            59 H    0.967
    26  16 S    2.604 --    24 C    1.162    21 C    1.148
    27   8 O    2.030 --    20 C    1.689    19 N    0.195
    28   6 C    3.965 --    19 N    0.986    32 N    0.978    62 H    0.945
                            29 C    0.906
    29   6 C    3.919 --    31 O    1.771    30 O    1.173    28 C    0.906
    30   8 O    2.240 --    29 C    1.173    63 H    0.854    31 O    0.186
    31   8 O    2.057 --    29 C    1.771    30 O    0.186
    32   7 N    3.469 --    33 C    1.208    28 C    0.978     9 C    0.960
                            40 O    0.190
    33   6 C    3.950 --    40 O    1.671    32 N    1.208    34 C    0.987
    34   6 C    3.947 --    35 C    1.582    39 S    1.148    33 C    0.987
                            37 C    0.109
    35   6 C    3.986 --    34 C    1.582    36 C    1.274    64 H    0.963
    36   6 C    3.984 --    37 C    1.593    35 C    1.274    65 H    0.964
    37   6 C    3.951 --    36 C    1.593    39 S    1.167    38 C    1.039
                            34 C    0.109
    38   6 C    3.994 --    37 C    1.039    66 H    0.980    67 H    0.970
                            68 H    0.969
    39  16 S    2.607 --    37 C    1.167    34 C    1.148
    40   8 O    2.007 --    33 C    1.671    32 N    0.190
    41   1 H    0.995 --     3 C    0.979
    42   1 H    0.998 --     3 C    0.976
    43   1 H    0.998 --     3 C    0.976
    44   1 H    0.998 --     4 C    0.966
    45   1 H    0.998 --     5 C    0.971
    46   1 H    0.998 --     6 C    0.970
    47   1 H    0.998 --     7 C    0.968
    48   1 H    0.994 --     9 C    0.948
    49   1 H    0.994 --    10 C    0.948
    50   1 H    0.997 --    12 C    0.964
    51   1 H    0.998 --    13 C    0.971
    52   1 H    0.998 --    14 C    0.971
    53   1 H    0.998 --    15 C    0.966
    54   1 H    0.998 --    18 C    0.976
    55   1 H    0.999 --    18 C    0.976
    56   1 H    0.996 --    18 C    0.980
    57   1 H    0.998 --    22 C    0.964
    58   1 H    0.997 --    23 C    0.963
    59   1 H    0.996 --    25 C    0.967
    60   1 H    0.996 --    25 C    0.972
    61   1 H    0.997 --    25 C    0.980
    62   1 H    0.993 --    28 C    0.945
    63   1 H    0.880 --    30 O    0.854
    64   1 H    0.998 --    35 C    0.963
    65   1 H    0.998 --    36 C    0.964
    66   1 H    0.997 --    38 C    0.980
    67   1 H    0.996 --    38 C    0.970
    68   1 H    0.996 --    38 C    0.969
 ---------------------------------------------------------------------------

molecular dipole:
                 x           y           z       tot (Debye)
 q only:       -1.500      -0.736       0.263
   full:       -1.578      -0.810       0.326       4.582

           -------------------------------------------------
          | TOTAL ENERGY             -115.301718892459 Eh   |
          | GRADIENT NORM               0.000399871207 Eh/Î± |
          | HOMO-LUMO GAP               3.136297781273 eV   |
           -------------------------------------------------

 * finished run on 2022/03/17 at 00:48:59.198
