   * xtb version 6.3.3 (4ae9cef) compiled by 'conda@95abc7406d43' on 2020-10-14
          program call               : xtb acid_386.xyz --opt --chrg 0 --uhf 0 --gfn 2
          number of atoms            :                    60
          number of electrons        :                   230
          charge                     :                     0
          spin                       :                   0.0

   ID    Z sym.   atoms
    1    6 C      1, 2, 6-15, 19-22, 24-28, 32, 33, 37-41
    2    9 F      3-5, 16-18
    3    7 N      23, 36
    4   17 Cl     29, 42
    5   16 S      30, 43
    6    8 O      31, 34, 35, 44
    7    1 H      45-60

          :  Hamiltonian                  GFN2-xTB          :
 * total energy  :  -134.2254723 Eh     change       -0.2404761E-08 Eh
 * total energy  :  -134.2417660 Eh     change       -0.1629367E-01 Eh
 * total energy  :  -134.2461412 Eh     change       -0.4375163E-02 Eh
 * total energy  :  -134.2473806 Eh     change       -0.1239396E-02 Eh
 * total energy  :  -134.2482114 Eh     change       -0.8308370E-03 Eh
 * total energy  :  -134.2487095 Eh     change       -0.4981153E-03 Eh
 * total energy  :  -134.2491486 Eh     change       -0.4390970E-03 Eh
 * total energy  :  -134.2495466 Eh     change       -0.3979410E-03 Eh
 * total energy  :  -134.2498478 Eh     change       -0.3012462E-03 Eh
 * total energy  :  -134.2500326 Eh     change       -0.1847753E-03 Eh
 * total energy  :  -134.2595219 Eh     change       -0.1903343E-04 Eh
 * total energy  :  -134.2595411 Eh     change       -0.1920565E-04 Eh
 * total energy  :  -134.2595630 Eh     change       -0.2187524E-04 Eh
 * total energy  :  -134.2595879 Eh     change       -0.2487364E-04 Eh
 * total energy  :  -134.2596104 Eh     change       -0.2248126E-04 Eh
 * total energy  :  -134.2596253 Eh     change       -0.1492400E-04 Eh
 * total energy  :  -134.2596283 Eh     change       -0.3068292E-05 Eh
 * total energy  :  -134.2596344 Eh     change       -0.6095518E-05 Eh
 * total energy  :  -134.2596387 Eh     change       -0.4232748E-05 Eh
   *** GEOMETRY OPTIMIZATION CONVERGED AFTER 83 ITERATIONS ***

 final structure:
================
60
 xtb: 6.3.3 (4ae9cef)
C         1.95381614661938   -2.99963781819374   -0.65213311390922
C         1.33686074049337   -3.25517279704445   -2.00146666707577
F        -0.01794955229697   -3.26057286829261   -1.95552990934415
F         1.67519941510309   -4.45037799977336   -2.50501083720753
F         1.66902803614910   -2.35044936706816   -2.92812733817676
C         2.85448050086575   -3.93254633919406   -0.15091401474765
C         3.45000902457016   -3.73770185753335    1.08062364251891
C         3.14465580127918   -2.60759155087877    1.81903824167485
C         2.24812642357468   -1.68163771432938    1.32241966652585
C         1.64582455001162   -1.85280540991274    0.08036118825297
C         0.67711105879612   -0.80688378082538   -0.40252341206154
C        -0.63096856484808   -0.80952747958282    0.41396959870354
C        -1.65823993655421   -1.82428924895796   -0.01978156513992
C        -2.57900246595563   -1.69229272065341   -1.06186229917843
C        -2.67389749170196   -0.46467876816394   -1.92201774134114
F        -3.39150276492807   -0.65558959258734   -3.03128147178139
F        -1.47917467729977   -0.00619215760530   -2.33114554460912
F        -3.26285401918211    0.58371221148161   -1.29282893102698
C        -3.47363839985660   -2.71995050623517   -1.34479685320042
C        -3.45090595541726   -3.89621647369553   -0.62358387094623
C        -2.52647208810352   -4.05058526834433    0.39333061676619
C        -1.65297556004179   -3.02352065110353    0.68856015029376
N        -1.04270220756914    0.59470558846576    0.39780483553463
C        -2.10214365759419    0.94401725946843    1.18790183278754
C        -2.36618262410857    2.39924975354957    1.34811485058428
C        -1.64099828291620    3.33736362995728    2.02691683137236
C        -2.27627985595871    4.59264465216454    2.09519258938933
C        -3.48909417276936    4.58819696391299    1.47453866322201
Cl       -4.55904069400482    5.90366372736332    1.31498408026317
S        -3.88989324342593    3.03733545028256    0.81065889845234
O        -2.81288014151491    0.10257853635269    1.69080081718947
C         0.05074382655477    1.43861709750923   -0.04140618240487
C        -0.16662342865336    2.17445688823049   -1.40638938618373
O        -1.34583392556262    2.74550670172260   -1.58224108952138
O         0.73723551759659    2.28769532315439   -2.17645309363755
N         1.17589568017619    0.54019691567452   -0.12839958697836
C         2.42503889254702    0.88015583164112   -0.60252068289257
C         2.87409371767203    2.25274744106356   -0.31901288147909
C         2.70752847594323    3.02893193758079    0.79563724379016
C         3.38123084086231    4.26047440638274    0.71997671748554
C         4.05534119778675    4.39609213316543   -0.45914460388425
Cl        4.97847898170539    5.74536516249372   -0.93889522826728
S         3.89367035136870    3.01365372214598   -1.48558741890632
O         3.14396652631743    0.05518776920487   -1.12032591767184
H         3.09128020493005   -4.80978643400592   -0.73225515679055
H         4.15338365746071   -4.46336410504448    1.45734376065233
H         3.60834651184465   -2.44450693795964    2.77994760860706
H         2.02434005402663   -0.79276309383296    1.89325986630911
H         0.47917688789318   -0.91326879526408   -1.47276001778795
H        -0.38163716565230   -1.05798002737809    1.45696733906321
H        -4.18671157848235   -2.59437788156124   -2.14436814558258
H        -4.14882961788290   -4.68406866963513   -0.85811262542795
H        -2.48941910338866   -4.96608699392354    0.96315964854060
H        -0.94203132959636   -3.14960831204689    1.49166258222156
H        -0.69538465209369    3.14102164056308    2.50079868512783
H        -1.85726806483314    5.45359980279581    2.58098371865108
H         0.24478258789486    2.24324934241676    0.67936502377506
H        -2.02595881418632    2.49153136423098   -0.93617522518489
H         2.16338675309540    2.71619000912629    1.66938550370299
H         3.37346167323396    5.00588835852364    1.49334661090168

          :  Hamiltonian                  GFN2-xTB          :
         :: total energy            -134.259638672198 Eh    ::
         :: gradient norm              0.000594277151 Eh/a0 ::
         :: HOMO-LUMO gap              2.851590456752 eV    ::
         :: SCC energy              -135.640154076537 Eh    ::
         :: -> dispersion             -0.098199129081 Eh    ::
         :: repulsion energy           1.377548946091 Eh    ::

    * Orbital Energies and Occupations

         #    Occupation            Energy/Eh            Energy/eV
      -------------------------------------------------------------
         1        2.0000           -1.0842065             -29.5028
       ...           ...                  ...                  ...
       103        2.0000           -0.4486150             -12.2074
       104        2.0000           -0.4473279             -12.1724
       105        2.0000           -0.4452083             -12.1147
       106        2.0000           -0.4444724             -12.0947
       107        2.0000           -0.4381218             -11.9219
       108        2.0000           -0.4369434             -11.8898
       109        2.0000           -0.4349565             -11.8358
       110        2.0000           -0.4300843             -11.7032
       111        2.0000           -0.4217698             -11.4769
       112        2.0000           -0.4180484             -11.3757
       113        2.0000           -0.4159144             -11.3176
       114        2.0000           -0.4119041             -11.2085
       115        2.0000           -0.4002406             -10.8911 (HOMO)
       116                         -0.2954465              -8.0395 (LUMO)
       117                         -0.2844630              -7.7406
       118                         -0.2756218              -7.5001
       119                         -0.2710074              -7.3745
       120                         -0.2658911              -7.2353
       121                         -0.2630032              -7.1567
       122                         -0.2606476              -7.0926
       123                         -0.2579718              -7.0198
       124                         -0.2393748              -6.5137
       125                         -0.2310860              -6.2882
       126                         -0.2185471              -5.9470
       ...                                ...                  ...
       212                          0.6588542              17.9283
      -------------------------------------------------------------
                  HL-Gap            0.1047940 Eh            2.8516 eV

     #   Z          covCN         q      C6AA      Î±(0)
     1   6 C        2.976    -0.024    28.607     8.773
     2   6 C        3.335     0.486    17.299     6.589
     3   9 F        0.791    -0.226    11.511     4.008
     4   9 F        0.792    -0.201    11.247     3.962
     5   9 F        0.791    -0.192    11.157     3.946
     6   6 C        2.923    -0.020    28.514     8.757
     7   6 C        2.920    -0.022    28.559     8.764
     8   6 C        2.918    -0.018    28.466     8.749
     9   6 C        2.927    -0.026    28.659     8.779
    10   6 C        2.972     0.025    27.447     8.593
    11   6 C        3.837     0.049    19.732     6.320
    12   6 C        3.842     0.049    19.724     6.318
    13   6 C        2.965     0.024    27.471     8.597
    14   6 C        2.976    -0.022    28.551     8.765
    15   6 C        3.337     0.490    17.219     6.570
    16   9 F        0.792    -0.194    11.174     3.949
    17   9 F        0.792    -0.211    11.348     3.979
    18   9 F        0.791    -0.226    11.502     4.006
    19   6 C        2.926    -0.018    28.465     8.750
    20   6 C        2.920    -0.018    28.469     8.750
    21   6 C        2.918    -0.014    28.370     8.734
    22   6 C        2.933    -0.024    28.610     8.772
    23   7 N        2.758    -0.134    23.897     7.260
    24   6 C        2.789     0.272    22.413     7.755
    25   6 C        2.988    -0.040    28.991     8.832
    26   6 C        3.107    -0.046    28.984     8.821
    27   6 C        3.109    -0.059    29.308     8.870
    28   6 C        2.908     0.096    25.874     8.341
    29  17 Cl       1.016    -0.116   102.771    15.509
    30  16 S        2.397     0.071   138.171    19.784
    31   8 O        0.859    -0.400    21.673     6.242
    32   6 C        3.762     0.070    19.453     6.287
    33   6 C        2.683     0.350    21.049     7.508
    34   8 O        1.659    -0.341    19.744     5.998
    35   8 O        0.856    -0.339    20.499     6.070
    36   7 N        2.770    -0.134    23.903     7.261
    37   6 C        2.802     0.284    22.203     7.719
    38   6 C        2.993    -0.021    28.528     8.762
    39   6 C        3.113    -0.053    29.146     8.844
    40   6 C        3.109    -0.062    29.382     8.881
    41   6 C        2.913     0.090    25.989     8.359
    42  17 Cl       1.015    -0.123   103.001    15.527
    43  16 S        2.411     0.111   136.584    19.670
    44   8 O        0.859    -0.399    21.661     6.240
    45   1 H        0.926     0.071     2.074     2.252
    46   1 H        0.926     0.060     2.199     2.319
    47   1 H        0.926     0.057     2.235     2.338
    48   1 H        0.926     0.048     2.344     2.394
    49   1 H        0.924     0.073     2.053     2.241
    50   1 H        0.923     0.063     2.165     2.301
    51   1 H        0.926     0.072     2.060     2.244
    52   1 H        0.926     0.063     2.164     2.300
    53   1 H        0.926     0.060     2.193     2.316
    54   1 H        0.926     0.049     2.336     2.390
    55   1 H        0.926     0.052     2.291     2.367
    56   1 H        0.926     0.074     2.039     2.233
    57   1 H        0.924     0.068     2.113     2.273
    58   1 H        0.804     0.339     0.614     1.230
    59   1 H        0.926     0.042     2.426     2.436
    60   1 H        0.926     0.067     2.122     2.278

Wiberg/Mayer (AO) data.
largest (>0.10) Wiberg bond orders for each atom

     #   Z sym  total        # sym  WBO       # sym  WBO       # sym  WBO
 ---------------------------------------------------------------------------
     1   6 C    3.971 --     6 C    1.413    10 C    1.388     2 C    0.950
                             8 C    0.105
     2   6 C    3.824 --     5 F    0.958     4 F    0.954     1 C    0.950
                             3 F    0.925
     3   9 F    1.052 --     2 C    0.925
     4   9 F    1.077 --     2 C    0.954
     5   9 F    1.090 --     2 C    0.958
     6   6 C    3.986 --     7 C    1.444     1 C    1.413    45 H    0.965
                             9 C    0.109
     7   6 C    3.989 --     6 C    1.444     8 C    1.431    46 H    0.969
                            10 C    0.109
     8   6 C    3.990 --     9 C    1.451     7 C    1.431    47 H    0.969
                             1 C    0.105
     9   6 C    3.990 --     8 C    1.451    10 C    1.406    48 H    0.966
                             6 C    0.109
    10   6 C    3.987 --     9 C    1.406     1 C    1.388    11 C    0.997
                             7 C    0.109
    11   6 C    3.967 --    10 C    0.997    36 N    0.958    49 H    0.951
                            12 C    0.949
    12   6 C    3.964 --    13 C    0.997    23 N    0.953    11 C    0.949
                            50 H    0.948
    13   6 C    3.986 --    22 C    1.404    14 C    1.389    12 C    0.997
                            20 C    0.109
    14   6 C    3.970 --    19 C    1.408    13 C    1.389    15 C    0.953
                            21 C    0.105
    15   6 C    3.818 --    16 F    0.963    14 C    0.953    17 F    0.941
                            18 F    0.921
    16   9 F    1.086 --    15 C    0.963
    17   9 F    1.073 --    15 C    0.941
    18   9 F    1.056 --    15 C    0.921
    19   6 C    3.987 --    20 C    1.447    14 C    1.408    51 H    0.965
                            22 C    0.109
    20   6 C    3.988 --    19 C    1.447    21 C    1.430    52 H    0.968
                            13 C    0.109
    21   6 C    3.989 --    22 C    1.452    20 C    1.430    53 H    0.968
                            14 C    0.105
    22   6 C    3.989 --    21 C    1.452    13 C    1.404    54 H    0.966
                            19 C    0.109
    23   7 N    3.442 --    24 C    1.190    32 C    0.982    12 C    0.953
                            31 O    0.190
    24   6 C    3.952 --    31 O    1.700    23 N    1.190    25 C    0.979
    25   6 C    3.939 --    26 C    1.562    30 S    1.149    24 C    0.979
                            28 C    0.102
    26   6 C    3.985 --    25 C    1.562    27 C    1.284    55 H    0.959
    27   6 C    3.978 --    28 C    1.554    26 C    1.284    56 H    0.960
    28   6 C    3.893 --    27 C    1.554    30 S    1.175    29 Cl   1.022
                            25 C    0.102
    29  17 Cl   1.184 --    28 C    1.022
    30  16 S    2.655 --    28 C    1.175    25 C    1.149
    31   8 O    2.044 --    24 C    1.700    23 N    0.190
    32   6 C    3.964 --    36 N    0.995    23 N    0.982    57 H    0.927
                            33 C    0.885
    33   6 C    3.927 --    35 O    1.803    34 O    1.173    32 C    0.885
    34   8 O    2.247 --    33 C    1.173    58 H    0.838    35 O    0.172
    35   8 O    2.112 --    33 C    1.803    34 O    0.172
    36   7 N    3.391 --    37 C    1.139    32 C    0.995    11 C    0.958
                            44 O    0.167
    37   6 C    3.948 --    44 O    1.702    36 N    1.139    38 C    1.018
    38   6 C    3.948 --    39 C    1.537    43 S    1.166    37 C    1.018
    39   6 C    3.984 --    38 C    1.537    40 C    1.300    59 H    0.961
    40   6 C    3.978 --    41 C    1.534    39 C    1.300    60 H    0.962
    41   6 C    3.893 --    40 C    1.534    43 S    1.199    42 Cl   1.016
    42  17 Cl   1.171 --    41 C    1.016
    43  16 S    2.681 --    41 C    1.199    38 C    1.166
    44   8 O    2.044 --    37 C    1.702    36 N    0.167
    45   1 H    0.995 --     6 C    0.965
    46   1 H    0.995 --     7 C    0.969
    47   1 H    0.996 --     8 C    0.969
    48   1 H    0.997 --     9 C    0.966
    49   1 H    0.994 --    11 C    0.951
    50   1 H    0.995 --    12 C    0.948
    51   1 H    0.994 --    19 C    0.965
    52   1 H    0.995 --    20 C    0.968
    53   1 H    0.995 --    21 C    0.968
    54   1 H    0.997 --    22 C    0.966
    55   1 H    0.997 --    26 C    0.959
    56   1 H    0.994 --    27 C    0.960
    57   1 H    0.995 --    32 C    0.927
    58   1 H    0.885 --    34 O    0.838
    59   1 H    0.998 --    39 C    0.961
    60   1 H    0.995 --    40 C    0.962
 ---------------------------------------------------------------------------

molecular dipole:
                 x           y           z       tot (Debye)
 q only:       -0.066      -1.261       3.061
   full:       -0.398      -0.542       3.474       8.993

           -------------------------------------------------
          | TOTAL ENERGY             -134.259638672198 Eh   |
          | GRADIENT NORM               0.000594277151 Eh/Î± |
          | HOMO-LUMO GAP               2.851590456752 eV   |
           -------------------------------------------------

 * finished run on 2022/03/17 at 00:34:57.313
