   * xtb version 6.3.3 (4ae9cef) compiled by 'conda@95abc7406d43' on 2020-10-14
          program call               : xtb acid_48.xyz --opt --chrg 0 --uhf 0 --gfn 2
          number of atoms            :                    74
          number of electrons        :                   218
          charge                     :                     0
          spin                       :                   0.0

   ID    Z sym.   atoms
    1    6 C      1, 3-16, 18, 20-23, 25-27, 29, 30, 34-37, 39-41
    2    8 O      2, 17, 24, 28, 31, 32, 38, 42
    3    7 N      19, 33
    4    1 H      43-74

          :  Hamiltonian                  GFN2-xTB          :
 * total energy  :  -123.2758054 Eh     change       -0.3221572E-08 Eh
 * total energy  :  -123.2896251 Eh     change       -0.1381971E-01 Eh
 * total energy  :  -123.2940602 Eh     change       -0.4435028E-02 Eh
 * total energy  :  -123.2956913 Eh     change       -0.1631155E-02 Eh
 * total energy  :  -123.2971002 Eh     change       -0.1408858E-02 Eh
 * total energy  :  -123.2979991 Eh     change       -0.8988855E-03 Eh
 * total energy  :  -123.2986218 Eh     change       -0.6226995E-03 Eh
 * total energy  :  -123.2991655 Eh     change       -0.5437901E-03 Eh
 * total energy  :  -123.2996953 Eh     change       -0.5297654E-03 Eh
 * total energy  :  -123.3002391 Eh     change       -0.5437692E-03 Eh
 * total energy  :  -123.3116544 Eh     change       -0.1319584E-04 Eh
 * total energy  :  -123.3116552 Eh     change       -0.7551559E-06 Eh
 * total energy  :  -123.3116637 Eh     change       -0.8528433E-05 Eh
 * total energy  :  -123.3116727 Eh     change       -0.8995653E-05 Eh
 * total energy  :  -123.3116814 Eh     change       -0.8632867E-05 Eh
 * total energy  :  -123.3116980 Eh     change       -0.1665832E-04 Eh
 * total energy  :  -123.3117034 Eh     change       -0.5384162E-05 Eh
 * total energy  :  -123.3117225 Eh     change       -0.1906937E-04 Eh
 * total energy  :  -123.3117269 Eh     change       -0.4396958E-05 Eh
   *** GEOMETRY OPTIMIZATION CONVERGED AFTER 94 ITERATIONS ***

 final structure:
================
74
 xtb: 6.3.3 (4ae9cef)
C        -2.14945216457282   -1.28114907180292   -0.19985713006022
O        -1.59542559529407   -1.93828692170783    0.85774376252018
C        -2.03416233243114   -3.24175167918021    1.15021644367257
C        -3.12363059226136   -1.81426739061183   -1.03495293437362
C        -3.62281665425974   -1.06844378319964   -2.08943121035250
C        -3.15193869856523    0.20770249693801   -2.33165487180773
C        -2.18209962611137    0.74334683338899   -1.50237434807207
C        -1.68862690662254    0.02297936734016   -0.42861876067570
C        -0.62386917300236    0.59478952637205    0.46717759842608
C         0.75895157646232    0.51822707798998   -0.22867796160391
C         1.51799451552199   -0.69825199432067    0.22998155722328
C         1.92622588584625   -0.80432260309292    1.54995642566752
C         2.62214599959994   -1.91706683738361    1.98786819371202
C         2.90956466030194   -2.93371064767431    1.09771507521852
C         2.49899013653889   -2.84988066269554   -0.22199024972801
C         1.79346131965042   -1.73884884416312   -0.66645515762035
O         1.34441063413802   -1.57693053844972   -1.94777436843113
C         1.69550253185268   -2.54317688776337   -2.90861661628024
N         1.39918188362121    1.77084933183341    0.13372717546087
C         2.72740864542154    1.99780527231242    0.30672465228949
C         3.62617653331360    1.05019915243246   -0.37819992214150
C         3.66199729154123    0.73803865643289   -1.71004329396825
C         2.88431121354727    1.24955670008636   -2.86854548583404
O         4.63153030904457   -0.17452369674175   -1.93835768899463
C         5.22920137494161   -0.45317729321955   -0.75355527310872
C         6.33635067077372   -1.44481155420281   -0.73695273809539
C         4.66149534712067    0.28589168103159    0.23492008032029
O         3.11058084977442    2.95529240166363    0.95549338754325
C         0.47406406511684    2.69926925431036    0.74435403566004
C         0.93538958803178    3.01973590894671    2.18153728942131
O         1.01538134002103    4.31645769559731    2.40366975219527
O         1.11380185806328    2.16720839173532    3.01192688151928
N        -0.79058764793991    2.00561223381287    0.75334723632439
C        -1.93740441020726    2.67845201620213    1.03526526443581
C        -3.15335945561707    1.85700998651940    1.18402229170950
C        -4.37010048397346    2.13375606924753    0.61904283591169
C        -4.78473487678466    3.22023368135785   -0.30185515842295
O        -5.26706562792156    1.19183009095288    0.97365056877365
C        -4.64310862842965    0.31538571014114    1.79831355308335
C        -5.42974570108826   -0.82370335286130    2.34042979267773
C        -3.34353606634742    0.67595627655739    1.96194220060050
O        -1.94325856047290    3.89208088580884    1.14123889153439
H        -1.82683201345736   -3.93049283172118    0.32515199752302
H        -3.10299194837382   -3.26347428275648    1.38548224510548
H        -1.46446690018752   -3.55092514195751    2.02517189020951
H        -3.50243732480222   -2.81081052887380   -0.87198490237572
H        -4.38402107113288   -1.49626173451792   -2.72471154628106
H        -3.53609781578164    0.78318440281073   -3.15972385850984
H        -1.81398224724632    1.74381573905627   -1.67544796444411
H        -0.58460960114761    0.01963060702084    1.39910349256106
H         0.61936567943242    0.47516887949111   -1.31498083057504
H         1.71617951714125    0.00590823449591    2.23333735055656
H         2.94039045941115   -1.98506918866599    3.01643972824961
H         3.45818621543319   -3.80495125736854    1.42398645757825
H         2.73580313642885   -3.65770896112428   -0.89622948968549
H         2.78184608295239   -2.61898252041458   -3.01970547404142
H         1.28156362267350   -3.52634760447890   -2.66408781151022
H         1.26007749907074   -2.19787591078400   -3.84549212000993
H         2.37632124229131    2.16867252410134   -2.59175110460705
H         3.55208389884379    1.44363609926660   -3.70607184963961
H         2.14400482313298    0.51575408723737   -3.18743060850275
H         6.08548091407608   -2.29733861766472   -1.36490857600735
H         7.25671273533684   -1.00232170913197   -1.11881498511016
H         6.50616862602033   -1.78306488081122    0.28053991496648
H         4.91454461557354    0.28995635671918    1.27404006428921
H         0.40370946670098    3.64701773646859    0.19061248974517
H         1.31772189255798    4.49806784372814    3.30781661782169
H        -4.86145555296610    2.84717969263730   -1.32367497660610
H        -5.75685167677858    3.61004183467486   -0.00760719515430
H        -4.04667426807663    4.01570826265880   -0.26196920285780
H        -6.30218476880758   -0.46113755878920    2.88215830462628
H        -5.78052249742859   -1.46105895226618    1.52875197334925
H        -4.80921778213152   -1.40729585602009    3.01370599083781
H        -2.61700998708975    0.18601129710337    2.57594220217099

          :  Hamiltonian                  GFN2-xTB          :
         :: total energy            -123.311726867361 Eh    ::
         :: gradient norm              0.000422188536 Eh/a0 ::
         :: HOMO-LUMO gap              3.635627902698 eV    ::
         :: SCC energy              -124.953573196027 Eh    ::
         :: -> dispersion             -0.107123265498 Eh    ::
         :: repulsion energy           1.636750658897 Eh    ::

    * Orbital Energies and Occupations

         #    Occupation            Energy/Eh            Energy/eV
      -------------------------------------------------------------
         1        2.0000           -0.7370371             -20.0558
       ...           ...                  ...                  ...
        97        2.0000           -0.4246003             -11.5540
        98        2.0000           -0.4234120             -11.5216
        99        2.0000           -0.4226094             -11.4998
       100        2.0000           -0.4088081             -11.1242
       101        2.0000           -0.4042511             -11.0002
       102        2.0000           -0.3974039             -10.8139
       103        2.0000           -0.3912375             -10.6461
       104        2.0000           -0.3903126             -10.6209
       105        2.0000           -0.3883860             -10.5685
       106        2.0000           -0.3835579             -10.4371
       107        2.0000           -0.3782964             -10.2940
       108        2.0000           -0.3742704             -10.1844
       109        2.0000           -0.3730158             -10.1503 (HOMO)
       110                         -0.2394090              -6.5146 (LUMO)
       111                         -0.2335218              -6.3545
       112                         -0.2291339              -6.2351
       113                         -0.2275127              -6.1909
       114                         -0.2232474              -6.0749
       115                         -0.2211959              -6.0190
       116                         -0.2170956              -5.9075
       117                         -0.1986721              -5.4061
       118                         -0.1952739              -5.3137
       119                         -0.1465887              -3.9889
       120                         -0.1372870              -3.7358
       ...                                ...                  ...
       200                          0.6988518              19.0167
      -------------------------------------------------------------
                  HL-Gap            0.1336069 Eh            3.6356 eV

     #   Z          covCN         q      C6AA      Î±(0)
     1   6 C        2.868     0.140    24.949     8.188
     2   8 O        1.705    -0.272    18.518     5.810
     3   6 C        3.644     0.037    20.288     6.475
     4   6 C        2.918    -0.066    29.648     8.929
     5   6 C        2.921    -0.032    28.793     8.799
     6   6 C        2.918    -0.041    29.009     8.832
     7   6 C        2.924    -0.035    28.864     8.810
     8   6 C        2.974    -0.017    28.426     8.745
     9   6 C        3.822     0.041    19.875     6.344
    10   6 C        3.819     0.040    19.893     6.347
    11   6 C        2.974    -0.019    28.471     8.752
    12   6 C        2.924    -0.035    28.867     8.811
    13   6 C        2.918    -0.038    28.957     8.824
    14   6 C        2.921    -0.033    28.826     8.804
    15   6 C        2.918    -0.066    29.646     8.929
    16   6 C        2.867     0.138    24.989     8.194
    17   8 O        1.705    -0.282    18.680     5.835
    18   6 C        3.643     0.041    20.227     6.465
    19   7 N        2.763    -0.119    23.583     7.212
    20   6 C        2.766     0.276    22.338     7.740
    21   6 C        3.068    -0.059    29.386     8.889
    22   6 C        3.075     0.113    25.438     8.269
    23   6 C        3.753    -0.116    22.788     6.807
    24   8 O        1.731    -0.203    17.381     5.629
    25   6 C        3.077     0.109    25.519     8.282
    26   6 C        3.753    -0.115    22.769     6.804
    27   6 C        3.007    -0.072    29.770     8.950
    28   8 O        0.860    -0.432    22.320     6.334
    29   6 C        3.775     0.099    18.976     6.207
    30   6 C        2.689     0.373    20.677     7.442
    31   8 O        1.660    -0.338    19.686     5.990
    32   8 O        0.856    -0.412    21.933     6.279
    33   7 N        2.762    -0.111    23.414     7.187
    34   6 C        2.760     0.270    22.442     7.758
    35   6 C        3.066    -0.063    29.499     8.906
    36   6 C        3.082     0.122    25.231     8.235
    37   6 C        3.753    -0.119    22.846     6.816
    38   8 O        1.730    -0.201    17.349     5.624
    39   6 C        3.082     0.108    25.528     8.283
    40   6 C        3.753    -0.114    22.733     6.799
    41   6 C        3.007    -0.079    29.957     8.978
    42   8 O        0.860    -0.445    22.597     6.373
    43   1 H        0.924     0.041     2.434     2.440
    44   1 H        0.924     0.044     2.399     2.422
    45   1 H        0.925     0.064     2.147     2.291
    46   1 H        0.926     0.039     2.460     2.453
    47   1 H        0.926     0.039     2.460     2.453
    48   1 H        0.926     0.038     2.470     2.458
    49   1 H        0.926     0.043     2.413     2.429
    50   1 H        0.924     0.075     2.032     2.229
    51   1 H        0.924     0.065     2.143     2.289
    52   1 H        0.926     0.069     2.093     2.262
    53   1 H        0.926     0.042     2.419     2.432
    54   1 H        0.926     0.037     2.489     2.467
    55   1 H        0.926     0.037     2.492     2.469
    56   1 H        0.924     0.046     2.376     2.410
    57   1 H        0.924     0.039     2.457     2.451
    58   1 H        0.925     0.059     2.208     2.324
    59   1 H        0.925     0.054     2.268     2.355
    60   1 H        0.925     0.065     2.142     2.289
    61   1 H        0.925     0.067     2.116     2.275
    62   1 H        0.925     0.059     2.213     2.326
    63   1 H        0.924     0.063     2.169     2.303
    64   1 H        0.925     0.057     2.233     2.337
    65   1 H        0.927     0.046     2.365     2.405
    66   1 H        0.923     0.083     1.953     2.185
    67   1 H        0.804     0.342     0.607     1.223
    68   1 H        0.924     0.058     2.225     2.333
    69   1 H        0.925     0.066     2.131     2.283
    70   1 H        0.925     0.077     2.009     2.217
    71   1 H        0.925     0.063     2.166     2.302
    72   1 H        0.925     0.056     2.245     2.343
    73   1 H        0.925     0.054     2.277     2.359
    74   1 H        0.927     0.040     2.442     2.444

Wiberg/Mayer (AO) data.
largest (>0.10) Wiberg bond orders for each atom

     #   Z sym  total        # sym  WBO       # sym  WBO       # sym  WBO
 ---------------------------------------------------------------------------
     1   6 C    3.934 --     4 C    1.380     8 C    1.324     2 O    1.060
     2   8 O    2.232 --     1 C    1.060     3 C    0.983
     3   6 C    3.944 --     2 O    0.983    45 H    0.979    43 H    0.976
                            44 H    0.976
     4   6 C    3.987 --     5 C    1.435     1 C    1.380    46 H    0.966
                             7 C    0.102
     5   6 C    3.990 --     6 C    1.442     4 C    1.435    47 H    0.971
                             8 C    0.107
     6   6 C    3.991 --     5 C    1.442     7 C    1.427    48 H    0.971
     7   6 C    3.989 --     8 C    1.435     6 C    1.427    49 H    0.967
                             4 C    0.102
     8   6 C    3.984 --     7 C    1.435     1 C    1.324     9 C    0.994
                             5 C    0.107
     9   6 C    3.966 --     8 C    0.994    33 N    0.968    50 H    0.945
                            10 C    0.944
    10   6 C    3.966 --    11 C    0.994    19 N    0.962    51 H    0.950
                             9 C    0.944
    11   6 C    3.983 --    12 C    1.431    16 C    1.331    10 C    0.994
                            14 C    0.107
    12   6 C    3.987 --    11 C    1.431    13 C    1.429    52 H    0.959
                            15 C    0.103
    13   6 C    3.991 --    14 C    1.443    12 C    1.429    53 H    0.970
    14   6 C    3.990 --    13 C    1.443    15 C    1.434    54 H    0.971
                            11 C    0.107
    15   6 C    3.987 --    14 C    1.434    16 C    1.383    55 H    0.966
                            12 C    0.103
    16   6 C    3.933 --    15 C    1.383    11 C    1.331    17 O    1.050
    17   8 O    2.219 --    16 C    1.050    18 C    0.983
    18   6 C    3.945 --    17 O    0.983    58 H    0.979    56 H    0.976
                            57 H    0.976
    19   7 N    3.457 --    20 C    1.209    29 C    0.978    10 C    0.962
                            28 O    0.184
    20   6 C    3.945 --    28 O    1.657    19 N    1.209    21 C    0.993
    21   6 C    3.976 --    22 C    1.536    27 C    1.235    20 C    0.993
    22   6 C    3.914 --    21 C    1.536    24 O    1.116    23 C    1.030
                            25 C    0.127
    23   6 C    3.993 --    22 C    1.030    59 H    0.982    60 H    0.973
                            61 H    0.961
    24   8 O    2.417 --    22 C    1.116    25 C    1.097
    25   6 C    3.909 --    27 C    1.602    24 O    1.097    26 C    1.028
                            22 C    0.127
    26   6 C    3.993 --    25 C    1.028    64 H    0.982    62 H    0.976
                            63 H    0.966
    27   6 C    3.979 --    25 C    1.602    21 C    1.235    65 H    0.974
    28   8 O    2.027 --    20 C    1.657    19 N    0.184
    29   6 C    3.961 --    33 N    0.982    19 N    0.978    66 H    0.945
                            30 C    0.906
    30   6 C    3.920 --    32 O    1.743    31 O    1.181    29 C    0.906
    31   8 O    2.247 --    30 C    1.181    67 H    0.856    32 O    0.179
    32   8 O    2.034 --    30 C    1.743    31 O    0.179
    33   7 N    3.469 --    34 C    1.204    29 C    0.982     9 C    0.968
                            42 O    0.185
    34   6 C    3.948 --    42 O    1.658    33 N    1.204    35 C    1.000
    35   6 C    3.975 --    36 C    1.531    41 C    1.230    34 C    1.000
    36   6 C    3.915 --    35 C    1.531    38 O    1.122    37 C    1.033
                            39 C    0.122
    37   6 C    3.991 --    36 C    1.033    70 H    0.977    69 H    0.972
                            68 H    0.964
    38   8 O    2.421 --    36 C    1.122    39 C    1.096
    39   6 C    3.909 --    41 C    1.604    38 O    1.096    40 C    1.028
                            36 C    0.122
    40   6 C    3.994 --    39 C    1.028    73 H    0.984    71 H    0.971
                            72 H    0.970
    41   6 C    3.979 --    39 C    1.604    35 C    1.230    74 H    0.972
    42   8 O    1.991 --    34 C    1.658    33 N    0.185
    43   1 H    0.998 --     3 C    0.976
    44   1 H    0.998 --     3 C    0.976
    45   1 H    0.995 --     3 C    0.979
    46   1 H    0.998 --     4 C    0.966
    47   1 H    0.998 --     5 C    0.971
    48   1 H    0.998 --     6 C    0.971
    49   1 H    0.998 --     7 C    0.967
    50   1 H    0.994 --     9 C    0.945
    51   1 H    0.995 --    10 C    0.950
    52   1 H    0.995 --    12 C    0.959
    53   1 H    0.998 --    13 C    0.970
    54   1 H    0.998 --    14 C    0.971
    55   1 H    0.998 --    15 C    0.966
    56   1 H    0.998 --    18 C    0.976
    57   1 H    0.998 --    18 C    0.976
    58   1 H    0.996 --    18 C    0.979
    59   1 H    0.997 --    23 C    0.982
    60   1 H    0.996 --    23 C    0.973
    61   1 H    0.995 --    23 C    0.961
    62   1 H    0.996 --    26 C    0.976
    63   1 H    0.996 --    26 C    0.966
    64   1 H    0.996 --    26 C    0.982
    65   1 H    0.998 --    27 C    0.974
    66   1 H    0.992 --    29 C    0.945
    67   1 H    0.882 --    31 O    0.856
    68   1 H    0.996 --    37 C    0.964
    69   1 H    0.995 --    37 C    0.972
    70   1 H    0.994 --    37 C    0.977
    71   1 H    0.996 --    40 C    0.971
    72   1 H    0.996 --    40 C    0.970
    73   1 H    0.997 --    40 C    0.984
    74   1 H    0.998 --    41 C    0.972
 ---------------------------------------------------------------------------

molecular dipole:
                 x           y           z       tot (Debye)
 q only:       -0.568      -3.037      -1.452
   full:       -0.575      -3.427      -1.500       9.621

           -------------------------------------------------
          | TOTAL ENERGY             -123.311726867361 Eh   |
          | GRADIENT NORM               0.000422188536 Eh/Î± |
          | HOMO-LUMO GAP               3.635627902698 eV   |
           -------------------------------------------------

 * finished run on 2022/03/17 at 01:41:35.348
