   * xtb version 6.3.3 (4ae9cef) compiled by 'conda@95abc7406d43' on 2020-10-14
          program call               : xtb alk_2.xyz --opt --chrg 0 --uhf 0 --gfn 2
          number of atoms            :                    23
          number of electrons        :                    58
          charge                     :                     0
          spin                       :                   0.0

   ID    Z sym.   atoms
    1    6 C      1, 3-11
    2    8 O      2
    3    1 H      12-23

          :  Hamiltonian                  GFN2-xTB          :
 * total energy  :   -31.5501971 Eh     change       -0.2907640E-08 Eh
 * total energy  :   -31.5528553 Eh     change       -0.2658130E-02 Eh
 * total energy  :   -31.5532237 Eh     change       -0.3684071E-03 Eh
 * total energy  :   -31.5533353 Eh     change       -0.1116444E-03 Eh
 * total energy  :   -31.5533979 Eh     change       -0.6257388E-04 Eh
 * total energy  :   -31.5534234 Eh     change       -0.2550002E-04 Eh
 * total energy  :   -31.5534427 Eh     change       -0.1930572E-04 Eh
 * total energy  :   -31.5534558 Eh     change       -0.1311692E-04 Eh
 * total energy  :   -31.5534625 Eh     change       -0.6680880E-05 Eh
 * total energy  :   -31.5534661 Eh     change       -0.3610194E-05 Eh
   *** GEOMETRY OPTIMIZATION CONVERGED AFTER 10 ITERATIONS ***

 final structure:
================
23
 xtb: 6.3.3 (4ae9cef)
C        -3.95830104007130    0.37823185485677    0.30306916027490
O        -2.95628403563396   -0.29538905707358    1.02272187839350
C        -1.69728376669808   -0.34126045077990    0.49739408835617
C        -0.75429985052200   -1.05531222926243    1.23738703254516
C         0.54417621960482   -1.16863176169494    0.79003280081389
C         0.94382084735879   -0.57821291362334   -0.40440771677422
C         2.36397933426270   -0.68607763775930   -0.87914204540087
C         3.25275214506294    0.41662578250144   -0.37450352188555
C         2.88261773810162    1.40291694578290    0.41901360558350
C         0.00296418224069    0.13590507266692   -1.12913716550548
C        -1.30609230639685    0.25859356838584   -0.69313956536938
H        -4.86964196108240    0.26198409313815    0.88750420181670
H        -3.73170793836663    1.44437257715890    0.19638969206928
H        -4.10657109950965   -0.06190146178129   -0.68862771986704
H        -1.06915592419653   -1.51427074620947    2.16131951786162
H         1.26192297318894   -1.72408299941651    1.37624383656362
H         2.79096638128416   -1.64100003779890   -0.55668612359930
H         2.39214327410523   -0.67179924332230   -1.97330573445024
H         4.27754001145835    0.35173929132343   -0.71982981075272
H         3.57771022556614    2.15976959350917    0.74115426292529
H         1.87195551670690    1.49519281436160    0.78031467983847
H         0.29266530938000    0.61037206660126   -2.05606706828143
H        -2.00587423584405    0.82223487843551   -1.29024728515589

          :  Hamiltonian                  GFN2-xTB          :
         :: total energy             -31.553466102889 Eh    ::
         :: gradient norm              0.000338716755 Eh/a0 ::
         :: HOMO-LUMO gap              4.160505068265 eV    ::
         :: SCC energy               -32.071145390941 Eh    ::
         :: -> dispersion             -0.019138798004 Eh    ::
         :: repulsion energy           0.517643847244 Eh    ::

    * Orbital Energies and Occupations

         #    Occupation            Energy/Eh            Energy/eV
      -------------------------------------------------------------
         1        2.0000           -0.7112993             -19.3554
       ...           ...                  ...                  ...
        17        2.0000           -0.4902860             -13.3414
        18        2.0000           -0.4800992             -13.0642
        19        2.0000           -0.4747055             -12.9174
        20        2.0000           -0.4668890             -12.7047
        21        2.0000           -0.4621700             -12.5763
        22        2.0000           -0.4560652             -12.4102
        23        2.0000           -0.4432629             -12.0618
        24        2.0000           -0.4339177             -11.8075
        25        2.0000           -0.4202483             -11.4355
        26        2.0000           -0.4156498             -11.3104
        27        2.0000           -0.4007345             -10.9045
        28        2.0000           -0.3957592             -10.7692
        29        2.0000           -0.3711063             -10.0983 (HOMO)
        30                         -0.2182106              -5.9378 (LUMO)
        31                         -0.2083306              -5.6690
        32                         -0.1960682              -5.3353
        33                         -0.0857909              -2.3345
        34                          0.0368164               1.0018
        35                          0.0973112               2.6480
        36                          0.1152470               3.1360
        37                          0.1215332               3.3071
        38                          0.1303030               3.5457
        39                          0.1500953               4.0843
        40                          0.1632513               4.4423
       ...                                ...                  ...
        56                          0.6734024              18.3242
      -------------------------------------------------------------
                  HL-Gap            0.1528957 Eh            4.1605 eV

     #   Z          covCN         q      C6AA      Î±(0)
     1   6 C        3.644     0.040    20.235     6.466
     2   8 O        1.705    -0.274    18.547     5.815
     3   6 C        2.866     0.139    24.961     8.190
     4   6 C        2.919    -0.056    29.395     8.891
     5   6 C        2.925    -0.037    28.919     8.819
     6   6 C        2.968     0.006    27.888     8.662
     7   6 C        3.811    -0.062    21.680     6.628
     8   6 C        2.886    -0.025    28.624     8.771
     9   6 C        2.836    -0.094    30.352     9.028
    10   6 C        2.927    -0.039    28.968     8.826
    11   6 C        2.916    -0.068    29.702     8.937
    12   1 H        0.925     0.059     2.206     2.323
    13   1 H        0.924     0.038     2.476     2.461
    14   1 H        0.924     0.038     2.476     2.461
    15   1 H        0.926     0.045     2.379     2.412
    16   1 H        0.926     0.035     2.515     2.480
    17   1 H        0.924     0.046     2.368     2.407
    18   1 H        0.924     0.045     2.377     2.411
    19   1 H        0.925     0.029     2.602     2.523
    20   1 H        0.926     0.033     2.540     2.492
    21   1 H        0.926     0.037     2.485     2.465
    22   1 H        0.926     0.031     2.565     2.505
    23   1 H        0.926     0.032     2.563     2.503

Wiberg/Mayer (AO) data.
largest (>0.10) Wiberg bond orders for each atom

     #   Z sym  total        # sym  WBO       # sym  WBO       # sym  WBO
 ---------------------------------------------------------------------------
     1   6 C    3.949 --     2 O    0.988    12 H    0.980    14 H    0.977
                            13 H    0.977
     2   8 O    2.222 --     3 C    1.054     1 C    0.988
     3   6 C    3.933 --    11 C    1.379     4 C    1.349     2 O    1.054
     4   6 C    3.988 --     5 C    1.474     3 C    1.349    15 H    0.968
                            10 C    0.109
     5   6 C    3.991 --     4 C    1.474     6 C    1.391    16 H    0.969
                            11 C    0.103
     6   6 C    3.989 --    10 C    1.422     5 C    1.391     7 C    1.011
     7   6 C    3.998 --     6 C    1.011     8 C    1.009    18 H    0.956
                            17 H    0.956
     8   6 C    3.990 --     9 C    1.979     7 C    1.009    19 H    0.966
     9   6 C    3.992 --     8 C    1.979    20 H    0.977    21 H    0.974
    10   6 C    3.992 --    11 C    1.437     6 C    1.422    22 H    0.970
                             4 C    0.109
    11   6 C    3.988 --    10 C    1.437     3 C    1.379    23 H    0.966
                             5 C    0.103
    12   1 H    0.996 --     1 C    0.980
    13   1 H    0.998 --     1 C    0.977
    14   1 H    0.998 --     1 C    0.977
    15   1 H    0.998 --     4 C    0.968
    16   1 H    0.998 --     5 C    0.969
    17   1 H    0.997 --     7 C    0.956
    18   1 H    0.997 --     7 C    0.956
    19   1 H    0.998 --     8 C    0.966
    20   1 H    0.999 --     9 C    0.977
    21   1 H    0.999 --     9 C    0.974
    22   1 H    0.999 --    10 C    0.970
    23   1 H    0.999 --    11 C    0.966
 ---------------------------------------------------------------------------

molecular dipole:
                 x           y           z       tot (Debye)
 q only:       -0.116       0.077      -0.363
   full:       -0.172       0.156      -0.497       1.393

           -------------------------------------------------
          | TOTAL ENERGY              -31.553466102889 Eh   |
          | GRADIENT NORM               0.000338716755 Eh/Î± |
          | HOMO-LUMO GAP               4.160505068265 eV   |
           -------------------------------------------------

 * finished run on 2022/03/17 at 02:19:30.203
