   * xtb version 6.3.3 (4ae9cef) compiled by 'conda@95abc7406d43' on 2020-10-14
          program call               : xtb acid_282.xyz --opt --chrg 0 --uhf 0 --gfn 2
          number of atoms            :                    74
          number of electrons        :                   214
          charge                     :                     0
          spin                       :                   0.0

   ID    Z sym.   atoms
    1    6 C      1, 3-16, 18, 20-27, 29, 30, 34-41
    2    8 O      2, 17, 28, 31, 32, 42
    3    7 N      19, 33
    4    1 H      43-74

          :  Hamiltonian                  GFN2-xTB          :
 * total energy  :  -119.3869255 Eh     change       -0.4427733E-08 Eh
 * total energy  :  -119.4014207 Eh     change       -0.1449513E-01 Eh
 * total energy  :  -119.4062243 Eh     change       -0.4803667E-02 Eh
 * total energy  :  -119.4078891 Eh     change       -0.1664808E-02 Eh
 * total energy  :  -119.4090824 Eh     change       -0.1193300E-02 Eh
 * total energy  :  -119.4097983 Eh     change       -0.7158950E-03 Eh
 * total energy  :  -119.4103807 Eh     change       -0.5824120E-03 Eh
 * total energy  :  -119.4109891 Eh     change       -0.6083292E-03 Eh
 * total energy  :  -119.4116488 Eh     change       -0.6597663E-03 Eh
 * total energy  :  -119.4122655 Eh     change       -0.6167172E-03 Eh
 * total energy  :  -119.4230874 Eh     change       -0.1930266E-04 Eh
 * total energy  :  -119.4231008 Eh     change       -0.1332526E-04 Eh
 * total energy  :  -119.4231108 Eh     change       -0.9994255E-05 Eh
 * total energy  :  -119.4231195 Eh     change       -0.8751437E-05 Eh
 * total energy  :  -119.4231288 Eh     change       -0.9243890E-05 Eh
 * total energy  :  -119.4231369 Eh     change       -0.8187024E-05 Eh
 * total energy  :  -119.4231451 Eh     change       -0.8133571E-05 Eh
 * total energy  :  -119.4231539 Eh     change       -0.8780913E-05 Eh
 * total energy  :  -119.4231575 Eh     change       -0.3683353E-05 Eh
   *** GEOMETRY OPTIMIZATION CONVERGED AFTER 122 ITERATIONS ***

 final structure:
================
74
 xtb: 6.3.3 (4ae9cef)
C        -3.32018507897742   -1.68414424158288   -0.25239462835131
O        -2.70221494438915   -2.78802938599401    0.24782589457935
C        -3.34115648625679   -4.03439448263469    0.13264037678731
C        -4.56992306525543   -1.67885808754246   -0.85689726440165
C        -5.11458022522234   -0.49036560031112   -1.31703240212470
C        -4.42534171101714    0.69724459120743   -1.17575063028729
C        -3.17482899735940    0.69548806161730   -0.57697948692502
C        -2.61087969087331   -0.47925570935269   -0.11947176368352
C        -1.25089742321358   -0.54490184962216    0.52559435201513
C        -0.19005464106788   -1.16159444885611   -0.42361387176152
C         0.26321835410094   -2.52661241583858    0.01157344822700
C         0.89839604953055   -2.69752870816720    1.22880912071234
C         1.32707110796037   -3.94675384397556    1.64127896775999
C         1.11346948099398   -5.03827806103714    0.82239584592058
C         0.47631635093142   -4.88835325948765   -0.39772443184929
C         0.04536639833705   -3.63547998361333   -0.81671440369994
O        -0.60223615583122   -3.40205272872660   -1.99275741486195
C        -0.71722761420631   -4.45539043462319   -2.91642234153514
N         0.90591558220406   -0.19584933129671   -0.38104778676819
C         2.14485514108275   -0.45786656496800   -0.87512906444065
C         3.13211723168977    0.64836922203436   -0.65474641139852
C         3.67899309301752    1.34122047197415   -1.73496978339475
C         3.27003392588208    0.99742038232525   -3.13309493114497
C         4.60772121929618    2.34103106624942   -1.47757788561974
C         4.99881487392173    2.63828965585726   -0.18393279781075
C         4.47191380811720    1.92773215565401    0.88053394448439
C         3.54035477591699    0.93385836126036    0.64258933782280
O         2.43412697492567   -1.51061676303091   -1.40145979902839
C         0.40518142724818    1.08586021932569    0.02652940094063
C        -0.11510110785637    1.93092662178239   -1.15711918940146
O        -0.19381182716198    1.24504075101025   -2.29145321227932
O        -0.43196342618390    3.08424132285675   -1.05574938063966
N        -0.70138476649727    0.75173635305871    0.88751401522573
C        -1.06719629495600    1.37560888200588    2.04165989081951
C        -0.27414629407801    2.60078270595187    2.37287073813017
C         0.98407164088291    2.44155877735840    2.94332537149924
C         1.74141017340519    3.54565683794249    3.28730551032218
C         1.23643790547395    4.81526517312152    3.06428991147389
C        -0.02222623076369    4.97304924801831    2.51419964751917
C        -0.79917255580991    3.87535335362613    2.16449707718874
C        -2.14966001242298    4.05763816197368    1.54814054042738
O        -1.95997170389549    0.94051797445777    2.73692715270756
H        -4.28773948812381   -4.05555975961311    0.68244072696444
H        -2.65200513483740   -4.75456290651149    0.57207278858971
H        -3.52251178701497   -4.29679818833214   -0.91468863188092
H        -5.13232501889040   -2.59243169116415   -0.96783435408566
H        -6.08945478575319   -0.50109303717326   -1.78139853284407
H        -4.85566254779809    1.62399981991887   -1.52303727822724
H        -2.64323766374669    1.62620783205743   -0.45043336789931
H        -1.34471590779032   -1.14433931345784    1.43947458875601
H        -0.58498620291819   -1.22714994128428   -1.44338608623531
H         1.06586196298106   -1.83549381799099    1.85901959171415
H         1.82573188086312   -4.06502116500633    2.59104405399476
H         1.44475183625390   -6.01992388117633    1.12786828333959
H         0.32607894227567   -5.75816958452789   -1.01793916188803
H        -1.19723276679481   -4.02517673412746   -3.79478855102310
H         0.26363927410987   -4.85004167723976   -3.19822751509183
H        -1.34020861981915   -5.26945952866062   -2.52933315064286
H         3.77655929501468    1.63314564307236   -3.85494578578625
H         2.19331231123165    1.10512178685379   -3.25680280762843
H         3.51564826777417   -0.04315601171770   -3.33958061569728
H         5.03427216250396    2.89041753556589   -2.30457451466215
H         5.72297341014485    3.41958667680624   -0.00715303298399
H         4.78579199825843    2.14443534584060    1.89024244327447
H         3.13502996998982    0.36004099240718    1.46386569643628
H         1.15171666147955    1.69451880945907    0.55112786439425
H        -0.56536314956973    1.79022138879209   -3.00502637832271
H         1.36136449163962    1.44546419683916    3.12907644551295
H         2.71753408955912    3.41569966666762    3.72968562265211
H         1.82226203178305    5.68367918512802    3.32725910129740
H        -0.41521457766049    5.96627181054598    2.35206267966261
H        -2.05428943843586    4.01569982352735    0.46267386291475
H        -2.56875588364544    5.02450017956453    1.81571396524608
H        -2.83045387470113    3.27179809498169    1.86706238697515

          :  Hamiltonian                  GFN2-xTB          :
         :: total energy            -119.423157538806 Eh    ::
         :: gradient norm              0.000196792308 Eh/a0 ::
         :: HOMO-LUMO gap              2.892861545736 eV    ::
         :: SCC energy              -121.176919270362 Eh    ::
         :: -> dispersion             -0.104444060305 Eh    ::
         :: repulsion energy           1.749557800360 Eh    ::

    * Orbital Energies and Occupations

         #    Occupation            Energy/Eh            Energy/eV
      -------------------------------------------------------------
         1        2.0000           -0.7750761             -21.0909
       ...           ...                  ...                  ...
        95        2.0000           -0.4227078             -11.5025
        96        2.0000           -0.4116526             -11.2016
        97        2.0000           -0.4080562             -11.1038
        98        2.0000           -0.4061709             -11.0525
        99        2.0000           -0.4044229             -11.0049
       100        2.0000           -0.4009268             -10.9098
       101        2.0000           -0.3975899             -10.8190
       102        2.0000           -0.3955363             -10.7631
       103        2.0000           -0.3926747             -10.6852
       104        2.0000           -0.3892344             -10.5916
       105        2.0000           -0.3868782             -10.5275
       106        2.0000           -0.3816236             -10.3845
       107        2.0000           -0.3719310             -10.1208 (HOMO)
       108                         -0.2656203              -7.2279 (LUMO)
       109                         -0.2403133              -6.5393
       110                         -0.2308745              -6.2824
       111                         -0.2288585              -6.2276
       112                         -0.2280179              -6.2047
       113                         -0.2227154              -6.0604
       114                         -0.2201558              -5.9907
       115                         -0.2167410              -5.8978
       116                         -0.2103029              -5.7226
       117                         -0.2084941              -5.6734
       118                         -0.2031666              -5.5284
       ...                                ...                  ...
       200                          0.6703369              18.2408
      -------------------------------------------------------------
                  HL-Gap            0.1063107 Eh            2.8929 eV

     #   Z          covCN         q      C6AA      Î±(0)
     1   6 C        2.871     0.142    24.910     8.181
     2   8 O        1.706    -0.269    18.459     5.801
     3   6 C        3.644     0.040    20.231     6.465
     4   6 C        2.917    -0.066    29.632     8.926
     5   6 C        2.921    -0.033    28.812     8.802
     6   6 C        2.918    -0.042    29.047     8.838
     7   6 C        2.922    -0.033    28.827     8.805
     8   6 C        2.972    -0.014    28.370     8.737
     9   6 C        3.829     0.043    19.829     6.336
    10   6 C        3.828     0.044    19.810     6.333
    11   6 C        2.973    -0.001    28.037     8.685
    12   6 C        2.925    -0.029    28.724     8.789
    13   6 C        2.917    -0.039    28.976     8.827
    14   6 C        2.921    -0.031    28.784     8.798
    15   6 C        2.918    -0.065    29.612     8.924
    16   6 C        2.868     0.151    24.724     8.151
    17   8 O        1.705    -0.268    18.438     5.798
    18   6 C        3.644     0.040    20.244     6.467
    19   7 N        2.769    -0.112    23.436     7.190
    20   6 C        2.760     0.275    22.351     7.742
    21   6 C        2.982    -0.032    28.786     8.801
    22   6 C        2.968     0.023    27.494     8.601
    23   6 C        3.758    -0.111    22.680     6.790
    24   6 C        2.925    -0.038    28.937     8.822
    25   6 C        2.919    -0.029    28.733     8.790
    26   6 C        2.919    -0.033    28.812     8.802
    27   6 C        2.923    -0.032    28.810     8.802
    28   8 O        0.858    -0.419    22.064     6.298
    29   6 C        3.768     0.086    19.191     6.243
    30   6 C        2.688     0.351    21.042     7.507
    31   8 O        1.659    -0.354    19.969     6.033
    32   8 O        0.856    -0.395    21.582     6.229
    33   7 N        2.768    -0.114    23.488     7.198
    34   6 C        2.762     0.275    22.349     7.742
    35   6 C        2.981    -0.028    28.692     8.787
    36   6 C        2.923    -0.032    28.803     8.801
    37   6 C        2.919    -0.034    28.844     8.807
    38   6 C        2.919    -0.030    28.738     8.791
    39   6 C        2.926    -0.035    28.879     8.813
    40   6 C        2.967     0.030    27.322     8.574
    41   6 C        3.758    -0.114    22.727     6.797
    42   8 O        0.859    -0.419    22.055     6.297
    43   1 H        0.924     0.043     2.407     2.426
    44   1 H        0.925     0.061     2.185     2.312
    45   1 H        0.924     0.041     2.435     2.440
    46   1 H        0.926     0.039     2.463     2.454
    47   1 H        0.926     0.037     2.483     2.464
    48   1 H        0.926     0.037     2.493     2.469
    49   1 H        0.926     0.035     2.520     2.483
    50   1 H        0.924     0.084     1.940     2.178
    51   1 H        0.924     0.073     2.055     2.242
    52   1 H        0.926     0.032     2.557     2.500
    53   1 H        0.926     0.037     2.493     2.469
    54   1 H        0.926     0.036     2.499     2.472
    55   1 H        0.926     0.037     2.486     2.465
    56   1 H        0.925     0.059     2.212     2.326
    57   1 H        0.924     0.046     2.365     2.405
    58   1 H        0.924     0.036     2.503     2.474
    59   1 H        0.925     0.043     2.407     2.426
    60   1 H        0.925     0.043     2.409     2.427
    61   1 H        0.925     0.069     2.102     2.267
    62   1 H        0.926     0.038     2.481     2.463
    63   1 H        0.926     0.037     2.488     2.467
    64   1 H        0.926     0.037     2.493     2.469
    65   1 H        0.926     0.030     2.583     2.513
    66   1 H        0.924     0.077     2.009     2.216
    67   1 H        0.804     0.342     0.608     1.225
    68   1 H        0.925     0.027     2.631     2.537
    69   1 H        0.926     0.034     2.532     2.488
    70   1 H        0.926     0.035     2.511     2.478
    71   1 H        0.926     0.040     2.452     2.449
    72   1 H        0.924     0.063     2.162     2.299
    73   1 H        0.925     0.047     2.362     2.403
    74   1 H        0.925     0.055     2.258     2.350

Wiberg/Mayer (AO) data.
largest (>0.10) Wiberg bond orders for each atom

     #   Z sym  total        # sym  WBO       # sym  WBO       # sym  WBO
 ---------------------------------------------------------------------------
     1   6 C    3.934 --     4 C    1.387     8 C    1.312     2 O    1.065
     2   8 O    2.240 --     1 C    1.065     3 C    0.984
     3   6 C    3.945 --     2 O    0.984    44 H    0.979    43 H    0.976
                            45 H    0.976
     4   6 C    3.987 --     5 C    1.428     1 C    1.387    46 H    0.966
                             7 C    0.100
     5   6 C    3.991 --     6 C    1.451     4 C    1.428    47 H    0.971
                             8 C    0.106
     6   6 C    3.991 --     5 C    1.451     7 C    1.415    48 H    0.971
     7   6 C    3.990 --     8 C    1.449     6 C    1.415    49 H    0.964
                             4 C    0.100
     8   6 C    3.984 --     7 C    1.449     1 C    1.312     9 C    0.992
                             5 C    0.106
     9   6 C    3.961 --     8 C    0.992    33 N    0.964    10 C    0.948
                            50 H    0.943
    10   6 C    3.961 --    11 C    0.996    19 N    0.951    51 H    0.951
                             9 C    0.948
    11   6 C    3.984 --    12 C    1.437    16 C    1.325    10 C    0.996
                            14 C    0.107
    12   6 C    3.991 --    11 C    1.437    13 C    1.427    52 H    0.968
                            15 C    0.102
    13   6 C    3.991 --    14 C    1.443    12 C    1.427    53 H    0.971
    14   6 C    3.990 --    13 C    1.443    15 C    1.435    54 H    0.971
                            11 C    0.107
    15   6 C    3.987 --    14 C    1.435    16 C    1.381    55 H    0.966
                            12 C    0.102
    16   6 C    3.935 --    15 C    1.381    11 C    1.325    17 O    1.061
    17   8 O    2.233 --    16 C    1.061    18 C    0.985
    18   6 C    3.947 --    17 O    0.985    56 H    0.980    57 H    0.976
                            58 H    0.976
    19   7 N    3.464 --    20 C    1.203    29 C    0.998    10 C    0.951
                            28 O    0.189
    20   6 C    3.944 --    28 O    1.697    19 N    1.203    21 C    0.958
    21   6 C    3.986 --    27 C    1.408    22 C    1.377    20 C    0.958
                            25 C    0.109
    22   6 C    3.988 --    24 C    1.413    21 C    1.377    23 C    1.029
                            26 C    0.106
    23   6 C    3.995 --    22 C    1.029    59 H    0.986    60 H    0.970
                            61 H    0.966
    24   6 C    3.991 --    25 C    1.444    22 C    1.413    62 H    0.968
                            27 C    0.108
    25   6 C    3.992 --    24 C    1.444    26 C    1.435    63 H    0.971
                            21 C    0.109
    26   6 C    3.991 --    27 C    1.440    25 C    1.435    64 H    0.970
                            22 C    0.106
    27   6 C    3.991 --    26 C    1.440    21 C    1.408    65 H    0.968
                            24 C    0.108
    28   8 O    2.024 --    20 C    1.697    19 N    0.189
    29   6 C    3.973 --    19 N    0.998    33 N    0.982    66 H    0.931
                            30 C    0.907
    30   6 C    3.917 --    32 O    1.768    31 O    1.162    29 C    0.907
    31   8 O    2.230 --    30 C    1.162    67 H    0.856    32 O    0.182
    32   8 O    2.052 --    30 C    1.768    31 O    0.182
    33   7 N    3.465 --    34 C    1.196    29 C    0.982     9 C    0.964
                            42 O    0.187
    34   6 C    3.941 --    42 O    1.700    33 N    1.196    35 C    0.959
    35   6 C    3.986 --    36 C    1.403    40 C    1.380    34 C    0.959
                            38 C    0.107
    36   6 C    3.991 --    37 C    1.442    35 C    1.403    68 H    0.969
                            39 C    0.109
    37   6 C    3.992 --    36 C    1.442    38 C    1.432    69 H    0.970
                            40 C    0.107
    38   6 C    3.992 --    39 C    1.450    37 C    1.432    70 H    0.971
                            35 C    0.107
    39   6 C    3.991 --    38 C    1.450    40 C    1.407    71 H    0.968
                            36 C    0.109
    40   6 C    3.987 --    39 C    1.407    35 C    1.380    41 C    1.030
                            37 C    0.107
    41   6 C    3.995 --    40 C    1.030    73 H    0.982    74 H    0.976
                            72 H    0.958
    42   8 O    2.023 --    34 C    1.700    33 N    0.187
    43   1 H    0.998 --     3 C    0.976
    44   1 H    0.996 --     3 C    0.979
    45   1 H    0.998 --     3 C    0.976
    46   1 H    0.998 --     4 C    0.966
    47   1 H    0.998 --     5 C    0.971
    48   1 H    0.998 --     6 C    0.971
    49   1 H    0.998 --     7 C    0.964
    50   1 H    0.993 --     9 C    0.943
    51   1 H    0.994 --    10 C    0.951
    52   1 H    0.998 --    12 C    0.968
    53   1 H    0.998 --    13 C    0.971
    54   1 H    0.998 --    14 C    0.971
    55   1 H    0.998 --    15 C    0.966
    56   1 H    0.996 --    18 C    0.980
    57   1 H    0.998 --    18 C    0.976
    58   1 H    0.999 --    18 C    0.976
    59   1 H    0.998 --    23 C    0.986
    60   1 H    0.998 --    23 C    0.970
    61   1 H    0.995 --    23 C    0.966
    62   1 H    0.998 --    24 C    0.968
    63   1 H    0.998 --    25 C    0.971
    64   1 H    0.997 --    26 C    0.970
    65   1 H    0.999 --    27 C    0.968
    66   1 H    0.993 --    29 C    0.931
    67   1 H    0.883 --    31 O    0.856
    68   1 H    0.999 --    36 C    0.969
    69   1 H    0.998 --    37 C    0.970
    70   1 H    0.998 --    38 C    0.971
    71   1 H    0.998 --    39 C    0.968
    72   1 H    0.996 --    41 C    0.958
    73   1 H    0.998 --    41 C    0.982
    74   1 H    0.997 --    41 C    0.976
 ---------------------------------------------------------------------------

molecular dipole:
                 x           y           z       tot (Debye)
 q only:       -0.282      -0.347      -1.352
   full:       -0.236      -0.314      -1.558       4.084

           -------------------------------------------------
          | TOTAL ENERGY             -119.423157538806 Eh   |
          | GRADIENT NORM               0.000196792308 Eh/Î± |
          | HOMO-LUMO GAP               2.892861545736 eV   |
           -------------------------------------------------

 * finished run on 2022/03/16 at 23:20:53.574
