   * xtb version 6.3.3 (4ae9cef) compiled by 'conda@95abc7406d43' on 2020-10-14
          program call               : xtb acid_392.xyz --opt --chrg 0 --uhf 0 --gfn 2
          number of atoms            :                    72
          number of electrons        :                   214
          charge                     :                     0
          spin                       :                   0.0

   ID    Z sym.   atoms
    1    8 O      1, 12, 13, 22
    2    6 C      2-8, 10, 11, 15-21, 23-44
    3    7 N      9, 14
    4    1 H      45-72

          :  Hamiltonian                  GFN2-xTB          :
 * total energy  :  -117.7753604 Eh     change       -0.2748465E-08 Eh
 * total energy  :  -117.7925329 Eh     change       -0.1717251E-01 Eh
 * total energy  :  -117.7971388 Eh     change       -0.4605975E-02 Eh
 * total energy  :  -117.7983884 Eh     change       -0.1249559E-02 Eh
 * total energy  :  -117.7991018 Eh     change       -0.7134434E-03 Eh
 * total energy  :  -117.7994419 Eh     change       -0.3400240E-03 Eh
 * total energy  :  -117.7997608 Eh     change       -0.3189311E-03 Eh
 * total energy  :  -117.8000878 Eh     change       -0.3270096E-03 Eh
 * total energy  :  -117.8004515 Eh     change       -0.3637152E-03 Eh
 * total energy  :  -117.8008019 Eh     change       -0.3503453E-03 Eh
 * total energy  :  -117.8063937 Eh     change       -0.2457598E-04 Eh
 * total energy  :  -117.8064162 Eh     change       -0.2250556E-04 Eh
 * total energy  :  -117.8064355 Eh     change       -0.1932457E-04 Eh
 * total energy  :  -117.8064514 Eh     change       -0.1590113E-04 Eh
 * total energy  :  -117.8064663 Eh     change       -0.1488138E-04 Eh
 * total energy  :  -117.8064782 Eh     change       -0.1189090E-04 Eh
 * total energy  :  -117.8064911 Eh     change       -0.1287627E-04 Eh
 * total energy  :  -117.8065019 Eh     change       -0.1086055E-04 Eh
 * total energy  :  -117.8065022 Eh     change       -0.2953178E-06 Eh
   *** GEOMETRY OPTIMIZATION CONVERGED AFTER 68 ITERATIONS ***

 final structure:
================
72
 xtb: 6.3.3 (4ae9cef)
O         0.58127265724374   -3.58207362979385    1.19955936260863
C         1.04704664663096   -2.46249751576790    0.99687334235807
C         2.50190339189118   -2.14683351324681    1.09410303871583
C         3.00107289210431   -1.52210606186354    2.23071797258010
C         4.34514360420741   -1.20528028520752    2.30963675356050
C         5.19251381294175   -1.50767009086378    1.25706477653372
C         4.69941023232750   -2.14876254795303    0.13373953505122
C         3.35745356840653   -2.47502564005277    0.05156919408644
N         0.26251664194532   -1.41589004346777    0.69343476027765
C        -1.15809001815832   -1.54614750009421    0.34768909762685
C        -2.06636079362949   -1.85758563846343    1.57710602276480
O        -1.71640416323387   -2.92733750898911    2.25648757511878
O        -3.03499180560768   -1.19895504812340    1.82279502607465
N        -1.46970405937145   -0.28449584992123   -0.25911418251826
C        -1.98545631379613   -0.11015539897941   -1.51256712568382
C        -2.71748050747596   -1.27768525689735   -2.07343178606390
C        -2.40006751055688   -1.71052086303444   -3.35680346030041
C        -3.08191126522865   -2.77651186376914   -3.91494433267585
C        -4.09462481080811   -3.39988145101628   -3.20381880498448
C        -4.42925160640809   -2.95357388440556   -1.93557306832693
C        -3.74312759792320   -1.89592053636830   -1.36487763336462
O        -1.86581881614560    0.94057131006927   -2.10947147721053
C        -0.58406760474035    0.72154013975888    0.31905720296583
C        -1.13248487071915    1.22832100957809    1.63382619626396
C        -0.75328229264260    0.66211515663506    2.82513112242963
C        -1.27416121465706    1.10497923035146    4.04767298819228
C        -2.17651514265984    2.12683436316034    4.07529817639590
C        -2.60344275106776    2.73567430998548    2.87827058378698
C        -2.09286837830673    2.27857566713866    1.63183997177909
C        -2.57745409256766    2.89038207812102    0.45417687078721
C        -3.49070778462339    3.90683223262350    0.51219646849318
C        -3.97504334159970    4.36873940727050    1.74378692108179
C        -3.54220576032801    3.78833057167025    2.90124337873266
C         0.73711296315011   -0.06797301303952    0.41525939606145
C         1.49513079037667    0.02723526739502   -0.88926518877029
C         2.39983545507605    1.10238444278007   -1.10181073507568
C         2.62808248011996    2.12562308033253   -0.15554137621642
C         3.51965287653740    3.13190639677363   -0.40493075609866
C         4.23062829671176    3.17505915317109   -1.61223722691150
C         4.02219189094070    2.21168357234423   -2.55716071053092
C         3.10515211070204    1.16330499948871   -2.33460170080584
C         2.86782652652716    0.18694513231466   -3.32372854644979
C         1.96559311142360   -0.81279844174501   -3.10716537335504
C         1.28398492023272   -0.89133962816190   -1.88575940842422
H         2.34112394221320   -1.29385192884854    3.05586058924151
H         4.72974873149128   -0.71973813161404    3.19387165643515
H         6.23917402242239   -1.25028186208057    1.31676610112341
H         5.36003198650937   -2.39597177596904   -0.68323886421032
H         2.97149485002937   -2.97933676534178   -0.82110831677425
H        -1.30400077405842   -2.38097119252390   -0.35817875280905
H        -0.89727023023955   -3.37650453471614    1.89076952960966
H        -1.61741393801045   -1.20477963515765   -3.90327378072928
H        -2.82740415021223   -3.11806783084640   -4.90731071595115
H        -4.62940460099991   -4.22934186027337   -3.64235625528427
H        -5.22802196666884   -3.42954222524451   -1.38695960133436
H        -4.00938455129790   -1.53558350186481   -0.38268129212384
H        -0.48560462877280    1.53936408357621   -0.39908028636184
H        -0.04748063916829   -0.15527950413814    2.85127174563189
H        -0.95565518216593    0.62367932043996    4.96024445264361
H        -2.58516269316634    2.47742690952047    5.01185179884839
H        -2.24948756506725    2.55032819642679   -0.51448729398041
H        -3.84762288116399    4.35837282347493   -0.40161201080097
H        -4.69373270819176    5.17473940391677    1.76784330367026
H        -3.91578842901367    4.12249968363918    3.85876026284642
H         1.36541769679284    0.27541288091761    1.23806305853117
H         2.08197338658922    2.13336980286029    0.77504215088885
H         3.67644187875088    3.90645832135195    0.33106180025415
H         4.93215110409984    3.97636096805224   -1.78995041256789
H         4.55220202605506    2.23995253118413   -3.49832527107717
H         3.40561303767896    0.25297237358739   -4.25815790794746
H         1.76978242130328   -1.55431958697624   -3.86734389491838
H         0.59027348701987   -1.70738127309680   -1.74307163342007

          :  Hamiltonian                  GFN2-xTB          :
         :: total energy            -117.806502225997 Eh    ::
         :: gradient norm              0.000418846939 Eh/a0 ::
         :: HOMO-LUMO gap              2.744885176870 eV    ::
         :: SCC energy              -119.741992466143 Eh    ::
         :: -> dispersion             -0.108885612806 Eh    ::
         :: repulsion energy           1.931085283488 Eh    ::

    * Orbital Energies and Occupations

         #    Occupation            Energy/Eh            Energy/eV
      -------------------------------------------------------------
         1        2.0000           -0.7490237             -20.3820
       ...           ...                  ...                  ...
        95        2.0000           -0.4248080             -11.5596
        96        2.0000           -0.4222623             -11.4903
        97        2.0000           -0.4217565             -11.4766
        98        2.0000           -0.4174827             -11.3603
        99        2.0000           -0.4164740             -11.3328
       100        2.0000           -0.4156807             -11.3112
       101        2.0000           -0.4149696             -11.2919
       102        2.0000           -0.4089967             -11.1294
       103        2.0000           -0.4058311             -11.0432
       104        2.0000           -0.3996113             -10.8740
       105        2.0000           -0.3967090             -10.7950
       106        2.0000           -0.3910690             -10.6415
       107        2.0000           -0.3769300             -10.2568 (HOMO)
       108                         -0.2760573              -7.5119 (LUMO)
       109                         -0.2613923              -7.1128
       110                         -0.2567676              -6.9870
       111                         -0.2549202              -6.9367
       112                         -0.2474845              -6.7344
       113                         -0.2435936              -6.6285
       114                         -0.2431644              -6.6168
       115                         -0.2404672              -6.5434
       116                         -0.2343738              -6.3776
       117                         -0.2271312              -6.1806
       118                         -0.2064170              -5.6169
       ...                                ...                  ...
       204                          0.6960790              18.9413
      -------------------------------------------------------------
                  HL-Gap            0.1008727 Eh            2.7449 eV

     #   Z          covCN         q      C6AA      Î±(0)
     1   8 O        0.859    -0.459    22.891     6.415
     2   6 C        2.762     0.271    22.429     7.756
     3   6 C        2.979    -0.011    28.276     8.723
     4   6 C        2.923    -0.027    28.679     8.782
     5   6 C        2.920    -0.025    28.638     8.776
     6   6 C        2.920    -0.025    28.629     8.774
     7   6 C        2.920    -0.024    28.610     8.771
     8   6 C        2.923    -0.021    28.540     8.761
     9   7 N        2.768    -0.114    23.492     7.199
    10   6 C        3.770     0.082    19.251     6.253
    11   6 C        2.683     0.354    20.983     7.496
    12   8 O        1.654    -0.372    20.318     6.085
    13   8 O        0.856    -0.367    21.034     6.149
    14   7 N        2.772    -0.111    23.427     7.189
    15   6 C        2.765     0.273    22.378     7.747
    16   6 C        2.977    -0.019    28.483     8.754
    17   6 C        2.924    -0.022    28.548     8.762
    18   6 C        2.919    -0.027    28.679     8.782
    19   6 C        2.920    -0.025    28.631     8.775
    20   6 C        2.919    -0.025    28.634     8.775
    21   6 C        2.921    -0.033    28.821     8.804
    22   8 O        0.859    -0.424    22.168     6.313
    23   6 C        3.850     0.041    19.858     6.338
    24   6 C        2.966    -0.006    28.162     8.705
    25   6 C        2.921    -0.035    28.861     8.810
    26   6 C        2.914    -0.028    28.710     8.786
    27   6 C        2.921    -0.031    28.783     8.798
    28   6 C        2.988     0.018    27.600     8.618
    29   6 C        2.985     0.014    27.688     8.631
    30   6 C        2.916    -0.039    28.963     8.825
    31   6 C        2.917    -0.027    28.666     8.780
    32   6 C        2.915    -0.028    28.701     8.785
    33   6 C        2.921    -0.034    28.839     8.807
    34   6 C        3.828     0.036    19.943     6.354
    35   6 C        2.969    -0.010    28.269     8.721
    36   6 C        2.985     0.007    27.861     8.658
    37   6 C        2.917    -0.038    28.937     8.821
    38   6 C        2.917    -0.027    28.673     8.781
    39   6 C        2.915    -0.028    28.692     8.784
    40   6 C        2.921    -0.032    28.807     8.802
    41   6 C        2.988     0.017    27.625     8.622
    42   6 C        2.920    -0.034    28.843     8.807
    43   6 C        2.914    -0.029    28.719     8.788
    44   6 C        2.921    -0.031    28.770     8.796
    45   1 H        0.926     0.035     2.513     2.479
    46   1 H        0.926     0.044     2.401     2.423
    47   1 H        0.926     0.043     2.415     2.430
    48   1 H        0.926     0.043     2.408     2.427
    49   1 H        0.926     0.040     2.443     2.444
    50   1 H        0.923     0.057     2.229     2.335
    51   1 H        0.799     0.365     0.556     1.171
    52   1 H        0.926     0.045     2.386     2.416
    53   1 H        0.926     0.039     2.459     2.452
    54   1 H        0.926     0.040     2.454     2.450
    55   1 H        0.926     0.043     2.410     2.428
    56   1 H        0.926     0.052     2.291     2.367
    57   1 H        0.924     0.084     1.939     2.177
    58   1 H        0.926     0.017     2.772     2.604
    59   1 H        0.926     0.035     2.520     2.482
    60   1 H        0.926     0.038     2.476     2.461
    61   1 H        0.926     0.057     2.238     2.340
    62   1 H        0.926     0.036     2.507     2.476
    63   1 H        0.926     0.032     2.552     2.498
    64   1 H        0.926     0.034     2.534     2.489
    65   1 H        0.924     0.059     2.214     2.327
    66   1 H        0.926     0.028     2.610     2.526
    67   1 H        0.926     0.036     2.497     2.471
    68   1 H        0.926     0.037     2.485     2.465
    69   1 H        0.926     0.038     2.470     2.458
    70   1 H        0.926     0.040     2.448     2.447
    71   1 H        0.926     0.037     2.495     2.470
    72   1 H        0.926     0.021     2.722     2.580

Wiberg/Mayer (AO) data.
largest (>0.10) Wiberg bond orders for each atom

     #   Z sym  total        # sym  WBO       # sym  WBO       # sym  WBO
 ---------------------------------------------------------------------------
     1   8 O    2.017 --     2 C    1.594     9 N    0.188
     2   6 C    3.941 --     1 O    1.594     9 N    1.279     3 C    0.965
     3   6 C    3.986 --     8 C    1.408     4 C    1.402     2 C    0.965
                             6 C    0.111
     4   6 C    3.991 --     5 C    1.444     3 C    1.402    45 H    0.969
                             7 C    0.112
     5   6 C    3.991 --     4 C    1.444     6 C    1.437    46 H    0.970
                             8 C    0.112
     6   6 C    3.991 --     7 C    1.441     5 C    1.437    47 H    0.971
                             3 C    0.111
     7   6 C    3.991 --     6 C    1.441     8 C    1.440    48 H    0.970
                             4 C    0.112
     8   6 C    3.990 --     7 C    1.440     3 C    1.408    49 H    0.969
                             5 C    0.112
     9   7 N    3.503 --     2 C    1.279    34 C    0.960    10 C    0.951
                             1 O    0.188
    10   6 C    3.959 --    14 N    1.006     9 N    0.951    50 H    0.936
                            11 C    0.893
    11   6 C    3.933 --    13 O    1.776    12 O    1.207    10 C    0.893
    12   8 O    2.235 --    11 C    1.207    51 H    0.758    13 O    0.184
    13   8 O    2.080 --    11 C    1.776    12 O    0.184
    14   7 N    3.458 --    15 C    1.186    10 C    1.006    23 C    0.954
                            22 O    0.180
    15   6 C    3.942 --    22 O    1.687    14 N    1.186    16 C    0.981
    16   6 C    3.986 --    17 C    1.399    21 C    1.395    15 C    0.981
                            19 C    0.107
    17   6 C    3.990 --    18 C    1.447    16 C    1.399    52 H    0.969
                            20 C    0.111
    18   6 C    3.992 --    17 C    1.447    19 C    1.437    53 H    0.970
                            21 C    0.111
    19   6 C    3.991 --    20 C    1.438    18 C    1.437    54 H    0.971
                            16 C    0.107
    20   6 C    3.992 --    21 C    1.446    19 C    1.438    55 H    0.970
                            17 C    0.111
    21   6 C    3.990 --    20 C    1.446    16 C    1.395    56 H    0.966
                            18 C    0.111
    22   8 O    2.020 --    15 C    1.687    14 N    0.180
    23   6 C    3.959 --    24 C    0.985    14 N    0.954    34 C    0.953
                            57 H    0.945
    24   6 C    3.981 --    25 C    1.528    29 C    1.250    23 C    0.985
                            27 C    0.114
    25   6 C    3.990 --    24 C    1.528    26 C    1.323    58 H    0.964
    26   6 C    3.991 --    27 C    1.555    25 C    1.323    59 H    0.970
    27   6 C    3.990 --    26 C    1.555    28 C    1.279    60 H    0.968
                            24 C    0.114
    28   6 C    3.990 --    33 C    1.280    27 C    1.279    29 C    1.253
    29   6 C    3.988 --    30 C    1.285    28 C    1.253    24 C    1.250
    30   6 C    3.990 --    31 C    1.553    29 C    1.285    61 H    0.957
                            33 C    0.119
    31   6 C    3.992 --    30 C    1.553    32 C    1.324    62 H    0.971
    32   6 C    3.992 --    33 C    1.556    31 C    1.324    63 H    0.971
    33   6 C    3.991 --    32 C    1.556    28 C    1.280    64 H    0.968
                            30 C    0.119
    34   6 C    3.961 --    35 C    0.986     9 N    0.960    23 C    0.953
                            65 H    0.944
    35   6 C    3.984 --    44 C    1.526    36 C    1.248    34 C    0.986
                            42 C    0.114
    36   6 C    3.988 --    37 C    1.285    41 C    1.254    35 C    1.248
    37   6 C    3.992 --    38 C    1.553    36 C    1.285    66 H    0.964
                            40 C    0.118
    38   6 C    3.991 --    37 C    1.553    39 C    1.323    67 H    0.971
    39   6 C    3.992 --    40 C    1.556    38 C    1.323    68 H    0.970
    40   6 C    3.991 --    39 C    1.556    41 C    1.280    69 H    0.968
                            37 C    0.118
    41   6 C    3.990 --    40 C    1.280    42 C    1.277    36 C    1.254
    42   6 C    3.990 --    43 C    1.557    41 C    1.277    70 H    0.968
                            35 C    0.114
    43   6 C    3.992 --    42 C    1.557    44 C    1.322    71 H    0.970
    44   6 C    3.991 --    35 C    1.526    43 C    1.322    72 H    0.967
    45   1 H    0.999 --     4 C    0.969
    46   1 H    0.997 --     5 C    0.970
    47   1 H    0.998 --     6 C    0.971
    48   1 H    0.998 --     7 C    0.970
    49   1 H    0.998 --     8 C    0.969
    50   1 H    0.996 --    10 C    0.936
    51   1 H    0.867 --    12 O    0.758
    52   1 H    0.998 --    17 C    0.969
    53   1 H    0.998 --    18 C    0.970
    54   1 H    0.998 --    19 C    0.971
    55   1 H    0.997 --    20 C    0.970
    56   1 H    0.997 --    21 C    0.966
    57   1 H    0.992 --    23 C    0.945
    58   1 H    0.999 --    25 C    0.964
    59   1 H    0.998 --    26 C    0.970
    60   1 H    0.997 --    27 C    0.968
    61   1 H    0.996 --    30 C    0.957
    62   1 H    0.998 --    31 C    0.971
    63   1 H    0.998 --    32 C    0.971
    64   1 H    0.998 --    33 C    0.968
    65   1 H    0.996 --    34 C    0.944
    66   1 H    0.999 --    37 C    0.964
    67   1 H    0.998 --    38 C    0.971
    68   1 H    0.998 --    39 C    0.970
    69   1 H    0.998 --    40 C    0.968
    70   1 H    0.997 --    42 C    0.968
    71   1 H    0.998 --    43 C    0.970
    72   1 H    0.999 --    44 C    0.967
 ---------------------------------------------------------------------------

molecular dipole:
                 x           y           z       tot (Debye)
 q only:        1.979       0.513      -0.386
   full:        2.244       0.216      -0.567       5.909

           -------------------------------------------------
          | TOTAL ENERGY             -117.806502225997 Eh   |
          | GRADIENT NORM               0.000418846939 Eh/Î± |
          | HOMO-LUMO GAP               2.744885176870 eV   |
           -------------------------------------------------

 * finished run on 2022/03/17 at 00:38:50.591
