   * xtb version 6.3.3 (4ae9cef) compiled by 'conda@95abc7406d43' on 2020-10-14
          program call               : xtb acid_459.xyz --opt --chrg 0 --uhf 0 --gfn 2
          number of atoms            :                    62
          number of electrons        :                   206
          charge                     :                     0
          spin                       :                   0.0

   ID    Z sym.   atoms
    1    6 C      1, 3-16, 18, 20-22, 24, 25, 28, 29, 33-35, 37, 38
    2    8 O      2, 17, 26, 27, 30, 31, 39, 40
    3    7 N      19, 32
    4   35 Br     23, 36
    5    1 H      41-62

          :  Hamiltonian                  GFN2-xTB          :
 * total energy  :  -117.7449731 Eh     change       -0.3008054E-08 Eh
 * total energy  :  -117.7593063 Eh     change       -0.1433330E-01 Eh
 * total energy  :  -117.7646422 Eh     change       -0.5335839E-02 Eh
 * total energy  :  -117.7666009 Eh     change       -0.1958743E-02 Eh
 * total energy  :  -117.7677718 Eh     change       -0.1170908E-02 Eh
 * total energy  :  -117.7686459 Eh     change       -0.8741044E-03 Eh
 * total energy  :  -117.7694705 Eh     change       -0.8245548E-03 Eh
 * total energy  :  -117.7700747 Eh     change       -0.6041944E-03 Eh
 * total energy  :  -117.7705559 Eh     change       -0.4812002E-03 Eh
 * total energy  :  -117.7709801 Eh     change       -0.4241864E-03 Eh
 * total energy  :  -117.7763060 Eh     change       -0.1294885E-04 Eh
 * total energy  :  -117.7763142 Eh     change       -0.8204130E-05 Eh
 * total energy  :  -117.7763200 Eh     change       -0.5791574E-05 Eh
 * total energy  :  -117.7763266 Eh     change       -0.6579981E-05 Eh
 * total energy  :  -117.7763317 Eh     change       -0.5175937E-05 Eh
 * total energy  :  -117.7763377 Eh     change       -0.5979697E-05 Eh
 * total energy  :  -117.7763436 Eh     change       -0.5856629E-05 Eh
 * total energy  :  -117.7763488 Eh     change       -0.5180002E-05 Eh
 * total energy  :  -117.7763524 Eh     change       -0.3669869E-05 Eh
   *** GEOMETRY OPTIMIZATION CONVERGED AFTER 74 ITERATIONS ***

 final structure:
================
62
 xtb: 6.3.3 (4ae9cef)
C        -2.23360261477781   -1.35542372280359   -1.91948230412090
O        -1.65263649774220   -2.44273954720893   -1.32815192817108
C        -2.02013840858182   -3.72616186484980   -1.77194795597989
C        -3.10009352790234   -1.41356501557980   -3.00235783467969
C        -3.61032817570504   -0.24523855327297   -3.54510986937849
C        -3.25739150832006    0.98438056590367   -3.02485988606768
C        -2.39568349210880    1.04956098822472   -1.94210843617440
C        -1.89221436994911   -0.10807588896693   -1.37728399290599
C        -0.95621272972003   -0.08745668104998   -0.19457574121895
C         0.52048483088300   -0.02235681862573   -0.64206439565090
C         1.25282486283491   -1.30167842307638   -0.32880869115045
C         1.62212263228544   -2.16035973126126   -1.34988078828052
C         2.29372559003708   -3.34044116575923   -1.08122943754051
C         2.60378226458546   -3.66195158015623    0.22640196450522
C         2.22838140532543   -2.82685190840366    1.26480316718171
C         1.53849594936790   -1.64952093239833    1.00234093832772
O         1.12289040435296   -0.77230827163459    1.95702068157363
C         1.37629590955031   -1.07116293767576    3.31186363503144
N         1.06238600166219    1.12777878406713    0.06754044082786
C         2.35931704694609    1.35753318791537    0.31814137472459
C         3.33359335306477    0.52126624699712   -0.41184076950916
C         4.44823155122207   -0.13256726369377    0.05042691936870
Br        4.98481212866546   -0.27569223017223    1.82821953805594
C         5.05999633875644   -0.74581479314816   -1.06831228273201
C         4.28361868285949   -0.40095357854373   -2.13027470331430
O         3.24682364466747    0.35700439144198   -1.74706589170936
O         2.72966653196350    2.23665712702587    1.09443736825223
C         0.05654752455584    1.83547670081675    0.83843795785417
C        -0.10122588651472    3.30490832422147    0.33195022947249
O         0.91102331791870    4.08938351297095    0.63142997079563
O        -1.07330862943522    3.66668284820024   -0.26604891073123
N        -1.13590505091447    1.06594109139396    0.66833743399157
C        -2.35261757236982    1.28188504872726    1.23259108564533
C        -2.51582504892435    2.48415208113040    2.06288357759335
C        -3.70037453140246    3.08806767142869    2.41803984573360
Br       -5.41630859523237    2.53806831323900    1.95948510881777
C        -3.37016253321136    4.22667466499592    3.19133734427171
C        -2.01259146217449    4.23212651271052    3.25907686994234
O        -1.48840556823558    3.19379160002442    2.58932977836357
O        -3.28397394115000    0.52182290323576    1.04840732503877
H        -1.46079623179604   -4.42116143670136   -1.14705560752490
H        -3.09213628093897   -3.90376318610414   -1.64433515984019
H        -1.74505578187049   -3.88356323379992   -2.81967099127245
H        -3.38903951002001   -2.36202227091674   -3.42698325563033
H        -4.28886878052258   -0.30653734914830   -4.38289069262218
H        -3.65382483975963    1.89235748410385   -3.45118362273111
H        -2.12765977501248    2.00911495975394   -1.52644960459787
H        -1.13732978205979   -0.99756800575274    0.39051261904984
H         0.56980293491404    0.16960501952008   -1.72140274715246
H         1.37915750569918   -1.89430135386653   -2.36786590071593
H         2.57706808096815   -3.99795204567560   -1.88812275675137
H         3.14026521918409   -4.57130161254073    0.45039749350611
H         2.48034676929245   -3.09905854478663    2.27662025199831
H         0.90640309089221   -2.01356977450141    3.60674082958454
H         2.44958430560908   -1.10974244613584    3.51854334895780
H         0.93101896217963   -0.25547837514598    3.87916260254964
H         5.94710941309136   -1.34348476113610   -1.06153147676647
H         4.37141794663376   -0.61773327220842   -3.17609478096333
H         0.37833558787686    1.87295403898692    1.89493028591807
H         1.67904400628151    3.58662397482224    1.01571328199249
H        -4.05731693650086    4.92485810211899    3.62120293288070
H        -1.32354073128775    4.89888343272416    3.73866721407947

          :  Hamiltonian                  GFN2-xTB          :
         :: total energy            -117.776352435997 Eh    ::
         :: gradient norm              0.000625317071 Eh/a0 ::
         :: HOMO-LUMO gap              2.551646036815 eV    ::
         :: SCC energy              -119.196009304168 Eh    ::
         :: -> dispersion             -0.097373779448 Eh    ::
         :: repulsion energy           1.416444496468 Eh    ::

    * Orbital Energies and Occupations

         #    Occupation            Energy/Eh            Energy/eV
      -------------------------------------------------------------
         1        2.0000           -0.8549711             -23.2649
       ...           ...                  ...                  ...
        91        2.0000           -0.4302839             -11.7086
        92        2.0000           -0.4293055             -11.6820
        93        2.0000           -0.4274045             -11.6303
        94        2.0000           -0.4271552             -11.6235
        95        2.0000           -0.4205914             -11.4449
        96        2.0000           -0.4175025             -11.3608
        97        2.0000           -0.4169255             -11.3451
        98        2.0000           -0.4062533             -11.0547
        99        2.0000           -0.4026132             -10.9557
       100        2.0000           -0.4006258             -10.9016
       101        2.0000           -0.3967605             -10.7964
       102        2.0000           -0.3941425             -10.7252
       103        2.0000           -0.3822233             -10.4008 (HOMO)
       104                         -0.2884520              -7.8492 (LUMO)
       105                         -0.2742930              -7.4639
       106                         -0.2538538              -6.9077
       107                         -0.2500905              -6.8053
       108                         -0.2389192              -6.5013
       109                         -0.2351402              -6.3985
       110                         -0.2265192              -6.1639
       111                         -0.2210566              -6.0153
       112                         -0.2159955              -5.8775
       113                         -0.2075974              -5.6490
       114                         -0.2047793              -5.5723
       ...                                ...                  ...
       192                          0.6868221              18.6894
      -------------------------------------------------------------
                  HL-Gap            0.0937713 Eh            2.5516 eV

     #   Z          covCN         q      C6AA      Î±(0)
     1   6 C        2.868     0.139    24.976     8.192
     2   8 O        1.705    -0.281    18.668     5.833
     3   6 C        3.643     0.038    20.268     6.472
     4   6 C        2.917    -0.065    29.607     8.923
     5   6 C        2.921    -0.030    28.752     8.793
     6   6 C        2.918    -0.036    28.906     8.817
     7   6 C        2.922    -0.032    28.793     8.800
     8   6 C        2.974    -0.015    28.371     8.737
     9   6 C        3.827     0.052    19.692     6.314
    10   6 C        3.815     0.045    19.809     6.335
    11   6 C        2.972    -0.025    28.617     8.775
    12   6 C        2.924    -0.033    28.814     8.803
    13   6 C        2.917    -0.042    29.047     8.838
    14   6 C        2.921    -0.030    28.757     8.794
    15   6 C        2.917    -0.064    29.603     8.922
    16   6 C        2.866     0.140    24.944     8.187
    17   8 O        1.705    -0.278    18.613     5.825
    18   6 C        3.643     0.036    20.313     6.479
    19   7 N        2.761    -0.089    22.975     7.119
    20   6 C        2.764     0.270    22.437     7.757
    21   6 C        3.153     0.084    25.850     8.315
    22   6 C        3.031     0.059    26.640     8.466
    23  35 Br       1.009    -0.117   188.237    22.122
    24   6 C        3.035    -0.066    29.619     8.927
    25   6 C        3.080     0.078    26.179     8.388
    26   8 O        1.731    -0.171    16.872     5.546
    27   8 O        0.859    -0.451    22.719     6.391
    28   6 C        3.756     0.080    19.297     6.263
    29   6 C        2.684     0.357    20.942     7.489
    30   8 O        1.655    -0.363    20.149     6.060
    31   8 O        0.856    -0.368    21.057     6.152
    32   7 N        2.760    -0.097    23.140     7.144
    33   6 C        2.762     0.268    22.472     7.763
    34   6 C        3.133     0.079    26.026     8.351
    35   6 C        3.029     0.072    26.370     8.423
    36  35 Br       1.010    -0.103   187.843    22.098
    37   6 C        3.033    -0.064    29.560     8.918
    38   6 C        3.066     0.083    26.093     8.376
    39   8 O        1.730    -0.194    17.233     5.605
    40   8 O        0.861    -0.413    21.937     6.280
    41   1 H        0.925     0.059     2.207     2.323
    42   1 H        0.924     0.048     2.350     2.397
    43   1 H        0.924     0.040     2.455     2.450
    44   1 H        0.926     0.039     2.456     2.450
    45   1 H        0.926     0.040     2.447     2.446
    46   1 H        0.926     0.045     2.389     2.417
    47   1 H        0.926     0.060     2.196     2.317
    48   1 H        0.924     0.083     1.952     2.185
    49   1 H        0.924     0.061     2.192     2.315
    50   1 H        0.926     0.040     2.454     2.450
    51   1 H        0.926     0.041     2.436     2.441
    52   1 H        0.926     0.045     2.381     2.413
    53   1 H        0.926     0.051     2.310     2.377
    54   1 H        0.924     0.047     2.362     2.403
    55   1 H        0.924     0.055     2.261     2.352
    56   1 H        0.925     0.063     2.167     2.302
    57   1 H        0.927     0.071     2.075     2.253
    58   1 H        0.926     0.074     2.040     2.234
    59   1 H        0.922     0.078     2.001     2.212
    60   1 H        0.800     0.366     0.553     1.168
    61   1 H        0.927     0.072     2.061     2.245
    62   1 H        0.926     0.071     2.071     2.251

Wiberg/Mayer (AO) data.
largest (>0.10) Wiberg bond orders for each atom

     #   Z sym  total        # sym  WBO       # sym  WBO       # sym  WBO
 ---------------------------------------------------------------------------
     1   6 C    3.932 --     4 C    1.387     8 C    1.324     2 O    1.052
     2   8 O    2.221 --     1 C    1.052     3 C    0.983
     3   6 C    3.945 --     2 O    0.983    41 H    0.980    42 H    0.977
                            43 H    0.976
     4   6 C    3.987 --     5 C    1.430     1 C    1.387    44 H    0.965
                             7 C    0.104
     5   6 C    3.990 --     6 C    1.449     4 C    1.430    45 H    0.971
                             8 C    0.106
     6   6 C    3.991 --     5 C    1.449     7 C    1.422    46 H    0.970
     7   6 C    3.988 --     8 C    1.442     6 C    1.422    47 H    0.961
                             4 C    0.104
     8   6 C    3.980 --     7 C    1.442     1 C    1.324     9 C    0.986
                             5 C    0.106
     9   6 C    3.959 --     8 C    0.986    32 N    0.962    10 C    0.951
                            48 H    0.946
    10   6 C    3.959 --    11 C    0.991    19 N    0.954    49 H    0.954
                             9 C    0.951
    11   6 C    3.981 --    12 C    1.433    16 C    1.318    10 C    0.991
                            14 C    0.105
    12   6 C    3.989 --    11 C    1.433    13 C    1.426    50 H    0.967
                            15 C    0.102
    13   6 C    3.991 --    14 C    1.442    12 C    1.426    51 H    0.970
    14   6 C    3.990 --    13 C    1.442    15 C    1.436    52 H    0.970
                            11 C    0.105
    15   6 C    3.987 --    14 C    1.436    16 C    1.380    53 H    0.964
                            12 C    0.102
    16   6 C    3.936 --    15 C    1.380    11 C    1.318    17 O    1.067
    17   8 O    2.233 --    16 C    1.067    18 C    0.976
    18   6 C    3.938 --    56 H    0.979    54 H    0.977    17 O    0.976
                            55 H    0.974
    19   7 N    3.522 --    20 C    1.281    28 C    0.967    10 C    0.954
                            27 O    0.194
    20   6 C    3.960 --    27 O    1.579    19 N    1.281    21 C    0.994
    21   6 C    3.908 --    22 C    1.499    26 O    1.112    20 C    0.994
                            25 C    0.138
    22   6 C    3.936 --    21 C    1.499    24 C    1.277    23 Br   1.014
    23  35 Br   1.151 --    22 C    1.014
    24   6 C    3.979 --    25 C    1.597    22 C    1.277    57 H    0.971
    25   6 C    3.905 --    24 C    1.597    26 O    1.142    58 H    0.962
                            21 C    0.138
    26   8 O    2.455 --    25 C    1.142    21 C    1.112
    27   8 O    2.005 --    20 C    1.579    19 N    0.194
    28   6 C    3.955 --    32 N    1.005    19 N    0.967    59 H    0.932
                            29 C    0.886
    29   6 C    3.929 --    31 O    1.775    30 O    1.204    28 C    0.886
    30   8 O    2.240 --    29 C    1.204    60 H    0.777    31 O    0.180
    31   8 O    2.081 --    29 C    1.775    30 O    0.180
    32   7 N    3.479 --    33 C    1.197    28 C    1.005     9 C    0.962
                            40 O    0.189
    33   6 C    3.962 --    40 O    1.650    32 N    1.197    34 C    1.023
    34   6 C    3.902 --    35 C    1.486    39 O    1.093    33 C    1.023
                            38 C    0.134
    35   6 C    3.945 --    34 C    1.486    37 C    1.278    36 Br   1.028
    36  35 Br   1.184 --    35 C    1.028
    37   6 C    3.980 --    38 C    1.598    35 C    1.278    61 H    0.971
    38   6 C    3.905 --    37 C    1.598    39 O    1.136    62 H    0.963
                            34 C    0.134
    39   8 O    2.438 --    38 C    1.136    34 C    1.093
    40   8 O    2.018 --    33 C    1.650    32 N    0.189
    41   1 H    0.996 --     3 C    0.980
    42   1 H    0.998 --     3 C    0.977
    43   1 H    0.998 --     3 C    0.976
    44   1 H    0.998 --     4 C    0.965
    45   1 H    0.998 --     5 C    0.971
    46   1 H    0.998 --     6 C    0.970
    47   1 H    0.996 --     7 C    0.961
    48   1 H    0.992 --     9 C    0.946
    49   1 H    0.996 --    10 C    0.954
    50   1 H    0.998 --    12 C    0.967
    51   1 H    0.998 --    13 C    0.970
    52   1 H    0.997 --    14 C    0.970
    53   1 H    0.997 --    15 C    0.964
    54   1 H    0.998 --    18 C    0.977
    55   1 H    0.997 --    18 C    0.974
    56   1 H    0.996 --    18 C    0.979
    57   1 H    0.995 --    24 C    0.971
    58   1 H    0.994 --    25 C    0.962
    59   1 H    0.993 --    28 C    0.932
    60   1 H    0.866 --    30 O    0.777
    61   1 H    0.994 --    37 C    0.971
    62   1 H    0.994 --    38 C    0.963
 ---------------------------------------------------------------------------

molecular dipole:
                 x           y           z       tot (Debye)
 q only:        1.615      -1.975      -0.442
   full:        2.420      -2.158      -0.852       8.521

           -------------------------------------------------
          | TOTAL ENERGY             -117.776352435997 Eh   |
          | GRADIENT NORM               0.000625317071 Eh/Î± |
          | HOMO-LUMO GAP               2.551646036815 eV   |
           -------------------------------------------------

 * finished run on 2022/03/17 at 01:27:10.152
