   * xtb version 6.3.3 (4ae9cef) compiled by 'conda@95abc7406d43' on 2020-10-14
          program call               : xtb acid_63.xyz --opt --chrg 0 --uhf 0 --gfn 2
          number of atoms            :                    72
          number of electrons        :                   218
          charge                     :                     0
          spin                       :                   0.0

   ID    Z sym.   atoms
    1    6 C      1-22, 24-26, 28-30, 32, 33, 37-39, 41-43
    2    7 N      23, 36
    3    8 O      27, 31, 34, 35, 40, 44
    4    1 H      45-72

          :  Hamiltonian                  GFN2-xTB          :
 * total energy  :  -121.6485953 Eh     change       -0.5743487E-08 Eh
 * total energy  :  -121.6647518 Eh     change       -0.1615644E-01 Eh
 * total energy  :  -121.6698501 Eh     change       -0.5098306E-02 Eh
 * total energy  :  -121.6715641 Eh     change       -0.1714010E-02 Eh
 * total energy  :  -121.6727693 Eh     change       -0.1205160E-02 Eh
 * total energy  :  -121.6733240 Eh     change       -0.5546914E-03 Eh
 * total energy  :  -121.6737082 Eh     change       -0.3842847E-03 Eh
 * total energy  :  -121.6740417 Eh     change       -0.3335043E-03 Eh
 * total energy  :  -121.6743508 Eh     change       -0.3090736E-03 Eh
 * total energy  :  -121.6746510 Eh     change       -0.3001531E-03 Eh
 * total energy  :  -121.6759169 Eh     change       -0.3184409E-04 Eh
 * total energy  :  -121.6759406 Eh     change       -0.2363508E-04 Eh
 * total energy  :  -121.6759562 Eh     change       -0.1560656E-04 Eh
 * total energy  :  -121.6759632 Eh     change       -0.7030783E-05 Eh
 * total energy  :  -121.6759562 Eh     change        0.6982029E-05 Eh
 * total energy  :  -121.6759729 Eh     change       -0.1671399E-04 Eh
 * total energy  :  -121.6759806 Eh     change       -0.7664299E-05 Eh
 * total energy  :  -121.6759857 Eh     change       -0.5057090E-05 Eh
 * total energy  :  -121.6759882 Eh     change       -0.2500535E-05 Eh
   *** GEOMETRY OPTIMIZATION CONVERGED AFTER 40 ITERATIONS ***

 final structure:
================
72
 xtb: 6.3.3 (4ae9cef)
C        -3.96568313488000    2.07426086873021   -2.17235411447102
C        -3.45731296270108    1.59524179812026   -3.34570673129697
C        -2.20699395353076    0.96148961280030   -3.35447310413310
C        -1.48464102679773    0.82795109914332   -2.20118380865293
C        -1.97182284502225    1.32095359555020   -0.97033881542470
C        -3.24887417338028    1.94812840425070   -0.96373663563027
C        -3.78616241896346    2.43089802261445    0.24705951872310
C        -3.09405034634847    2.29613434699567    1.41527555748510
C        -1.82964254419328    1.69578941927462    1.41265455884412
C        -1.25817565670481    1.22726178260035    0.25581603867091
C         0.09516704627571    0.57476719761009    0.35820685108254
C         0.02619797354190   -0.95692072791117    0.16795163551365
C        -0.03881058492060   -1.65386318117524    1.50459243141768
C         1.12433599948300   -1.88418308614669    2.19498230515186
C         1.11491798560865   -2.51636113206710    3.44415282683332
C        -0.06799283637919   -2.89935855028307    4.00716707730708
C        -1.28970602183293   -2.64525092318314    3.35105491093190
C        -1.28908501568517   -2.00670878025140    2.07937155587500
C        -2.53800854884255   -1.74199322013152    1.47428513590233
C        -3.71003711304664   -2.09393542562007    2.08358815410115
C        -3.70461047865305   -2.73525092807277    3.33007047562718
C        -2.51703744639940   -3.00421310532503    3.94736870226326
N         1.23541724507924   -1.26771400983829   -0.58284043005551
C         1.56822912532151   -2.55274413471513   -0.87634721266622
C         2.85123602507456   -2.68592356980179   -1.61366336772488
C         4.07938913587835   -2.93729032240649   -1.07755394377490
O         5.00850336811136   -3.02098338339563   -2.03989427169240
C         4.37842918513496   -2.83738616161812   -3.21350592875067
C         3.04524843557055   -2.62674756313288   -3.02835157852484
C         1.99454807766708   -2.39422579001075   -4.05685642679982
O         0.87555186589280   -3.49061379815265   -0.54893615119038
C         1.90582384967006   -0.09206138920880   -1.07118135081260
C         3.31062890138542    0.09389046293354   -0.46183139245547
O         4.25104800383589    0.11376162997391   -1.38972431899656
O         3.51018761410662    0.22921543510698    0.71471905761150
N         1.06609763873971    1.00254519803035   -0.63393871955117
C         1.39629173352074    2.27454348987277   -0.97754568220753
C         0.59289396877428    3.32849232515226   -0.31703999044367
C        -0.37101898272214    4.11889388605841   -0.87105798243363
O        -0.85569249737110    4.97646020172758    0.03436325284509
C        -0.18797750733949    4.76063434854375    1.18156421257135
C         0.72582313191770    3.75865496530364    1.03890655002394
C         1.68471449002540    3.24006889823543    2.05512295177671
O         2.29162218348341    2.49760030857943   -1.76802324329609
H        -4.93105967428148    2.55908507953778   -2.14833131921460
H        -4.01136852005603    1.69628192368285   -4.26700077701916
H        -1.81416782483596    0.57640439245512   -4.28394877483775
H        -0.52747124155822    0.33631103598302   -2.24176437282361
H        -4.75696225629927    2.90418504176620    0.23029594633558
H        -3.50637556640042    2.65500582782429    2.34590801464403
H        -1.29382787020463    1.60344091681352    2.34607367441319
H         0.50040997887762    0.77371803443184    1.36035872457225
H        -0.83483802575047   -1.24406270789008   -0.44517645063732
H         2.06990086089451   -1.57642191219219    1.77293535476901
H         2.05090639057243   -2.69575722963656    3.95160688134598
H        -0.08893284017535   -3.39372025149389    4.96779027040584
H        -2.58469758473211   -1.24324924594464    0.51898972405083
H        -4.65222518043879   -1.87704502929356    1.60175038184454
H        -4.64058043684580   -3.01060111661142    3.79334915412972
H        -2.49617277958965   -3.49470453544125    4.91026343038880
H         4.39575830281344   -3.07070036493763   -0.06220037756901
H         4.97285768907626   -2.87922429494308   -4.10418872570282
H         1.07747392779250   -2.90876737138867   -3.77593231442804
H         1.77470615639804   -1.33005356008960   -4.15487993680662
H         2.32792844567626   -2.76077514311451   -5.02417748743898
H         2.02005744534386   -0.08254501333781   -2.16585011034277
H         5.12585165306005    0.30270948548568   -1.01143622573778
H        -0.79041489715027    4.13879807714373   -1.85676404423159
H        -0.44062863081184    5.37614349222774    2.02176483053885
H         1.15332742605693    2.83651086689652    2.91644355426687
H         2.32767444194390    4.04410064931577    2.40981825178579
H         2.31390172224020    2.46102283799880    1.63211516372654

          :  Hamiltonian                  GFN2-xTB          :
         :: total energy            -121.675988156935 Eh    ::
         :: gradient norm              0.000692883780 Eh/a0 ::
         :: HOMO-LUMO gap              2.794333308332 eV    ::
         :: SCC energy              -123.503557775164 Eh    ::
         :: -> dispersion             -0.110841934122 Eh    ::
         :: repulsion energy           1.823036257500 Eh    ::

    * Orbital Energies and Occupations

         #    Occupation            Energy/Eh            Energy/eV
      -------------------------------------------------------------
         1        2.0000           -0.7692346             -20.9319
       ...           ...                  ...                  ...
        97        2.0000           -0.4228109             -11.5053
        98        2.0000           -0.4219627             -11.4822
        99        2.0000           -0.4187921             -11.3959
       100        2.0000           -0.4144843             -11.2787
       101        2.0000           -0.4077000             -11.0941
       102        2.0000           -0.4059683             -11.0470
       103        2.0000           -0.4020197             -10.9395
       104        2.0000           -0.4014184             -10.9232
       105        2.0000           -0.3984738             -10.8430
       106        2.0000           -0.3973276             -10.8118
       107        2.0000           -0.3958455             -10.7715
       108        2.0000           -0.3905244             -10.6267
       109        2.0000           -0.3775947             -10.2749 (HOMO)
       110                         -0.2749048              -7.4805 (LUMO)
       111                         -0.2638335              -7.1793
       112                         -0.2614319              -7.1139
       113                         -0.2415337              -6.5725
       114                         -0.2317786              -6.3070
       115                         -0.2295539              -6.2465
       116                         -0.2230293              -6.0689
       117                         -0.2195485              -5.9742
       118                         -0.2163614              -5.8875
       119                         -0.2046004              -5.5675
       120                         -0.1923280              -5.2335
       ...                                ...                  ...
       204                          0.6932624              18.8646
      -------------------------------------------------------------
                  HL-Gap            0.1026899 Eh            2.7943 eV

     #   Z          covCN         q      C6AA      Î±(0)
     1   6 C        2.921    -0.033    28.825     8.804
     2   6 C        2.915    -0.028    28.711     8.787
     3   6 C        2.917    -0.028    28.705     8.786
     4   6 C        2.917    -0.038    28.949     8.823
     5   6 C        2.983     0.007    27.849     8.657
     6   6 C        2.988     0.015    27.676     8.630
     7   6 C        2.921    -0.034    28.839     8.806
     8   6 C        2.914    -0.028    28.710     8.786
     9   6 C        2.924    -0.034    28.856     8.809
    10   6 C        2.966    -0.006    28.178     8.707
    11   6 C        3.821     0.040    19.893     6.347
    12   6 C        3.823     0.049    19.740     6.323
    13   6 C        2.969     0.003    27.945     8.671
    14   6 C        2.922    -0.030    28.757     8.794
    15   6 C        2.914    -0.028    28.690     8.783
    16   6 C        2.920    -0.035    28.874     8.812
    17   6 C        2.989     0.016    27.635     8.623
    18   6 C        2.983     0.011    27.765     8.644
    19   6 C        2.917    -0.034    28.859     8.809
    20   6 C        2.917    -0.029    28.719     8.788
    21   6 C        2.915    -0.029    28.735     8.790
    22   6 C        2.921    -0.034    28.836     8.806
    23   7 N        2.765    -0.118    23.558     7.209
    24   6 C        2.758     0.275    22.341     7.740
    25   6 C        3.081    -0.061    29.431     8.894
    26   6 C        3.068     0.068    26.411     8.427
    27   8 O        1.729    -0.171    16.873     5.546
    28   6 C        3.080     0.057    26.633     8.461
    29   6 C        3.058    -0.010    28.209     8.710
    30   6 C        3.754    -0.107    22.603     6.779
    31   8 O        0.859    -0.414    21.957     6.283
    32   6 C        3.760     0.097    19.023     6.218
    33   6 C        2.689     0.358    20.918     7.485
    34   8 O        1.660    -0.348    19.862     6.016
    35   8 O        0.856    -0.395    21.589     6.230
    36   7 N        2.767    -0.112    23.437     7.190
    37   6 C        2.761     0.275    22.347     7.741
    38   6 C        3.082    -0.053    29.230     8.863
    39   6 C        3.067     0.074    26.288     8.407
    40   8 O        1.729    -0.169    16.851     5.543
    41   6 C        3.083     0.054    26.695     8.470
    42   6 C        3.056    -0.012    28.248     8.716
    43   6 C        3.753    -0.108    22.616     6.781
    44   8 O        0.859    -0.434    22.373     6.342
    45   1 H        0.926     0.037     2.489     2.467
    46   1 H        0.926     0.036     2.503     2.474
    47   1 H        0.926     0.035     2.516     2.480
    48   1 H        0.926     0.033     2.540     2.492
    49   1 H        0.926     0.040     2.446     2.446
    50   1 H        0.926     0.039     2.468     2.457
    51   1 H        0.926     0.031     2.568     2.506
    52   1 H        0.923     0.058     2.219     2.330
    53   1 H        0.924     0.061     2.183     2.311
    54   1 H        0.926     0.041     2.431     2.438
    55   1 H        0.926     0.037     2.485     2.465
    56   1 H        0.926     0.037     2.492     2.469
    57   1 H        0.926     0.025     2.661     2.551
    58   1 H        0.926     0.031     2.572     2.508
    59   1 H        0.926     0.033     2.544     2.494
    60   1 H        0.926     0.035     2.514     2.479
    61   1 H        0.926     0.052     2.289     2.366
    62   1 H        0.926     0.056     2.245     2.343
    63   1 H        0.925     0.056     2.247     2.344
    64   1 H        0.924     0.046     2.365     2.405
    65   1 H        0.925     0.051     2.313     2.378
    66   1 H        0.923     0.076     2.022     2.224
    67   1 H        0.804     0.346     0.597     1.213
    68   1 H        0.926     0.054     2.271     2.356
    69   1 H        0.926     0.055     2.260     2.351
    70   1 H        0.925     0.047     2.360     2.403
    71   1 H        0.925     0.054     2.268     2.355
    72   1 H        0.925     0.057     2.240     2.340

Wiberg/Mayer (AO) data.
largest (>0.10) Wiberg bond orders for each atom

     #   Z sym  total        # sym  WBO       # sym  WBO       # sym  WBO
 ---------------------------------------------------------------------------
     1   6 C    3.991 --     2 C    1.556     6 C    1.280    45 H    0.968
                             4 C    0.118
     2   6 C    3.992 --     1 C    1.556     3 C    1.323    46 H    0.971
     3   6 C    3.992 --     4 C    1.553     2 C    1.323    47 H    0.971
     4   6 C    3.992 --     3 C    1.553     5 C    1.285    48 H    0.965
                             1 C    0.118
     5   6 C    3.989 --     4 C    1.285     6 C    1.253    10 C    1.251
     6   6 C    3.990 --     1 C    1.280     7 C    1.278     5 C    1.253
     7   6 C    3.990 --     8 C    1.553     6 C    1.278    49 H    0.968
                            10 C    0.115
     8   6 C    3.991 --     7 C    1.553     9 C    1.327    50 H    0.970
     9   6 C    3.990 --    10 C    1.520     8 C    1.327    51 H    0.967
    10   6 C    3.984 --     9 C    1.520     5 C    1.251    11 C    0.993
                             7 C    0.115
    11   6 C    3.962 --    10 C    0.993    36 N    0.959    52 H    0.949
                            12 C    0.949
    12   6 C    3.961 --    13 C    0.989    23 N    0.956    11 C    0.949
                            53 H    0.946
    13   6 C    3.984 --    14 C    1.524    18 C    1.254    12 C    0.989
                            16 C    0.115
    14   6 C    3.990 --    13 C    1.524    15 C    1.327    54 H    0.965
    15   6 C    3.992 --    16 C    1.553    14 C    1.327    55 H    0.970
    16   6 C    3.990 --    15 C    1.553    17 C    1.280    56 H    0.968
                            13 C    0.115
    17   6 C    3.990 --    22 C    1.280    16 C    1.280    18 C    1.252
    18   6 C    3.989 --    19 C    1.284    13 C    1.254    17 C    1.252
    19   6 C    3.992 --    20 C    1.555    18 C    1.284    57 H    0.962
                            22 C    0.118
    20   6 C    3.992 --    19 C    1.555    21 C    1.322    58 H    0.971
    21   6 C    3.992 --    22 C    1.557    20 C    1.322    59 H    0.971
    22   6 C    3.991 --    21 C    1.557    17 C    1.280    60 H    0.968
                            19 C    0.118
    23   7 N    3.462 --    24 C    1.202    32 C    0.989    12 C    0.956
                            31 O    0.194
    24   6 C    3.948 --    31 O    1.701    23 N    1.202    25 C    0.966
    25   6 C    3.976 --    26 C    1.573    29 C    1.231    24 C    0.966
    26   6 C    3.912 --    25 C    1.573    27 O    1.145    61 H    0.966
                            28 C    0.148
    27   8 O    2.455 --    26 C    1.145    28 C    1.128
    28   6 C    3.901 --    29 C    1.585    27 O    1.128    62 H    0.965
                            26 C    0.148
    29   6 C    3.981 --    28 C    1.585    25 C    1.231    30 C    1.032
    30   6 C    3.996 --    29 C    1.032    65 H    0.983    63 H    0.978
                            64 H    0.967
    31   8 O    2.029 --    24 C    1.701    23 N    0.194
    32   6 C    3.967 --    23 N    0.989    36 N    0.977    66 H    0.942
                            33 C    0.906
    33   6 C    3.918 --    35 O    1.765    34 O    1.177    32 C    0.906
    34   8 O    2.242 --    33 C    1.177    67 H    0.853    35 O    0.186
    35   8 O    2.051 --    33 C    1.765    34 O    0.186
    36   7 N    3.467 --    37 C    1.208    32 C    0.977    11 C    0.959
                            44 O    0.190
    37   6 C    3.947 --    44 O    1.680    36 N    1.208    38 C    0.975
    38   6 C    3.977 --    39 C    1.565    42 C    1.232    37 C    0.975
    39   6 C    3.912 --    38 C    1.565    40 O    1.151    68 H    0.966
                            41 C    0.149
    40   8 O    2.458 --    39 C    1.151    41 C    1.127
    41   6 C    3.898 --    42 C    1.583    40 O    1.127    69 H    0.966
                            39 C    0.149
    42   6 C    3.981 --    41 C    1.583    38 C    1.232    43 C    1.031
    43   6 C    3.995 --    42 C    1.031    72 H    0.982    70 H    0.972
                            71 H    0.972
    44   8 O    2.008 --    37 C    1.680    36 N    0.190
    45   1 H    0.998 --     1 C    0.968
    46   1 H    0.998 --     2 C    0.971
    47   1 H    0.998 --     3 C    0.971
    48   1 H    0.998 --     4 C    0.965
    49   1 H    0.997 --     7 C    0.968
    50   1 H    0.997 --     8 C    0.970
    51   1 H    0.999 --     9 C    0.967
    52   1 H    0.996 --    11 C    0.949
    53   1 H    0.996 --    12 C    0.946
    54   1 H    0.998 --    14 C    0.965
    55   1 H    0.998 --    15 C    0.970
    56   1 H    0.998 --    16 C    0.968
    57   1 H    0.999 --    19 C    0.962
    58   1 H    0.999 --    20 C    0.971
    59   1 H    0.998 --    21 C    0.971
    60   1 H    0.998 --    22 C    0.968
    61   1 H    0.997 --    26 C    0.966
    62   1 H    0.996 --    28 C    0.965
    63   1 H    0.997 --    30 C    0.978
    64   1 H    0.998 --    30 C    0.967
    65   1 H    0.997 --    30 C    0.983
    66   1 H    0.994 --    32 C    0.942
    67   1 H    0.879 --    34 O    0.853
    68   1 H    0.997 --    39 C    0.966
    69   1 H    0.996 --    41 C    0.966
    70   1 H    0.998 --    43 C    0.972
    71   1 H    0.997 --    43 C    0.972
    72   1 H    0.997 --    43 C    0.982
 ---------------------------------------------------------------------------

molecular dipole:
                 x           y           z       tot (Debye)
 q only:       -0.826       0.559       0.320
   full:       -0.583       0.719       0.232       2.425

           -------------------------------------------------
          | TOTAL ENERGY             -121.675988156935 Eh   |
          | GRADIENT NORM               0.000692883780 Eh/Î± |
          | HOMO-LUMO GAP               2.794333308332 eV   |
           -------------------------------------------------

 * finished run on 2022/03/17 at 01:56:19.854
