   * xtb version 6.3.3 (4ae9cef) compiled by 'conda@95abc7406d43' on 2020-10-14
          program call               : xtb acid_460.xyz --opt --chrg 0 --uhf 0 --gfn 2
          number of atoms            :                    90
          number of electrons        :                   274
          charge                     :                     0
          spin                       :                   0.0

   ID    Z sym.   atoms
    1    6 C      1, 2, 6-15, 19-22, 24-34, 36, 37, 41-51
    2    9 F      3-5, 16-18
    3    7 N      23, 40
    4    8 O      35, 38, 39, 52
    5    1 H      53-90

          :  Hamiltonian                  GFN2-xTB          :
 * total energy  :  -155.6134291 Eh     change       -0.2184095E-08 Eh
 * total energy  :  -155.6323423 Eh     change       -0.1891327E-01 Eh
 * total energy  :  -155.6383876 Eh     change       -0.6045240E-02 Eh
 * total energy  :  -155.6404070 Eh     change       -0.2019401E-02 Eh
 * total energy  :  -155.6421428 Eh     change       -0.1735813E-02 Eh
 * total energy  :  -155.6432609 Eh     change       -0.1118106E-02 Eh
 * total energy  :  -155.6440789 Eh     change       -0.8179852E-03 Eh
 * total energy  :  -155.6447271 Eh     change       -0.6482070E-03 Eh
 * total energy  :  -155.6452499 Eh     change       -0.5228282E-03 Eh
 * total energy  :  -155.6455613 Eh     change       -0.3113775E-03 Eh
 * total energy  :  -155.6534080 Eh     change       -0.1567977E-04 Eh
 * total energy  :  -155.6534147 Eh     change       -0.6709979E-05 Eh
 * total energy  :  -155.6534123 Eh     change        0.2435104E-05 Eh
 * total energy  :  -155.6534000 Eh     change        0.1231366E-04 Eh
 * total energy  :  -155.6534175 Eh     change       -0.1748065E-04 Eh
 * total energy  :  -155.6534314 Eh     change       -0.1387629E-04 Eh
 * total energy  :  -155.6534440 Eh     change       -0.1266792E-04 Eh
 * total energy  :  -155.6534521 Eh     change       -0.8113292E-05 Eh
 * total energy  :  -155.6534556 Eh     change       -0.3442222E-05 Eh
   *** GEOMETRY OPTIMIZATION CONVERGED AFTER 98 ITERATIONS ***

 final structure:
================
90
 xtb: 6.3.3 (4ae9cef)
C        -2.90616958201442   -1.93104640400110   -0.38785227591706
C        -3.01158825725854   -2.46591283822939    1.01507071199170
F        -4.21685632180344   -2.99009178582986    1.27742194242374
F        -2.12066668666475   -3.44851931294558    1.25355747809326
F        -2.80742606452409   -1.55435043561815    1.98358055045184
C        -3.93815065612681   -2.23772147383921   -1.26856070794829
C        -3.87700001593998   -1.84253368953828   -2.58986546244988
C        -2.76553429027970   -1.15774604927883   -3.04779472873378
C        -1.73760491597304   -0.85763261907861   -2.17714985978453
C        -1.79218378982140   -1.21858554771201   -0.83442460614792
C        -0.61355490592152   -0.86739360190879    0.03888667218804
C         0.60679736529004   -1.76098673900947   -0.30316942592170
C         0.78011874170185   -2.88641371841297    0.68536123402633
C         0.60525554652491   -4.22818341731757    0.34696662686280
C         0.20516066124086   -4.63244809886148   -1.04343482881705
F         0.04050597559017   -5.95286208975929   -1.18240273217078
F         1.08175294516291   -4.26910942409117   -1.99565073832273
F        -0.97668629247622   -4.08083225807450   -1.42006428710497
C         0.77395860134889   -5.22073778042300    1.30438983744294
C         1.11404415507554   -4.88614535570478    2.60087097412878
C         1.27911406077164   -3.55651452363524    2.94751084766286
C         1.10986797796758   -2.56737880370865    1.99824003566700
N         1.73603880758166   -0.84089578612411   -0.26177286754198
C         3.02265383025559   -1.28003236979043   -0.16864311535734
C         4.02187073856555   -0.17534831384915   -0.06492558821261
C         4.67085576952878    0.05128368029280    1.13945441874635
C         5.58410912002273    1.08525909900627    1.25774899502327
C         5.88690755660909    1.90712661307928    0.17880821479748
C         6.86843375136906    3.06436969815686    0.26866148624358
C         7.48659721904812    3.20959274825792    1.66186817550370
C         6.12959350573520    4.36761070825693   -0.06800568293946
C         8.00584601539523    2.83549909618820   -0.73675667592770
C         5.25291480203365    1.64226978308283   -1.03368223925586
C         4.33408656457007    0.62075169179550   -1.15969737744159
O         3.30611633722648   -2.45701851863997   -0.16058360705984
C         1.32312837578308    0.53646692476038   -0.23111481829889
C         1.80697218072424    1.24415934938581    1.05175131923647
O         2.44943694631550    2.36662158432971    0.78996687071974
O         1.58407579511618    0.82521916641633    2.15557644259485
N        -0.12283960298959    0.47750234742192   -0.21767973100352
C        -0.83146485786237    1.63488978628090   -0.35830413924314
C        -2.30852854140344    1.50811411485067   -0.22651168037060
C        -2.88813447993708    1.17638447791767    0.98807501960287
C        -4.26212955595342    1.05025697039244    1.09527426414556
C        -5.09272250565087    1.24997799719085   -0.00032580776738
C        -6.60098217632901    1.07509478043895    0.06428855845358
C        -7.27202591095882    2.42304578286040   -0.23429508366941
C        -7.02780686665577    0.03598976737843   -0.98224337323147
C        -7.07899972312663    0.58931603593615    1.43502608103710
C        -4.49780106816866    1.63938636873252   -1.19912088548018
C        -3.13055065395676    1.77977456018140   -1.31323262300361
O        -0.26223829265462    2.68227570167848   -0.58957845469693
H        -4.78777595423669   -2.80055396360758   -0.91532661956006
H        -4.68731886413382   -2.08359574194037   -3.25939788280386
H        -2.69607079573636   -0.86265927960460   -4.08338518844090
H        -0.87092644764789   -0.32314819897668   -2.53637831846029
H        -0.84752848105652   -0.97466824087631    1.10264800323681
H         0.51026569041720   -2.14142849409917   -1.32585897394747
H         0.63839039230754   -6.25493308058650    1.02955898831582
H         1.24748835376772   -5.66361786121062    3.33682294354444
H         1.54038720716703   -3.28692017836663    3.95949170826332
H         1.24880359045999   -1.53108467453364    2.27172054417864
H         4.44954435512616   -0.57799912463185    1.98891729547259
H         6.05813653663172    1.23601893635497    2.21381011019401
H         8.17991023398550    4.04801970391486    1.66349098410797
H         6.72469538260176    3.40501423720299    2.41297940398258
H         8.04104340028671    2.31629765519094    1.93918858256733
H         6.81571480250167    5.21000558324963   -0.01354668753391
H         5.31894620891637    4.53647463275332    0.63796805105521
H         5.70581297915868    4.33697990362640   -1.06769361034423
H         7.63491486367299    2.80485347358545   -1.75710978514304
H         8.73526733552797    3.63929701233268   -0.66478290446794
H         8.50826582455648    1.89345191917827   -0.52799562888924
H         5.47278624627543    2.24402271623559   -1.90176529314306
H         3.86547225696776    0.43072880736446   -2.11455607606993
H         1.67074136873477    1.12369026557512   -1.09454480491387
H         2.69752149807833    2.83477848191185    1.60395323944400
H        -2.26821353335358    1.01857960939390    1.85782222379738
H        -4.67012921871519    0.78246036948938    2.05528485245797
H        -8.35362384756921    2.32368420379994   -0.17463260661857
H        -7.01634974291098    2.78116941459480   -1.22765282526403
H        -6.95324736380889    3.16994442389686    0.48954400822441
H        -6.55263552459751   -0.91979052131967   -0.77376111393902
H        -8.10664164960300   -0.09988870402133   -0.95296782584180
H        -6.75050743619872    0.34272611954838   -1.98675901561438
H        -8.15763768287347    0.44858432428473    1.41286401484419
H        -6.85299444215319    1.31730926933777    2.21033597648965
H        -6.62098801211831   -0.36266342075097    1.69339364902134
H        -5.10816564232636    1.84047713108860   -2.06608804637870
H        -2.68991922015366    2.08658441166243   -2.24986972502670

          :  Hamiltonian                  GFN2-xTB          :
         :: total energy            -155.653455579033 Eh    ::
         :: gradient norm              0.000365411448 Eh/a0 ::
         :: HOMO-LUMO gap              3.293928959626 eV    ::
         :: SCC energy              -157.650363524271 Eh    ::
         :: -> dispersion             -0.130621804026 Eh    ::
         :: repulsion energy           1.992283923374 Eh    ::

    * Orbital Energies and Occupations

         #    Occupation            Energy/Eh            Energy/eV
      -------------------------------------------------------------
         1        2.0000           -0.8852902             -24.0900
       ...           ...                  ...                  ...
       125        2.0000           -0.4319302             -11.7534
       126        2.0000           -0.4296017             -11.6901
       127        2.0000           -0.4248705             -11.5613
       128        2.0000           -0.4230754             -11.5125
       129        2.0000           -0.4224707             -11.4960
       130        2.0000           -0.4171132             -11.3502
       131        2.0000           -0.4149692             -11.2919
       132        2.0000           -0.4143509             -11.2751
       133        2.0000           -0.4068400             -11.0707
       134        2.0000           -0.4062329             -11.0542
       135        2.0000           -0.4027968             -10.9607
       136        2.0000           -0.3996386             -10.8747
       137        2.0000           -0.3953588             -10.7583 (HOMO)
       138                         -0.2743091              -7.4643 (LUMO)
       139                         -0.2664184              -7.2496
       140                         -0.2632200              -7.1626
       141                         -0.2546111              -6.9283
       142                         -0.2469679              -6.7203
       143                         -0.2456088              -6.6834
       144                         -0.2410317              -6.5588
       145                         -0.2324493              -6.3253
       146                         -0.2322634              -6.3202
       147                         -0.2140836              -5.8255
       148                         -0.2115470              -5.7565
       ...                                ...                  ...
       246                          0.6592211              17.9383
      -------------------------------------------------------------
                  HL-Gap            0.1210497 Eh            3.2939 eV

     #   Z          covCN         q      C6AA      Î±(0)
     1   6 C        2.975    -0.029    28.731     8.792
     2   6 C        3.336     0.485    17.303     6.588
     3   9 F        0.792    -0.201    11.244     3.961
     4   9 F        0.791    -0.214    11.378     3.985
     5   9 F        0.792    -0.210    11.335     3.977
     6   6 C        2.925    -0.019    28.491     8.753
     7   6 C        2.920    -0.021    28.524     8.758
     8   6 C        2.919    -0.017    28.426     8.743
     9   6 C        2.929    -0.025    28.634     8.775
    10   6 C        2.971     0.013    27.725     8.637
    11   6 C        3.815     0.040    19.897     6.349
    12   6 C        3.822     0.051    19.709     6.318
    13   6 C        2.972     0.024    27.465     8.596
    14   6 C        2.976    -0.022    28.560     8.766
    15   6 C        3.335     0.486    17.298     6.588
    16   9 F        0.792    -0.200    11.231     3.959
    17   9 F        0.791    -0.205    11.283     3.968
    18   9 F        0.791    -0.229    11.536     4.012
    19   6 C        2.923    -0.018    28.466     8.749
    20   6 C        2.920    -0.020    28.518     8.757
    21   6 C        2.919    -0.015    28.395     8.738
    22   6 C        2.926    -0.026    28.655     8.779
    23   7 N        2.764    -0.119    23.587     7.213
    24   6 C        2.762     0.273    22.386     7.748
    25   6 C        2.978    -0.026    28.644     8.779
    26   6 C        2.922    -0.027    28.677     8.782
    27   6 C        2.925    -0.039    28.974     8.827
    28   6 C        2.974     0.014    27.702     8.633
    29   6 C        3.903     0.025    20.091     6.371
    30   6 C        3.761    -0.110    22.646     6.784
    31   6 C        3.762    -0.108    22.619     6.780
    32   6 C        3.762    -0.108    22.605     6.778
    33   6 C        2.927    -0.030    28.757     8.794
    34   6 C        2.920    -0.030    28.749     8.793
    35   8 O        0.859    -0.413    21.944     6.281
    36   6 C        3.760     0.094    19.079     6.227
    37   6 C        2.689     0.358    20.920     7.485
    38   8 O        1.660    -0.343    19.775     6.003
    39   8 O        0.856    -0.397    21.612     6.233
    40   7 N        2.765    -0.117    23.555     7.208
    41   6 C        2.765     0.269    22.454     7.760
    42   6 C        2.976    -0.022    28.547     8.764
    43   6 C        2.922    -0.032    28.809     8.802
    44   6 C        2.926    -0.038    28.947     8.823
    45   6 C        2.974     0.012    27.740     8.639
    46   6 C        3.903     0.026    20.089     6.371
    47   6 C        3.762    -0.107    22.598     6.777
    48   6 C        3.762    -0.109    22.620     6.780
    49   6 C        3.761    -0.111    22.674     6.788
    50   6 C        2.927    -0.036    28.884     8.814
    51   6 C        2.922    -0.028    28.693     8.784
    52   8 O        0.859    -0.427    22.227     6.321
    53   1 H        0.926     0.068     2.105     2.269
    54   1 H        0.926     0.061     2.184     2.311
    55   1 H        0.926     0.060     2.197     2.318
    56   1 H        0.926     0.056     2.252     2.347
    57   1 H        0.924     0.068     2.109     2.271
    58   1 H        0.924     0.062     2.172     2.305
    59   1 H        0.926     0.067     2.120     2.277
    60   1 H        0.926     0.057     2.240     2.340
    61   1 H        0.926     0.057     2.237     2.339
    62   1 H        0.926     0.070     2.090     2.261
    63   1 H        0.926     0.041     2.441     2.443
    64   1 H        0.926     0.046     2.371     2.408
    65   1 H        0.925     0.040     2.446     2.446
    66   1 H        0.925     0.035     2.519     2.482
    67   1 H        0.925     0.039     2.464     2.455
    68   1 H        0.925     0.042     2.425     2.435
    69   1 H        0.925     0.033     2.542     2.493
    70   1 H        0.925     0.041     2.438     2.442
    71   1 H        0.925     0.039     2.462     2.454
    72   1 H        0.925     0.041     2.437     2.441
    73   1 H        0.925     0.037     2.488     2.467
    74   1 H        0.926     0.042     2.419     2.432
    75   1 H        0.926     0.033     2.548     2.496
    76   1 H        0.923     0.082     1.956     2.187
    77   1 H        0.804     0.346     0.598     1.215
    78   1 H        0.926     0.041     2.441     2.443
    79   1 H        0.926     0.052     2.292     2.367
    80   1 H        0.925     0.042     2.428     2.436
    81   1 H        0.925     0.038     2.474     2.460
    82   1 H        0.925     0.037     2.485     2.465
    83   1 H        0.925     0.033     2.538     2.491
    84   1 H        0.925     0.043     2.406     2.426
    85   1 H        0.925     0.036     2.507     2.476
    86   1 H        0.925     0.041     2.439     2.442
    87   1 H        0.925     0.039     2.459     2.452
    88   1 H        0.925     0.040     2.451     2.448
    89   1 H        0.926     0.038     2.470     2.458
    90   1 H        0.926     0.039     2.464     2.455

Wiberg/Mayer (AO) data.
largest (>0.10) Wiberg bond orders for each atom

     #   Z sym  total        # sym  WBO       # sym  WBO       # sym  WBO
 ---------------------------------------------------------------------------
     1   6 C    3.969 --     6 C    1.408    10 C    1.388     2 C    0.951
                             8 C    0.104
     2   6 C    3.822 --     3 F    0.954     1 C    0.951     5 F    0.940
                             4 F    0.938
     3   9 F    1.077 --     2 C    0.954
     4   9 F    1.066 --     2 C    0.938
     5   9 F    1.071 --     2 C    0.940
     6   6 C    3.987 --     7 C    1.446     1 C    1.408    53 H    0.964
                             9 C    0.109
     7   6 C    3.988 --     6 C    1.446     8 C    1.429    54 H    0.968
                            10 C    0.108
     8   6 C    3.989 --     9 C    1.452     7 C    1.429    55 H    0.968
                             1 C    0.104
     9   6 C    3.989 --     8 C    1.452    10 C    1.404    56 H    0.966
                             6 C    0.109
    10   6 C    3.986 --     9 C    1.404     1 C    1.388    11 C    0.995
                             7 C    0.108
    11   6 C    3.969 --    10 C    0.995    40 N    0.966    57 H    0.950
                            12 C    0.946
    12   6 C    3.968 --    13 C    0.994    23 N    0.958    58 H    0.953
                            11 C    0.946
    13   6 C    3.986 --    22 C    1.408    14 C    1.386    12 C    0.994
                            20 C    0.108
    14   6 C    3.969 --    19 C    1.411    13 C    1.386    15 C    0.953
                            21 C    0.104
    15   6 C    3.819 --    16 F    0.958    14 C    0.953    17 F    0.946
                            18 F    0.923
    16   9 F    1.080 --    15 C    0.958
    17   9 F    1.076 --    15 C    0.946
    18   9 F    1.049 --    15 C    0.923
    19   6 C    3.987 --    20 C    1.444    14 C    1.411    59 H    0.966
                            22 C    0.109
    20   6 C    3.989 --    19 C    1.444    21 C    1.432    60 H    0.969
                            13 C    0.108
    21   6 C    3.990 --    22 C    1.449    20 C    1.432    61 H    0.969
                            14 C    0.104
    22   6 C    3.987 --    21 C    1.449    13 C    1.408    62 H    0.960
                            19 C    0.109
    23   7 N    3.452 --    24 C    1.193    36 C    0.988    12 C    0.958
                            35 O    0.190
    24   6 C    3.942 --    35 O    1.705    23 N    1.193    25 C    0.960
    25   6 C    3.985 --    26 C    1.407    34 C    1.391    24 C    0.960
                            28 C    0.107
    26   6 C    3.990 --    27 C    1.438    25 C    1.407    63 H    0.970
                            33 C    0.109
    27   6 C    3.990 --    26 C    1.438    28 C    1.419    64 H    0.964
                            34 C    0.107
    28   6 C    3.985 --    27 C    1.419    33 C    1.398    29 C    0.986
                            25 C    0.107
    29   6 C    3.992 --    30 C    1.000    32 C    0.986    31 C    0.986
                            28 C    0.986
    30   6 C    3.996 --    29 C    1.000    66 H    0.985    67 H    0.984
                            65 H    0.984
    31   6 C    3.995 --    69 H    0.987    29 C    0.986    68 H    0.984
                            70 H    0.983
    32   6 C    3.995 --    73 H    0.987    29 C    0.986    72 H    0.984
                            71 H    0.983
    33   6 C    3.991 --    34 C    1.460    28 C    1.398    74 H    0.964
                            26 C    0.109
    34   6 C    3.991 --    33 C    1.460    25 C    1.391    75 H    0.969
                            27 C    0.107
    35   8 O    2.035 --    24 C    1.705    23 N    0.190
    36   6 C    3.964 --    23 N    0.988    40 N    0.977    76 H    0.943
                            37 C    0.907
    37   6 C    3.920 --    39 O    1.760    38 O    1.180    36 C    0.907
    38   8 O    2.247 --    37 C    1.180    77 H    0.853    39 O    0.186
    39   8 O    2.050 --    37 C    1.760    38 O    0.186
    40   7 N    3.454 --    41 C    1.192    36 C    0.977    11 C    0.966
                            52 O    0.187
    41   6 C    3.941 --    52 O    1.690    40 N    1.192    42 C    0.971
    42   6 C    3.986 --    43 C    1.407    51 C    1.388    41 C    0.971
                            45 C    0.106
    43   6 C    3.990 --    44 C    1.439    42 C    1.407    78 H    0.969
                            50 C    0.108
    44   6 C    3.990 --    43 C    1.439    45 C    1.418    79 H    0.963
                            51 C    0.107
    45   6 C    3.985 --    44 C    1.418    50 C    1.398    46 C    0.986
                            42 C    0.106
    46   6 C    3.992 --    49 C    1.000    48 C    0.987    45 C    0.986
                            47 C    0.986
    47   6 C    3.995 --    82 H    0.987    46 C    0.986    80 H    0.984
                            81 H    0.984
    48   6 C    3.995 --    46 C    0.987    83 H    0.985    84 H    0.984
                            85 H    0.983
    49   6 C    3.996 --    46 C    1.000    88 H    0.984    87 H    0.984
                            86 H    0.984
    50   6 C    3.991 --    51 C    1.461    45 C    1.398    89 H    0.964
                            43 C    0.108
    51   6 C    3.990 --    50 C    1.461    42 C    1.388    90 H    0.969
                            44 C    0.107
    52   8 O    2.013 --    41 C    1.690    40 N    0.187
    53   1 H    0.995 --     6 C    0.964
    54   1 H    0.995 --     7 C    0.968
    55   1 H    0.996 --     8 C    0.968
    56   1 H    0.997 --     9 C    0.966
    57   1 H    0.995 --    11 C    0.950
    58   1 H    0.995 --    12 C    0.953
    59   1 H    0.995 --    19 C    0.966
    60   1 H    0.996 --    20 C    0.969
    61   1 H    0.996 --    21 C    0.969
    62   1 H    0.995 --    22 C    0.960
    63   1 H    0.998 --    26 C    0.970
    64   1 H    0.997 --    27 C    0.964
    65   1 H    0.998 --    30 C    0.984
    66   1 H    0.999 --    30 C    0.985
    67   1 H    0.998 --    30 C    0.984
    68   1 H    0.997 --    31 C    0.984
    69   1 H    0.999 --    31 C    0.987
    70   1 H    0.998 --    31 C    0.983
    71   1 H    0.998 --    32 C    0.983
    72   1 H    0.997 --    32 C    0.984
    73   1 H    0.999 --    32 C    0.987
    74   1 H    0.998 --    33 C    0.964
    75   1 H    0.998 --    34 C    0.969
    76   1 H    0.993 --    36 C    0.943
    77   1 H    0.880 --    38 O    0.853
    78   1 H    0.998 --    43 C    0.969
    79   1 H    0.997 --    44 C    0.963
    80   1 H    0.997 --    47 C    0.984
    81   1 H    0.999 --    47 C    0.984
    82   1 H    0.999 --    47 C    0.987
    83   1 H    0.999 --    48 C    0.985
    84   1 H    0.997 --    48 C    0.984
    85   1 H    0.999 --    48 C    0.983
    86   1 H    0.998 --    49 C    0.984
    87   1 H    0.998 --    49 C    0.984
    88   1 H    0.998 --    49 C    0.984
    89   1 H    0.998 --    50 C    0.964
    90   1 H    0.998 --    51 C    0.969
 ---------------------------------------------------------------------------

molecular dipole:
                 x           y           z       tot (Debye)
 q only:       -0.541       1.407      -0.019
   full:       -0.499       1.546      -0.011       4.129

           -------------------------------------------------
          | TOTAL ENERGY             -155.653455579033 Eh   |
          | GRADIENT NORM               0.000365411448 Eh/Î± |
          | HOMO-LUMO GAP               3.293928959626 eV   |
           -------------------------------------------------

 * finished run on 2022/03/17 at 01:28:52.979
