   * xtb version 6.3.3 (4ae9cef) compiled by 'conda@95abc7406d43' on 2020-10-14
          program call               : xtb alk_0.xyz --opt --chrg 0 --uhf 0 --gfn 2
          number of atoms            :                    19
          number of electrons        :                    46
          charge                     :                     0
          spin                       :                   0.0

   ID    Z sym.   atoms
    1    6 C      1-9
    2    1 H      10-19

          :  Hamiltonian                  GFN2-xTB          :
 * total energy  :   -24.3176814 Eh     change       -0.1046523E-08 Eh
 * total energy  :   -24.3198199 Eh     change       -0.2138467E-02 Eh
 * total energy  :   -24.3200563 Eh     change       -0.2364236E-03 Eh
 * total energy  :   -24.3201589 Eh     change       -0.1025966E-03 Eh
 * total energy  :   -24.3202094 Eh     change       -0.5052206E-04 Eh
 * total energy  :   -24.3202425 Eh     change       -0.3301809E-04 Eh
 * total energy  :   -24.3202618 Eh     change       -0.1938282E-04 Eh
 * total energy  :   -24.3202752 Eh     change       -0.1335499E-04 Eh
 * total energy  :   -24.3202817 Eh     change       -0.6552267E-05 Eh
 * total energy  :   -24.3202860 Eh     change       -0.4260094E-05 Eh
   *** GEOMETRY OPTIMIZATION CONVERGED AFTER 10 ITERATIONS ***

 final structure:
================
19
 xtb: 6.3.3 (4ae9cef)
C        -2.15687833812384   -0.58791905673163    1.21678895349146
C        -2.42598788797035    0.14675257041492    0.15505205107804
C        -1.41821305369415    0.69135351156086   -0.81880116510865
C        -0.00122946705669    0.32360070587392   -0.48573189621553
C         0.76425347437611    1.13513797840809    0.34175655806835
C         2.06385826328560    0.78775450530103    0.66509988261829
C         2.61557895865848   -0.37938819791548    0.16516263860692
C         1.85964242862949   -1.19696017073628   -0.65744454549522
C         0.56028775371449   -0.84710260884392   -0.97912469053718
H        -1.15006541800183   -0.86693643169356    1.47946712721113
H        -2.93698923515507   -0.94240808058432    1.86910910970426
H        -3.45107828981168    0.40791411397556   -0.07886535093773
H        -1.52333071927734    1.78075431831070   -0.84256804833317
H        -1.67392076695759    0.31899529644441   -1.81598989454377
H         0.33654625530322    2.04593268711622    0.73667318984978
H         2.64872237392969    1.43053553164941    1.30708457486151
H         3.63151674374691   -0.64928362365478    0.41331622959214
H         2.28454441472506   -2.10886176277098   -1.05148719277278
H        -0.02725849032046   -1.48987228612413   -1.61949653113785

          :  Hamiltonian                  GFN2-xTB          :
         :: total energy             -24.320286004323 Eh    ::
         :: gradient norm              0.000381370964 Eh/a0 ::
         :: HOMO-LUMO gap              4.743758718783 eV    ::
         :: SCC energy               -24.790167262183 Eh    ::
         :: -> dispersion             -0.015505058926 Eh    ::
         :: repulsion energy           0.469807584926 Eh    ::

    * Orbital Energies and Occupations

         #    Occupation            Energy/Eh            Energy/eV
      -------------------------------------------------------------
         1        2.0000           -0.6417136             -17.4619
       ...           ...                  ...                  ...
        11        2.0000           -0.5031823             -13.6923
        12        2.0000           -0.4922579             -13.3950
        13        2.0000           -0.4778634             -13.0033
        14        2.0000           -0.4745000             -12.9118
        15        2.0000           -0.4689150             -12.7598
        16        2.0000           -0.4669604             -12.7066
        17        2.0000           -0.4534122             -12.3380
        18        2.0000           -0.4360063             -11.8643
        19        2.0000           -0.4182329             -11.3807
        20        2.0000           -0.4156201             -11.3096
        21        2.0000           -0.4007807             -10.9058
        22        2.0000           -0.3973227             -10.8117
        23        2.0000           -0.3925422             -10.6816 (HOMO)
        24                         -0.2182123              -5.9379 (LUMO)
        25                         -0.2180168              -5.9325
        26                         -0.1979497              -5.3865
        27                         -0.0894349              -2.4336
        28                          0.0983112               2.6752
        29                          0.1143331               3.1112
        30                          0.1322785               3.5995
        31                          0.1459609               3.9718
        32                          0.1550952               4.2204
        33                          0.1682907               4.5794
        34                          0.1922510               5.2314
       ...                                ...                  ...
        46                          0.6710076              18.2590
      -------------------------------------------------------------
                  HL-Gap            0.1743299 Eh            4.7438 eV

     #   Z          covCN         q      C6AA      Î±(0)
     1   6 C        2.836    -0.093    30.336     9.026
     2   6 C        2.886    -0.025    28.614     8.770
     3   6 C        3.811    -0.062    21.685     6.628
     4   6 C        2.970     0.017    27.620     8.621
     5   6 C        2.925    -0.037    28.911     8.818
     6   6 C        2.919    -0.031    28.769     8.796
     7   6 C        2.920    -0.033    28.833     8.806
     8   6 C        2.919    -0.031    28.769     8.796
     9   6 C        2.925    -0.037    28.911     8.818
    10   1 H        0.926     0.037     2.487     2.466
    11   1 H        0.926     0.034     2.535     2.490
    12   1 H        0.925     0.029     2.598     2.521
    13   1 H        0.924     0.046     2.374     2.409
    14   1 H        0.924     0.046     2.374     2.410
    15   1 H        0.926     0.028     2.611     2.527
    16   1 H        0.926     0.028     2.617     2.530
    17   1 H        0.926     0.027     2.623     2.533
    18   1 H        0.926     0.028     2.617     2.530
    19   1 H        0.926     0.028     2.611     2.527

Wiberg/Mayer (AO) data.
largest (>0.10) Wiberg bond orders for each atom

     #   Z sym  total        # sym  WBO       # sym  WBO       # sym  WBO
 ---------------------------------------------------------------------------
     1   6 C    3.992 --     2 C    1.979    11 H    0.977    10 H    0.974
     2   6 C    3.991 --     1 C    1.979     3 C    1.008    12 H    0.966
     3   6 C    3.998 --     4 C    1.011     2 C    1.008    14 H    0.956
                            13 H    0.956
     4   6 C    3.989 --     9 C    1.412     5 C    1.412     3 C    1.011
                             7 C    0.110
     5   6 C    3.992 --     6 C    1.446     4 C    1.412    15 H    0.970
                             8 C    0.111
     6   6 C    3.993 --     5 C    1.446     7 C    1.438    16 H    0.971
                             9 C    0.111
     7   6 C    3.992 --     8 C    1.438     6 C    1.438    17 H    0.972
                             4 C    0.110
     8   6 C    3.993 --     9 C    1.446     7 C    1.438    18 H    0.971
                             5 C    0.111
     9   6 C    3.992 --     8 C    1.446     4 C    1.412    19 H    0.970
                             6 C    0.111
    10   1 H    0.999 --     1 C    0.974
    11   1 H    0.999 --     1 C    0.977
    12   1 H    0.998 --     2 C    0.966
    13   1 H    0.998 --     3 C    0.956
    14   1 H    0.998 --     3 C    0.956
    15   1 H    0.999 --     5 C    0.970
    16   1 H    0.999 --     6 C    0.971
    17   1 H    0.999 --     7 C    0.972
    18   1 H    0.999 --     8 C    0.971
    19   1 H    0.999 --     9 C    0.970
 ---------------------------------------------------------------------------

molecular dipole:
                 x           y           z       tot (Debye)
 q only:       -0.095       0.098      -0.132
   full:       -0.105       0.108      -0.146       0.532

           -------------------------------------------------
          | TOTAL ENERGY              -24.320286004323 Eh   |
          | GRADIENT NORM               0.000381370964 Eh/Î± |
          | HOMO-LUMO GAP               4.743758718783 eV   |
           -------------------------------------------------

 * finished run on 2022/03/17 at 02:19:11.282
