   * xtb version 6.3.3 (4ae9cef) compiled by 'conda@95abc7406d43' on 2020-10-14
          program call               : xtb acid_112.xyz --opt --chrg 0 --uhf 0 --gfn 2
          number of atoms            :                    86
          number of electrons        :                   286
          charge                     :                     0
          spin                       :                   0.0

   ID    Z sym.   atoms
    1    6 C      1, 2, 6-15, 19-22, 24-27, 29-36, 38, 39, 43-46, 48-55
    2    9 F      3-5, 16-18
    3    7 N      23, 42
    4    8 O      28, 37, 40, 41, 47, 56
    5    1 H      57-86

          :  Hamiltonian                  GFN2-xTB          :
 * total energy  :  -163.9456381 Eh     change       -0.2355421E-08 Eh
 * total energy  :  -163.9631657 Eh     change       -0.1752754E-01 Eh
 * total energy  :  -163.9682688 Eh     change       -0.5103128E-02 Eh
 * total energy  :  -163.9698627 Eh     change       -0.1593845E-02 Eh
 * total energy  :  -163.9712273 Eh     change       -0.1364598E-02 Eh
 * total energy  :  -163.9722040 Eh     change       -0.9767477E-03 Eh
 * total energy  :  -163.9731006 Eh     change       -0.8966174E-03 Eh
 * total energy  :  -163.9740790 Eh     change       -0.9783887E-03 Eh
 * total energy  :  -163.9751913 Eh     change       -0.1112322E-02 Eh
 * total energy  :  -163.9763533 Eh     change       -0.1161957E-02 Eh
 * total energy  :  -163.9818698 Eh     change       -0.8487690E-05 Eh
 * total energy  :  -163.9818805 Eh     change       -0.1067849E-04 Eh
 * total energy  :  -163.9818902 Eh     change       -0.9711580E-05 Eh
 * total energy  :  -163.9818974 Eh     change       -0.7215409E-05 Eh
 * total energy  :  -163.9819043 Eh     change       -0.6936561E-05 Eh
 * total energy  :  -163.9819123 Eh     change       -0.7924474E-05 Eh
 * total energy  :  -163.9819194 Eh     change       -0.7167439E-05 Eh
 * total energy  :  -163.9819250 Eh     change       -0.5591958E-05 Eh
 * total energy  :  -163.9819299 Eh     change       -0.4904125E-05 Eh
   *** GEOMETRY OPTIMIZATION CONVERGED AFTER 54 ITERATIONS ***

 final structure:
================
86
 xtb: 6.3.3 (4ae9cef)
C         2.88234966023095   -2.11296107469838   -0.11224033290582
C         2.78630344956710   -2.56018193036770   -1.54702248013065
F         1.71853188101403   -3.35982961657024   -1.75560415023710
F         3.85243195046525   -3.26618775081989   -1.94243672447728
F         2.66347906519803   -1.56292868280846   -2.44076534224279
C         3.99553277968970   -2.51810934486075    0.61851425020579
C         4.10106799876741   -2.21217045075015    1.96147850442455
C         3.07884203367625   -1.52127730688513    2.58998770601862
C         1.97956805869962   -1.10344297561643    1.86507757700299
C         1.87186354849824   -1.36879676673847    0.50206003402275
C         0.65780542004685   -0.84919168991775   -0.22966934967320
C        -0.61461766198196   -1.60927680472567    0.22201839368824
C        -1.01484252142580   -2.75361202187159   -0.67476437471133
C        -1.66247757084181   -2.62578167609434   -1.90658891019400
C        -2.09774289027287   -1.31003459015668   -2.49577287085898
F        -3.25277508647389   -0.85557728541466   -1.97608417444701
F        -1.21212075093368   -0.30569895248490   -2.35806944775879
F        -2.31348088608829   -1.39524000904761   -3.82026449773474
C        -1.99400295082375   -3.76135206512572   -2.64120958814469
C        -1.67242296313517   -5.02213041005725   -2.18069761848501
C        -1.01960673204194   -5.15815078677336   -0.96910302010881
C        -0.70296849572266   -4.03524746248299   -0.23192163827941
N        -1.63730245674224   -0.58234863577715    0.33697630644251
C        -2.83876933844318   -0.95959602723308    0.88111111385174
C        -3.80424399471822    0.11860213863165    1.12806236978278
C        -4.61044252610552    0.20568637626445    2.23930612600960
C        -4.68509675897895   -0.65191486232548    3.44713295509149
O        -5.39142575461321    1.29216526027463    2.15514231381792
C        -5.12990152087154    1.91158624605566    0.97296563177291
C        -5.86711521808975    3.11153234447035    0.63156270438177
C        -6.87304953797170    3.58236998517742    1.47724048558884
C        -7.57990144280175    4.72464269068701    1.15638690106067
C        -7.29645028852456    5.41577066938125   -0.01018656834688
C        -6.29827357243795    4.95675808076272   -0.85497942925505
C        -5.58700208866378    3.81564591469056   -0.54063000306962
C        -4.15131734947388    1.22399187327160    0.30637538781203
O        -3.06730981994379   -2.13152626167129    1.11324961378295
C        -1.05029945610278    0.72898257139515    0.43905055158822
C        -1.15172371152746    1.29148822110271    1.87644908899553
O        -1.91896888005226    2.36880978455755    1.94795257026019
O        -0.70568442048360    0.70499782040262    2.83059583764100
N         0.35041514136214    0.52897406039665    0.12083025247718
C         1.18769401972103    1.49844098088489    0.56974994682799
C         2.60796271397699    1.37755984619733    0.23869959314363
C         3.65675738352224    1.63663838845893    1.08962748839028
C         3.66651179757025    2.06142135334538    2.50917198613863
O         4.81870756715250    1.40009812144349    0.46341124130043
C         4.54509766123888    1.02043630584791   -0.81397161581243
C         5.64376336861338    0.70292801065693   -1.70448158424619
C         6.96142056450109    0.79648179175318   -1.25327111338836
C         8.01211546978380    0.48803623560965   -2.09487141653512
C         7.76667332522721    0.08061710057304   -3.39602899791956
C         6.46137688985766   -0.01616559211486   -3.85154995982666
C         5.40500257898279    0.29193668855778   -3.01704423690226
C         3.18863158137287    0.99481907273573   -0.99900618162112
O         0.72441312012900    2.43222309430219    1.21340790546887
H         4.77887532795177   -3.07576956304230    0.12992232176915
H         4.97255492473762   -2.52566911580612    2.51438568067145
H         3.13530969061823   -1.30415534436983    3.64551969312556
H         1.19381788277052   -0.55058857430524    2.36060524777249
H         0.78140872871622   -0.92862423448629   -1.31265609519536
H        -0.43998789237446   -2.03398389869398    1.22235384261710
H        -2.50744563231699   -3.65115307139593   -3.58377916542139
H        -1.93633246235547   -5.88980995855324   -2.76451224614074
H        -0.76475281870021   -6.13690433260029   -0.59341857527816
H        -0.20543957672900   -4.14739708631624    0.71942647283498
H        -4.29916478034866   -1.63814592502805    3.20623248130064
H        -4.09099709505538   -0.22821622642591    4.25797496786528
H        -5.71622822171860   -0.73032795546603    3.78405918294440
H        -7.09341079458003    3.04125898220635    2.38481940700760
H        -8.35692729868662    5.07824826862517    1.81838894803694
H        -7.85043215582732    6.30832564057621   -0.26034895588724
H        -6.07378202615454    5.49404371826076   -1.76476161211278
H        -4.81001412740418    3.46584026159119   -1.20129694232924
H        -3.76215120296934    1.43972893393789   -0.66525195329556
H        -1.50293156547731    1.44980221841647   -0.25401069819119
H        -1.93235713952016    2.72084646228614    2.85181105736617
H         4.26504882999994    2.96353040936439    2.62600739963805
H         2.64845234654097    2.26443900579187    2.82667076339702
H         4.10043550130727    1.28400217500035    3.13769186960015
H         7.14869818281030    1.11457216369265   -0.23889397646149
H         9.02775927582537    0.56578956361542   -1.73532603097161
H         8.58906471822001   -0.16044088131091   -4.05288851549327
H         6.26638658505952   -0.33445203278582   -4.86484546435509
H         4.39255027938388    0.21266398018064   -3.37801833063175
H         2.65900713370608    0.77763642253317   -1.90122398385867

          :  Hamiltonian                  GFN2-xTB          :
         :: total energy            -163.981929923457 Eh    ::
         :: gradient norm              0.000363321874 Eh/a0 ::
         :: HOMO-LUMO gap              2.551602728196 eV    ::
         :: SCC energy              -166.070578813323 Eh    ::
         :: -> dispersion             -0.128446984836 Eh    ::
         :: repulsion energy           2.084504421982 Eh    ::

    * Orbital Energies and Occupations

         #    Occupation            Energy/Eh            Energy/eV
      -------------------------------------------------------------
         1        2.0000           -0.8891564             -24.1952
       ...           ...                  ...                  ...
       131        2.0000           -0.4273590             -11.6290
       132        2.0000           -0.4266938             -11.6109
       133        2.0000           -0.4249160             -11.5626
       134        2.0000           -0.4204520             -11.4411
       135        2.0000           -0.4190814             -11.4038
       136        2.0000           -0.4161332             -11.3236
       137        2.0000           -0.4148626             -11.2890
       138        2.0000           -0.4109519             -11.1826
       139        2.0000           -0.4044450             -11.0055
       140        2.0000           -0.4026046             -10.9554
       141        2.0000           -0.3947272             -10.7411
       142        2.0000           -0.3809596             -10.3664
       143        2.0000           -0.3710920             -10.0979 (HOMO)
       144                         -0.2773224              -7.5463 (LUMO)
       145                         -0.2690327              -7.3208
       146                         -0.2609605              -7.1011
       147                         -0.2594423              -7.0598
       148                         -0.2533585              -6.8942
       149                         -0.2508515              -6.8260
       150                         -0.2499426              -6.8013
       151                         -0.2410130              -6.5583
       152                         -0.2368567              -6.4452
       153                         -0.2281050              -6.2071
       154                         -0.2215834              -6.0296
       ...                                ...                  ...
       254                          0.7146251              19.4459
      -------------------------------------------------------------
                  HL-Gap            0.0937697 Eh            2.5516 eV

     #   Z          covCN         q      C6AA      Î±(0)
     1   6 C        2.974    -0.035    28.864     8.813
     2   6 C        3.335     0.484    17.322     6.593
     3   9 F        0.791    -0.217    11.413     3.991
     4   9 F        0.792    -0.200    11.232     3.959
     5   9 F        0.791    -0.209    11.324     3.975
     6   6 C        2.923    -0.024    28.610     8.772
     7   6 C        2.919    -0.024    28.593     8.769
     8   6 C        2.918    -0.019    28.484     8.752
     9   6 C        2.926    -0.033    28.832     8.806
    10   6 C        2.971     0.010    27.794     8.648
    11   6 C        3.811     0.040    19.899     6.350
    12   6 C        3.837     0.053    19.664     6.309
    13   6 C        2.967     0.024    27.466     8.596
    14   6 C        2.974    -0.025    28.634     8.777
    15   6 C        3.337     0.488    17.255     6.577
    16   9 F        0.791    -0.208    11.319     3.974
    17   9 F        0.792    -0.215    11.386     3.986
    18   9 F        0.793    -0.207    11.309     3.972
    19   6 C        2.927    -0.021    28.525     8.759
    20   6 C        2.920    -0.020    28.518     8.757
    21   6 C        2.918    -0.014    28.371     8.735
    22   6 C        2.931    -0.020    28.510     8.757
    23   7 N        2.758    -0.127    23.745     7.237
    24   6 C        2.766     0.277    22.320     7.737
    25   6 C        3.061    -0.065    29.556     8.915
    26   6 C        3.079     0.131    25.056     8.206
    27   6 C        3.753    -0.121    22.875     6.820
    28   8 O        1.730    -0.189    17.161     5.593
    29   6 C        3.087     0.107    25.547     8.285
    30   6 C        2.970     0.007    27.861     8.658
    31   6 C        2.925    -0.031    28.777     8.797
    32   6 C        2.918    -0.029    28.713     8.787
    33   6 C        2.920    -0.030    28.759     8.794
    34   6 C        2.919    -0.027    28.680     8.782
    35   6 C        2.924    -0.035    28.877     8.813
    36   6 C        3.006    -0.067    29.653     8.933
    37   8 O        0.859    -0.433    22.340     6.337
    38   6 C        3.773     0.096    19.029     6.216
    39   6 C        2.692     0.371    20.708     7.448
    40   8 O        1.659    -0.358    20.044     6.044
    41   8 O        0.856    -0.427    22.222     6.320
    42   7 N        2.766    -0.106    23.313     7.171
    43   6 C        2.774     0.274    22.361     7.745
    44   6 C        3.063    -0.062    29.465     8.901
    45   6 C        3.074     0.129    25.095     8.213
    46   6 C        3.753    -0.121    22.881     6.821
    47   8 O        1.730    -0.190    17.178     5.596
    48   6 C        3.086     0.105    25.590     8.292
    49   6 C        2.971     0.004    27.935     8.670
    50   6 C        2.925    -0.031    28.778     8.797
    51   6 C        2.918    -0.028    28.705     8.786
    52   6 C        2.920    -0.029    28.722     8.788
    53   6 C        2.919    -0.026    28.645     8.777
    54   6 C        2.924    -0.036    28.893     8.815
    55   6 C        3.005    -0.077    29.907     8.971
    56   8 O        0.864    -0.432    22.327     6.335
    57   1 H        0.926     0.067     2.119     2.276
    58   1 H        0.926     0.058     2.223     2.332
    59   1 H        0.926     0.060     2.204     2.321
    60   1 H        0.926     0.081     1.966     2.192
    61   1 H        0.924     0.070     2.086     2.259
    62   1 H        0.923     0.065     2.142     2.289
    63   1 H        0.926     0.067     2.116     2.275
    64   1 H        0.926     0.058     2.218     2.329
    65   1 H        0.926     0.058     2.220     2.330
    66   1 H        0.926     0.052     2.299     2.371
    67   1 H        0.925     0.080     1.976     2.199
    68   1 H        0.924     0.064     2.158     2.297
    69   1 H        0.925     0.068     2.107     2.270
    70   1 H        0.926     0.044     2.403     2.424
    71   1 H        0.926     0.033     2.546     2.495
    72   1 H        0.926     0.033     2.547     2.496
    73   1 H        0.926     0.035     2.516     2.481
    74   1 H        0.926     0.038     2.475     2.460
    75   1 H        0.927     0.047     2.355     2.399
    76   1 H        0.924     0.082     1.956     2.187
    77   1 H        0.804     0.344     0.603     1.219
    78   1 H        0.925     0.074     2.040     2.233
    79   1 H        0.925     0.078     1.995     2.209
    80   1 H        0.925     0.063     2.167     2.302
    81   1 H        0.926     0.043     2.407     2.426
    82   1 H        0.926     0.035     2.521     2.483
    83   1 H        0.926     0.036     2.508     2.477
    84   1 H        0.926     0.039     2.465     2.455
    85   1 H        0.926     0.045     2.389     2.417
    86   1 H        0.927     0.053     2.287     2.365

Wiberg/Mayer (AO) data.
largest (>0.10) Wiberg bond orders for each atom

     #   Z sym  total        # sym  WBO       # sym  WBO       # sym  WBO
 ---------------------------------------------------------------------------
     1   6 C    3.968 --     6 C    1.408    10 C    1.388     2 C    0.950
                             8 C    0.103
     2   6 C    3.820 --     4 F    0.957     1 C    0.950     5 F    0.941
                             3 F    0.934
     3   9 F    1.062 --     2 C    0.934
     4   9 F    1.080 --     2 C    0.957
     5   9 F    1.073 --     2 C    0.941
     6   6 C    3.987 --     7 C    1.447     1 C    1.408    57 H    0.965
                             9 C    0.109
     7   6 C    3.988 --     6 C    1.447     8 C    1.429    58 H    0.969
                            10 C    0.108
     8   6 C    3.989 --     9 C    1.449     7 C    1.429    59 H    0.968
                             1 C    0.103
     9   6 C    3.985 --     8 C    1.449    10 C    1.406    60 H    0.956
                             6 C    0.109
    10   6 C    3.987 --     9 C    1.406     1 C    1.388    11 C    0.994
                             7 C    0.108
    11   6 C    3.969 --    10 C    0.994    42 N    0.966    61 H    0.952
                            12 C    0.945
    12   6 C    3.970 --    13 C    0.995    23 N    0.966    62 H    0.948
                            11 C    0.945
    13   6 C    3.986 --    22 C    1.406    14 C    1.388    12 C    0.995
                            20 C    0.108
    14   6 C    3.969 --    19 C    1.408    13 C    1.388    15 C    0.952
                            21 C    0.105
    15   6 C    3.820 --    14 C    0.952    18 F    0.948    16 F    0.942
                            17 F    0.939
    16   9 F    1.073 --    15 C    0.942
    17   9 F    1.066 --    15 C    0.939
    18   9 F    1.070 --    15 C    0.948
    19   6 C    3.987 --    20 C    1.447    14 C    1.408    63 H    0.966
                            22 C    0.109
    20   6 C    3.989 --    19 C    1.447    21 C    1.430    64 H    0.969
                            13 C    0.108
    21   6 C    3.989 --    22 C    1.451    20 C    1.430    65 H    0.968
                            14 C    0.105
    22   6 C    3.988 --    21 C    1.451    13 C    1.406    66 H    0.966
                            19 C    0.109
    23   7 N    3.422 --    24 C    1.167    38 C    0.984    12 C    0.966
                            37 O    0.171
    24   6 C    3.943 --    37 O    1.678    23 N    1.167    25 C    1.012
    25   6 C    3.972 --    26 C    1.489    36 C    1.259    24 C    1.012
    26   6 C    3.910 --    25 C    1.489    28 O    1.145    27 C    1.034
                            29 C    0.112
    27   6 C    3.990 --    26 C    1.034    67 H    0.975    69 H    0.973
                            68 H    0.961
    28   8 O    2.434 --    26 C    1.145    29 C    1.081
    29   6 C    3.906 --    36 C    1.536    30 C    1.089    28 O    1.081
                            26 C    0.112
    30   6 C    3.988 --    31 C    1.371    35 C    1.367    29 C    1.089
    31   6 C    3.990 --    32 C    1.458    30 C    1.371    70 H    0.969
                            34 C    0.105
    32   6 C    3.992 --    31 C    1.458    33 C    1.432    71 H    0.971
                            35 C    0.106
    33   6 C    3.979 --    32 C    1.432    34 C    1.428    72 H    0.972
    34   6 C    3.992 --    35 C    1.462    33 C    1.428    73 H    0.971
                            31 C    0.105
    35   6 C    3.989 --    34 C    1.462    30 C    1.367    74 H    0.968
                            32 C    0.106
    36   6 C    3.982 --    29 C    1.536    25 C    1.259    75 H    0.969
    37   8 O    2.008 --    24 C    1.678    23 N    0.171
    38   6 C    3.960 --    23 N    0.984    42 N    0.976    76 H    0.943
                            39 C    0.906
    39   6 C    3.921 --    41 O    1.722    40 O    1.158    38 C    0.906
    40   8 O    2.217 --    39 C    1.158    77 H    0.856    41 O    0.165
    41   8 O    2.022 --    39 C    1.722    40 O    0.165
    42   7 N    3.462 --    43 C    1.216    38 C    0.976    11 C    0.966
                            56 O    0.175
    43   6 C    3.943 --    56 O    1.615    42 N    1.216    44 C    1.019
    44   6 C    3.972 --    45 C    1.486    55 C    1.256    43 C    1.019
    45   6 C    3.910 --    44 C    1.486    47 O    1.144    46 C    1.036
                            48 C    0.112
    46   6 C    3.989 --    45 C    1.036    79 H    0.978    78 H    0.964
                            80 H    0.963
    47   8 O    2.433 --    45 C    1.144    48 C    1.081
    48   6 C    3.905 --    55 C    1.537    49 C    1.088    47 O    1.081
                            45 C    0.112
    49   6 C    3.987 --    50 C    1.371    54 C    1.368    48 C    1.088
    50   6 C    3.990 --    51 C    1.458    49 C    1.371    81 H    0.969
                            53 C    0.105
    51   6 C    3.992 --    50 C    1.458    52 C    1.432    82 H    0.971
                            54 C    0.106
    52   6 C    3.980 --    51 C    1.432    53 C    1.428    83 H    0.971
    53   6 C    3.992 --    54 C    1.462    52 C    1.428    84 H    0.970
                            50 C    0.105
    54   6 C    3.989 --    53 C    1.462    49 C    1.368    85 H    0.968
                            51 C    0.106
    55   6 C    3.981 --    48 C    1.537    44 C    1.256    86 H    0.971
    56   8 O    2.051 --    43 C    1.615    42 N    0.175
    57   1 H    0.995 --     6 C    0.965
    58   1 H    0.996 --     7 C    0.969
    59   1 H    0.996 --     8 C    0.968
    60   1 H    0.993 --     9 C    0.956
    61   1 H    0.995 --    11 C    0.952
    62   1 H    0.995 --    12 C    0.948
    63   1 H    0.995 --    19 C    0.966
    64   1 H    0.996 --    20 C    0.969
    65   1 H    0.996 --    21 C    0.968
    66   1 H    0.997 --    22 C    0.966
    67   1 H    0.993 --    27 C    0.975
    68   1 H    0.994 --    27 C    0.961
    69   1 H    0.994 --    27 C    0.973
    70   1 H    0.998 --    31 C    0.969
    71   1 H    0.998 --    32 C    0.971
    72   1 H    0.999 --    33 C    0.972
    73   1 H    0.998 --    34 C    0.971
    74   1 H    0.999 --    35 C    0.968
    75   1 H    0.998 --    36 C    0.969
    76   1 H    0.992 --    38 C    0.943
    77   1 H    0.881 --    40 O    0.856
    78   1 H    0.993 --    46 C    0.964
    79   1 H    0.993 --    46 C    0.978
    80   1 H    0.995 --    46 C    0.963
    81   1 H    0.998 --    50 C    0.969
    82   1 H    0.998 --    51 C    0.971
    83   1 H    0.998 --    52 C    0.971
    84   1 H    0.998 --    53 C    0.970
    85   1 H    0.998 --    54 C    0.968
    86   1 H    0.997 --    55 C    0.971
 ---------------------------------------------------------------------------

molecular dipole:
                 x           y           z       tot (Debye)
 q only:        1.385      -0.626       1.182
   full:        1.431      -0.440       1.190       4.862

           -------------------------------------------------
          | TOTAL ENERGY             -163.981929923457 Eh   |
          | GRADIENT NORM               0.000363321874 Eh/Î± |
          | HOMO-LUMO GAP               2.551602728196 eV   |
           -------------------------------------------------

 * finished run on 2022/03/16 at 21:26:12.760
