   * xtb version 6.3.3 (4ae9cef) compiled by 'conda@95abc7406d43' on 2020-10-14
          program call               : xtb acid_424.xyz --opt --chrg 0 --uhf 0 --gfn 2
          number of atoms            :                    82
          number of electrons        :                   218
          charge                     :                     0
          spin                       :                   0.0

   ID    Z sym.   atoms
    1    6 C      1-22, 24-29, 31, 32, 36-41
    2    7 N      23, 35
    3    8 O      30, 33, 34, 42
    4    1 H      43-82

          :  Hamiltonian                  GFN2-xTB          :
 * total energy  :  -119.6641486 Eh     change       -0.4063864E-08 Eh
 * total energy  :  -119.6791434 Eh     change       -0.1499473E-01 Eh
 * total energy  :  -119.6833813 Eh     change       -0.4237930E-02 Eh
 * total energy  :  -119.6846485 Eh     change       -0.1267225E-02 Eh
 * total energy  :  -119.6853444 Eh     change       -0.6958887E-03 Eh
 * total energy  :  -119.6855813 Eh     change       -0.2369214E-03 Eh
 * total energy  :  -119.6857745 Eh     change       -0.1931254E-03 Eh
 * total energy  :  -119.6859550 Eh     change       -0.1805458E-03 Eh
 * total energy  :  -119.6861578 Eh     change       -0.2028373E-03 Eh
 * total energy  :  -119.6864013 Eh     change       -0.2434573E-03 Eh
 * total energy  :  -119.6910466 Eh     change       -0.1236786E-04 Eh
 * total energy  :  -119.6910606 Eh     change       -0.1394636E-04 Eh
 * total energy  :  -119.6910793 Eh     change       -0.1874169E-04 Eh
 * total energy  :  -119.6911031 Eh     change       -0.2380294E-04 Eh
 * total energy  :  -119.6911255 Eh     change       -0.2243255E-04 Eh
 * total energy  :  -119.6911454 Eh     change       -0.1990344E-04 Eh
 * total energy  :  -119.6911601 Eh     change       -0.1466728E-04 Eh
 * total energy  :  -119.6911724 Eh     change       -0.1233589E-04 Eh
 * total energy  :  -119.6911767 Eh     change       -0.4300311E-05 Eh
   *** GEOMETRY OPTIMIZATION CONVERGED AFTER 68 ITERATIONS ***

 final structure:
================
82
 xtb: 6.3.3 (4ae9cef)
C         2.58410995384307   -4.72292719760823    1.97006612815368
C         2.01348448208203   -5.63438361799250    1.12944073363252
C         1.24466189285429   -5.19227243030828    0.04394337697981
C         1.05690574686750   -3.85744620474260   -0.17974754742337
C         1.62289864292463   -2.88332965695440    0.67253707196013
C         2.40503537585833   -3.33754950306211    1.77111999076910
C         2.97793499110972   -2.40267706647960    2.65733978601220
C         2.77029983809826   -1.06424842482928    2.48567655830700
C         1.98476343102931   -0.60901521336584    1.42007536025161
C         1.43335312244261   -1.48411657810846    0.51702235062528
C         0.56430795849589   -0.92282846419662   -0.58110193031216
C        -0.84858546159870   -0.57640147829778   -0.05651595289404
C        -1.85364210220285   -1.59958133510469   -0.52570327569510
C        -2.46856376869258   -1.42619999131001   -1.74064020758062
C        -3.36895139124631   -2.37306258994205   -2.24454425203386
C        -3.63197719885931   -3.50881712752530   -1.53396813384241
C        -3.00663013081548   -3.73961197377135   -0.29141161721603
C        -2.10753176341688   -2.77168610643010    0.23725216879958
C        -1.50310840647180   -3.04312688093278    1.48521794284921
C        -1.75375545774061   -4.20766067528433    2.15506503519089
C        -2.63182421751104   -5.16299356893555    1.62477860889044
C        -3.25002507069319   -4.92711623585600    0.43067290930750
N        -1.09560700151401    0.75916893327983   -0.56314587645721
C        -2.06923712133296    1.61745745595722   -0.16665372715777
C        -3.24573680113952    1.01719814564983    0.56335979953293
C        -4.15221444960409    2.09823277817752    1.14946618228465
C        -3.50625429811383    2.78358358166193    2.35159596439414
C        -4.41308468464575    3.82594165142996    3.00522541411340
C        -4.69033373787633    5.02486290291613    2.10591794635838
O        -1.96827849305071    2.79735332323545   -0.45626737698144
C         0.06628867990645    1.34786195229319   -1.20133160527811
C         0.42155735797049    2.65061613813312   -0.44867826030671
O         0.55847288075342    3.68281605606319   -1.27248712196985
O         0.64060006801735    2.68817795324132    0.73112886464137
N         1.08178146676269    0.33635848811529   -1.10409645261338
C         2.31876976341656    0.34491193415564   -1.68173458968100
C         2.77426281232035    1.68264006081964   -2.22056236061025
C         4.11815090880204    1.56138326750530   -2.93379600809035
C         4.57002336728766    2.87210946422810   -3.57604659974044
C         4.76161463816529    4.03465589395411   -2.59976514605876
C         5.80170172703416    3.75040143003961   -1.52246646052429
O         2.99043449349918   -0.66299956900180   -1.71348534821289
H         3.18273412838533   -5.04788752061363    2.80940667338623
H         2.15126891739035   -6.69348372981321    1.29042548291164
H         0.79724452792430   -5.91733816589156   -0.62006283205714
H         0.45681258659642   -3.55664551895044   -1.02397745404757
H         3.57722306959913   -2.76778778955815    3.47918203074090
H         3.20091493954822   -0.34681315470166    3.16814513412169
H         1.81172261072088    0.45235412095722    1.31117391349334
H         0.50160956545868   -1.63037070435025   -1.41575292571830
H        -0.82651954642453   -0.53050360855257    1.03912580401621
H        -2.25873021494384   -0.53888259990662   -2.32041514507604
H        -3.84246243674382   -2.19723018361437   -3.19877912421844
H        -4.31659892490148   -4.25211965856621   -1.91571048452935
H        -0.81905520829295   -2.33357088602423    1.92227522456937
H        -1.26957374795194   -4.39706861352648    3.10132929744011
H        -2.81619647843399   -6.07794029691794    2.16764906555875
H        -3.93498642479819   -5.65087091877421    0.01260152366250
H        -3.79995878633266    0.40226518400477   -0.15064849346320
H        -2.88451284097911    0.35537930776970    1.35335100988746
H        -5.09920531431736    1.64566475900089    1.45184981633604
H        -4.35209950348288    2.83593757168794    0.37272437847980
H        -2.57955640186523    3.26177375492556    2.03066832769130
H        -3.25125427040841    2.02453206105865    3.09686742830568
H        -3.93102664728828    4.17618675832136    3.92104791929371
H        -5.35859814639320    3.35665946303696    3.28904963551601
H        -5.28773663023986    4.73841021670487    1.24465502350780
H        -3.75623574385297    5.45137317998168    1.74833024165075
H        -5.23331194052064    5.79168105358796    2.65432052497288
H        -0.16224929314651    1.61787562652958   -2.24742917750287
H         0.69843154759265    4.50280740629175   -0.77273482002918
H         2.02028546108407    2.08566153540201   -2.90080702570448
H         2.85974789173263    2.36487991519980   -1.37289489010121
H         4.86572816579304    1.20691469028771   -2.22465709174772
H         4.03123476477827    0.79881614118749   -3.71028099998721
H         5.51491462376672    2.69136957850916   -4.09359422557704
H         3.83452745621047    3.17004037880601   -4.32811716394855
H         3.80794310203765    4.28474891561265   -2.13095530682546
H         5.07722889892506    4.90951293723912   -3.17391772773617
H         5.46992848441805    2.95959091127119   -0.85486766242607
H         5.98142448375295    4.64268997367885   -0.92649531304165
H         6.74287023261136    3.44570738790476   -1.97483193417852

          :  Hamiltonian                  GFN2-xTB          :
         :: total energy            -119.691176737343 Eh    ::
         :: gradient norm              0.000244208078 Eh/a0 ::
         :: HOMO-LUMO gap              2.777011576704 eV    ::
         :: SCC energy              -121.507883987685 Eh    ::
         :: -> dispersion             -0.105608696790 Eh    ::
         :: repulsion energy           1.813524679985 Eh    ::

    * Orbital Energies and Occupations

         #    Occupation            Energy/Eh            Energy/eV
      -------------------------------------------------------------
         1        2.0000           -0.7562216             -20.5778
       ...           ...                  ...                  ...
        97        2.0000           -0.4225095             -11.4971
        98        2.0000           -0.4205360             -11.4434
        99        2.0000           -0.4195656             -11.4170
       100        2.0000           -0.4183099             -11.3828
       101        2.0000           -0.4167168             -11.3394
       102        2.0000           -0.4134248             -11.2499
       103        2.0000           -0.4072576             -11.0820
       104        2.0000           -0.4034781             -10.9792
       105        2.0000           -0.3996378             -10.8747
       106        2.0000           -0.3959310             -10.7738
       107        2.0000           -0.3925236             -10.6811
       108        2.0000           -0.3879037             -10.5554
       109        2.0000           -0.3757083             -10.2235 (HOMO)
       110                         -0.2736550              -7.4465 (LUMO)
       111                         -0.2603319              -7.0840
       112                         -0.2485138              -6.7624
       113                         -0.2414894              -6.5713
       114                         -0.2276381              -6.1943
       115                         -0.2202853              -5.9943
       116                         -0.2105328              -5.7289
       117                         -0.2039756              -5.5505
       118                         -0.1903079              -5.1785
       119                         -0.1576414              -4.2896
       120                         -0.1444592              -3.9309
       ...                                ...                  ...
       208                          0.6959669              18.9382
      -------------------------------------------------------------
                  HL-Gap            0.1020533 Eh            2.7770 eV

     #   Z          covCN         q      C6AA      Î±(0)
     1   6 C        2.921    -0.034    28.849     8.808
     2   6 C        2.915    -0.030    28.739     8.791
     3   6 C        2.917    -0.029    28.721     8.788
     4   6 C        2.917    -0.031    28.782     8.798
     5   6 C        2.983     0.014    27.702     8.634
     6   6 C        2.989     0.016    27.646     8.625
     7   6 C        2.920    -0.036    28.890     8.814
     8   6 C        2.914    -0.028    28.707     8.786
     9   6 C        2.922    -0.034    28.838     8.806
    10   6 C        2.968     0.005    27.904     8.665
    11   6 C        3.828     0.053    19.671     6.311
    12   6 C        3.814     0.040    19.889     6.347
    13   6 C        2.968    -0.009    28.231     8.715
    14   6 C        2.922    -0.038    28.936     8.821
    15   6 C        2.914    -0.031    28.772     8.796
    16   6 C        2.920    -0.036    28.889     8.814
    17   6 C        2.988     0.015    27.660     8.627
    18   6 C        2.984     0.008    27.844     8.656
    19   6 C        2.917    -0.035    28.870     8.811
    20   6 C        2.917    -0.027    28.664     8.779
    21   6 C        2.915    -0.027    28.683     8.782
    22   6 C        2.921    -0.034    28.836     8.806
    23   7 N        2.763    -0.118    23.566     7.210
    24   6 C        2.768     0.274    22.371     7.746
    25   6 C        3.806    -0.081    22.032     6.682
    26   6 C        3.804    -0.054    21.543     6.608
    27   6 C        3.803    -0.058    21.623     6.620
    28   6 C        3.800    -0.052    21.514     6.604
    29   6 C        3.752    -0.103    22.535     6.770
    30   8 O        0.861    -0.432    22.323     6.335
    31   6 C        3.763     0.099    18.988     6.211
    32   6 C        2.689     0.369    20.749     7.455
    33   8 O        1.659    -0.359    20.077     6.049
    34   8 O        0.856    -0.402    21.719     6.248
    35   7 N        2.758    -0.127    23.757     7.239
    36   6 C        2.760     0.270    22.448     7.759
    37   6 C        3.806    -0.085    22.113     6.694
    38   6 C        3.803    -0.054    21.543     6.608
    39   6 C        3.801    -0.060    21.654     6.625
    40   6 C        3.799    -0.053    21.524     6.606
    41   6 C        3.751    -0.103    22.526     6.768
    42   8 O        0.859    -0.422    22.117     6.305
    43   1 H        0.926     0.034     2.527     2.486
    44   1 H        0.926     0.032     2.558     2.501
    45   1 H        0.926     0.030     2.587     2.515
    46   1 H        0.926     0.025     2.653     2.547
    47   1 H        0.926     0.035     2.511     2.478
    48   1 H        0.926     0.037     2.486     2.466
    49   1 H        0.926     0.047     2.362     2.403
    50   1 H        0.924     0.056     2.249     2.345
    51   1 H        0.924     0.053     2.288     2.366
    52   1 H        0.926     0.034     2.532     2.488
    53   1 H        0.926     0.038     2.482     2.464
    54   1 H        0.926     0.039     2.467     2.456
    55   1 H        0.926     0.029     2.594     2.519
    56   1 H        0.926     0.035     2.514     2.479
    57   1 H        0.926     0.037     2.495     2.470
    58   1 H        0.926     0.037     2.484     2.465
    59   1 H        0.924     0.057     2.236     2.338
    60   1 H        0.924     0.050     2.317     2.381
    61   1 H        0.924     0.033     2.549     2.497
    62   1 H        0.925     0.058     2.217     2.328
    63   1 H        0.924     0.047     2.352     2.398
    64   1 H        0.924     0.024     2.677     2.558
    65   1 H        0.924     0.030     2.585     2.514
    66   1 H        0.924     0.027     2.629     2.536
    67   1 H        0.925     0.035     2.519     2.482
    68   1 H        0.925     0.040     2.449     2.447
    69   1 H        0.925     0.031     2.577     2.510
    70   1 H        0.923     0.059     2.214     2.327
    71   1 H        0.804     0.344     0.602     1.218
    72   1 H        0.924     0.050     2.326     2.385
    73   1 H        0.924     0.054     2.270     2.356
    74   1 H        0.925     0.053     2.281     2.362
    75   1 H        0.924     0.044     2.392     2.419
    76   1 H        0.924     0.035     2.512     2.479
    77   1 H        0.924     0.029     2.604     2.524
    78   1 H        0.924     0.027     2.623     2.533
    79   1 H        0.924     0.029     2.604     2.524
    80   1 H        0.925     0.037     2.488     2.466
    81   1 H        0.925     0.031     2.571     2.508
    82   1 H        0.925     0.035     2.511     2.478

Wiberg/Mayer (AO) data.
largest (>0.10) Wiberg bond orders for each atom

     #   Z sym  total        # sym  WBO       # sym  WBO       # sym  WBO
 ---------------------------------------------------------------------------
     1   6 C    3.991 --     2 C    1.558     6 C    1.279    43 H    0.968
                             4 C    0.118
     2   6 C    3.992 --     1 C    1.558     3 C    1.321    44 H    0.971
     3   6 C    3.992 --     4 C    1.556     2 C    1.321    45 H    0.971
     4   6 C    3.992 --     3 C    1.556     5 C    1.281    46 H    0.961
                             1 C    0.118
     5   6 C    3.989 --     4 C    1.281    10 C    1.254     6 C    1.252
     6   6 C    3.990 --     7 C    1.281     1 C    1.279     5 C    1.252
     7   6 C    3.990 --     8 C    1.551     6 C    1.281    47 H    0.968
                            10 C    0.115
     8   6 C    3.992 --     7 C    1.551     9 C    1.328    48 H    0.970
     9   6 C    3.990 --    10 C    1.522     8 C    1.328    49 H    0.965
    10   6 C    3.984 --     9 C    1.522     5 C    1.254    11 C    0.989
                             7 C    0.115
    11   6 C    3.963 --    10 C    0.989    35 N    0.957    50 H    0.948
                            12 C    0.947
    12   6 C    3.964 --    13 C    0.990    23 N    0.966    11 C    0.947
                            51 H    0.944
    13   6 C    3.984 --    14 C    1.521    18 C    1.254    12 C    0.990
                            16 C    0.114
    14   6 C    3.990 --    13 C    1.521    15 C    1.327    52 H    0.967
    15   6 C    3.992 --    16 C    1.552    14 C    1.327    53 H    0.970
    16   6 C    3.990 --    15 C    1.552    17 C    1.280    54 H    0.968
                            13 C    0.114
    17   6 C    3.990 --    16 C    1.280    22 C    1.279    18 C    1.252
    18   6 C    3.988 --    19 C    1.282    13 C    1.254    17 C    1.252
    19   6 C    3.992 --    20 C    1.555    18 C    1.282    55 H    0.961
                            22 C    0.119
    20   6 C    3.992 --    19 C    1.555    21 C    1.322    56 H    0.971
    21   6 C    3.992 --    22 C    1.558    20 C    1.322    57 H    0.970
    22   6 C    3.991 --    21 C    1.558    17 C    1.279    58 H    0.968
                            19 C    0.119
    23   7 N    3.455 --    24 C    1.221    31 C    0.976    12 C    0.966
                            30 O    0.177
    24   6 C    3.940 --    30 O    1.657    23 N    1.221    25 C    0.981
    25   6 C    3.995 --    26 C    1.005    24 C    0.981    60 H    0.957
                            59 H    0.950
    26   6 C    3.993 --    27 C    1.009    25 C    1.005    61 H    0.977
                            62 H    0.972
    27   6 C    3.996 --    26 C    1.009    28 C    1.007    64 H    0.977
                            63 H    0.975
    28   6 C    3.998 --    29 C    1.020    27 C    1.007    65 H    0.979
                            66 H    0.978
    29   6 C    3.997 --    28 C    1.020    69 H    0.988    68 H    0.987
                            67 H    0.986
    30   8 O    2.036 --    24 C    1.657    23 N    0.177
    31   6 C    3.967 --    35 N    0.992    23 N    0.976    70 H    0.943
                            32 C    0.906
    32   6 C    3.922 --    34 O    1.757    33 O    1.153    31 C    0.906
    33   8 O    2.216 --    32 C    1.153    71 H    0.856    34 O    0.173
    34   8 O    2.047 --    32 C    1.757    33 O    0.173
    35   7 N    3.441 --    36 C    1.191    31 C    0.992    11 C    0.957
                            42 O    0.182
    36   6 C    3.944 --    42 O    1.704    35 N    1.191    37 C    0.974
    37   6 C    3.995 --    38 C    1.006    36 C    0.974    72 H    0.958
                            73 H    0.950
    38   6 C    3.993 --    39 C    1.008    37 C    1.006    75 H    0.976
                            74 H    0.974
    39   6 C    3.997 --    38 C    1.008    40 C    1.007    77 H    0.977
                            76 H    0.977
    40   6 C    3.998 --    41 C    1.020    39 C    1.007    79 H    0.978
                            78 H    0.977
    41   6 C    3.997 --    40 C    1.020    82 H    0.988    81 H    0.988
                            80 H    0.986
    42   8 O    2.021 --    36 C    1.704    35 N    0.182
    43   1 H    0.998 --     1 C    0.968
    44   1 H    0.998 --     2 C    0.971
    45   1 H    0.999 --     3 C    0.971
    46   1 H    0.999 --     4 C    0.961
    47   1 H    0.998 --     7 C    0.968
    48   1 H    0.998 --     8 C    0.970
    49   1 H    0.997 --     9 C    0.965
    50   1 H    0.996 --    11 C    0.948
    51   1 H    0.997 --    12 C    0.944
    52   1 H    0.998 --    14 C    0.967
    53   1 H    0.998 --    15 C    0.970
    54   1 H    0.997 --    16 C    0.968
    55   1 H    0.999 --    19 C    0.961
    56   1 H    0.998 --    20 C    0.971
    57   1 H    0.998 --    21 C    0.970
    58   1 H    0.998 --    22 C    0.968
    59   1 H    0.996 --    25 C    0.950
    60   1 H    0.997 --    25 C    0.957
    61   1 H    0.998 --    26 C    0.977
    62   1 H    0.997 --    26 C    0.972
    63   1 H    0.998 --    27 C    0.975
    64   1 H    0.999 --    27 C    0.977
    65   1 H    0.999 --    28 C    0.979
    66   1 H    0.999 --    28 C    0.978
    67   1 H    0.999 --    29 C    0.986
    68   1 H    0.998 --    29 C    0.987
    69   1 H    0.999 --    29 C    0.988
    70   1 H    0.996 --    31 C    0.943
    71   1 H    0.881 --    33 O    0.856
    72   1 H    0.997 --    37 C    0.958
    73   1 H    0.997 --    37 C    0.950
    74   1 H    0.997 --    38 C    0.974
    75   1 H    0.998 --    38 C    0.976
    76   1 H    0.998 --    39 C    0.977
    77   1 H    0.999 --    39 C    0.977
    78   1 H    0.999 --    40 C    0.977
    79   1 H    0.999 --    40 C    0.978
    80   1 H    0.999 --    41 C    0.986
    81   1 H    0.999 --    41 C    0.988
    82   1 H    0.999 --    41 C    0.988
 ---------------------------------------------------------------------------

molecular dipole:
                 x           y           z       tot (Debye)
 q only:       -0.920      -0.690       0.113
   full:       -1.066      -0.516       0.022       3.011

           -------------------------------------------------
          | TOTAL ENERGY             -119.691176737343 Eh   |
          | GRADIENT NORM               0.000244208078 Eh/Î± |
          | HOMO-LUMO GAP               2.777011576704 eV   |
           -------------------------------------------------

 * finished run on 2022/03/17 at 01:03:16.850
