   * xtb version 6.3.3 (4ae9cef) compiled by 'conda@95abc7406d43' on 2020-10-14
          program call               : xtb acid_456.xyz --opt --chrg 0 --uhf 0 --gfn 2
          number of atoms            :                    66
          number of electrons        :                   206
          charge                     :                     0
          spin                       :                   0.0

   ID    Z sym.   atoms
    1    6 C      1-22, 24-26, 28, 29, 31, 32, 36-38, 40, 41
    2    7 N      23, 35
    3    8 O      27, 30, 33, 34, 39, 42
    4    1 H      43-66

          :  Hamiltonian                  GFN2-xTB          :
 * total energy  :  -115.3118802 Eh     change       -0.2916053E-08 Eh
 * total energy  :  -115.3270018 Eh     change       -0.1512166E-01 Eh
 * total energy  :  -115.3313130 Eh     change       -0.4311139E-02 Eh
 * total energy  :  -115.3323551 Eh     change       -0.1042109E-02 Eh
 * total energy  :  -115.3330255 Eh     change       -0.6704556E-03 Eh
 * total energy  :  -115.3333598 Eh     change       -0.3342839E-03 Eh
 * total energy  :  -115.3337283 Eh     change       -0.3685409E-03 Eh
 * total energy  :  -115.3341567 Eh     change       -0.4283649E-03 Eh
 * total energy  :  -115.3346533 Eh     change       -0.4966164E-03 Eh
 * total energy  :  -115.3351583 Eh     change       -0.5050044E-03 Eh
 * total energy  :  -115.3371593 Eh     change       -0.2954192E-04 Eh
 * total energy  :  -115.3371818 Eh     change       -0.2246883E-04 Eh
 * total energy  :  -115.3372007 Eh     change       -0.1891145E-04 Eh
 * total energy  :  -115.3372153 Eh     change       -0.1461573E-04 Eh
 * total energy  :  -115.3372193 Eh     change       -0.4002524E-05 Eh
 * total energy  :  -115.3372255 Eh     change       -0.6191605E-05 Eh
 * total energy  :  -115.3372257 Eh     change       -0.1877858E-06 Eh
 * total energy  :  -115.3372312 Eh     change       -0.5476770E-05 Eh
 * total energy  :  -115.3372330 Eh     change       -0.1781938E-05 Eh
   *** GEOMETRY OPTIMIZATION CONVERGED AFTER 40 ITERATIONS ***

 final structure:
================
66
 xtb: 6.3.3 (4ae9cef)
C         2.14033584939047   -1.11937765283599   -0.84601469221799
C         3.38509207492250   -1.29305661807083   -1.37728603348100
C         4.31273979356514   -0.23142887356295   -1.41473347774758
C         5.61081773573772   -0.38351745550256   -1.94355157164528
C         6.48529147516164    0.66694576382812   -1.95784457313824
C         6.10199815825192    1.91608197387873   -1.44415447849837
C         4.85011844551971    2.09557168097456   -0.92645237822115
C         3.92432474966241    1.03180942244254   -0.89826726330005
C         2.63004610583734    1.18094013860223   -0.36257952310277
C         1.75132279413334    0.13063552639397   -0.32473799707165
C         0.37529957842373    0.30789782271855    0.26904124902250
C        -0.71712508974017    0.28600472931615   -0.82180340252596
C        -1.93038675692175    1.15028484677557   -0.57077479885739
C        -2.25058855096767    1.68931065681438    0.64657557779165
C        -3.44863639740882    2.41181448141178    0.83084392730838
C        -3.79658114594234    2.96598627232132    2.08030997288491
C        -4.96628799474889    3.65624242577748    2.23591479288096
C        -5.84061468781360    3.82325493030517    1.15041167492515
C        -5.53205595028402    3.29493518496907   -0.07216606100109
C        -4.33433651501210    2.57657433387759   -0.26451578079415
C        -3.98370067562658    2.00839006814455   -1.50758228710903
C        -2.81829820529388    1.31558890344512   -1.65549489478724
N        -1.14462682744487   -1.10921446472405   -0.82329501528403
C        -1.12288950848759   -1.85255267990633   -1.96857755813150
C        -1.43004332851562   -3.28484192084864   -1.81265943332090
C        -2.41852460181848   -3.88558070834255   -1.07933751436292
O        -2.40021503261198   -5.20861706917572   -1.26506315008944
C        -1.39682823250287   -5.48308664356002   -2.11640792920030
C        -0.76772952796310   -4.34275893775631   -2.50024325045246
O        -0.87512437733342   -1.34347694410103   -3.04259242417407
C        -1.10079056601612   -1.55501410782995    0.53832404872844
C        -2.42916157477311   -1.27867395577708    1.26285875038604
O        -2.25184456347426   -0.77241515480148    2.47524937925863
O        -3.50397747061043   -1.53685407696701    0.79522392262567
N         0.00313754469092   -0.81620244724639    1.12088026156079
C         0.82193597381752   -1.44539159478917    2.00938227315300
C         2.00491860218136   -0.67129664919832    2.43789897908187
C         3.28589280043886   -1.14587285782241    2.48972157970015
O         4.12461646076220   -0.20266735247454    2.92849982040893
C         3.39097097899317    0.89003995426276    3.19160491113279
C         2.08040324830404    0.66964687662425    2.90974711659297
O         0.57622967905207   -2.56376825466768    2.41659558139067
H         1.44910237144624   -1.94846997991031   -0.81678802632759
H         3.67780964102249   -2.25371062467109   -1.77523633358151
H         5.90087237023502   -1.34704835940042   -2.33742607195101
H         7.47836203425757    0.54440961625578   -2.36447895441174
H         6.80668697726351    2.73453663124928   -1.46296785500196
H         4.54953861295219    3.05515229386280   -0.53044204911300
H         2.34169105331188    2.14547995459789    0.03243196261052
H         0.34724101520918    1.24873771536150    0.82452567056600
H        -0.30160054520101    0.50987371113564   -1.81016738188587
H        -1.60542756405064    1.57035393387426    1.50500205170642
H        -3.11960983978341    2.83620328242926    2.91396688810146
H        -5.22631954426191    4.07880272526786    3.19550417006705
H        -6.75987012932877    4.37269328164867    1.29127903285373
H        -6.20284438479363    3.41854186616842   -0.91044683359534
H        -4.65849932893557    2.12810359464567   -2.34250670169078
H        -2.55821088057051    0.87161105780590   -2.60464965045782
H        -3.18421158834680   -3.47153212137178   -0.45314084698549
H        -1.23367674634556   -6.51135791426217   -2.37010104185827
H         0.05779300505462   -4.23852534627986   -3.17276337100621
H        -0.91653886541311   -2.63715279333687    0.62784742434594
H        -3.10446592457997   -0.65085530955969    2.92500752427967
H         3.69307434212227   -2.09962442076123    2.22107216838947
H         3.90607214179327    1.74946035459885    3.57229378999115
H         1.26791130940048    1.35203027773716    3.04923710464148

          :  Hamiltonian                  GFN2-xTB          :
         :: total energy            -115.337232971379 Eh    ::
         :: gradient norm              0.000731010779 Eh/a0 ::
         :: HOMO-LUMO gap              3.179700688495 eV    ::
         :: SCC energy              -117.067303174952 Eh    ::
         :: -> dispersion             -0.097013746779 Eh    ::
         :: repulsion energy           1.727681248634 Eh    ::

    * Orbital Energies and Occupations

         #    Occupation            Energy/Eh            Energy/eV
      -------------------------------------------------------------
         1        2.0000           -0.7691641             -20.9300
       ...           ...                  ...                  ...
        91        2.0000           -0.4299925             -11.7007
        92        2.0000           -0.4244963             -11.5511
        93        2.0000           -0.4222831             -11.4909
        94        2.0000           -0.4162734             -11.3274
        95        2.0000           -0.4108171             -11.1789
        96        2.0000           -0.4079691             -11.1014
        97        2.0000           -0.4072813             -11.0827
        98        2.0000           -0.4054179             -11.0320
        99        2.0000           -0.4031534             -10.9704
       100        2.0000           -0.4023182             -10.9476
       101        2.0000           -0.3973147             -10.8115
       102        2.0000           -0.3877554             -10.5514
       103        2.0000           -0.3871326             -10.5344 (HOMO)
       104                         -0.2702808              -7.3547 (LUMO)
       105                         -0.2679573              -7.2915
       106                         -0.2583847              -7.0310
       107                         -0.2458570              -6.6901
       108                         -0.2437981              -6.6341
       109                         -0.2396139              -6.5202
       110                         -0.2367098              -6.4412
       111                         -0.2185484              -5.9470
       112                         -0.2111657              -5.7461
       113                         -0.1986880              -5.4066
       114                         -0.1974314              -5.3724
       ...                                ...                  ...
       192                          0.6900630              18.7776
      -------------------------------------------------------------
                  HL-Gap            0.1168519 Eh            3.1797 eV

     #   Z          covCN         q      C6AA      Î±(0)
     1   6 C        2.919    -0.032    28.789     8.799
     2   6 C        2.917    -0.033    28.813     8.802
     3   6 C        2.988     0.014    27.690     8.632
     4   6 C        2.918    -0.033    28.814     8.802
     5   6 C        2.916    -0.028    28.700     8.785
     6   6 C        2.916    -0.028    28.692     8.784
     7   6 C        2.918    -0.034    28.850     8.808
     8   6 C        2.987     0.015    27.672     8.629
     9   6 C        2.923    -0.044    29.093     8.845
    10   6 C        2.969    -0.005    28.134     8.700
    11   6 C        3.823     0.032    20.013     6.366
    12   6 C        3.854     0.038    19.906     6.346
    13   6 C        2.969    -0.001    28.059     8.689
    14   6 C        2.921    -0.047    29.178     8.858
    15   6 C        2.987     0.013    27.723     8.637
    16   6 C        2.919    -0.038    28.933     8.821
    17   6 C        2.916    -0.030    28.738     8.791
    18   6 C        2.916    -0.029    28.724     8.789
    19   6 C        2.918    -0.032    28.810     8.802
    20   6 C        2.987     0.015    27.671     8.629
    21   6 C        2.916    -0.031    28.768     8.795
    22   6 C        2.922    -0.033    28.818     8.803
    23   7 N        2.770    -0.119    23.578     7.212
    24   6 C        2.756     0.276    22.328     7.738
    25   6 C        3.077    -0.049    29.121     8.847
    26   6 C        3.068     0.066    26.453     8.433
    27   8 O        1.731    -0.156    16.654     5.510
    28   6 C        3.073     0.068    26.408     8.426
    29   6 C        3.013    -0.054    29.309     8.881
    30   8 O        0.859    -0.422    22.119     6.306
    31   6 C        3.790     0.091    19.086     6.222
    32   6 C        2.688     0.355    20.965     7.493
    33   8 O        1.659    -0.349    19.877     6.019
    34   8 O        0.856    -0.397    21.631     6.236
    35   7 N        2.766    -0.115    23.512     7.202
    36   6 C        2.762     0.275    22.342     7.741
    37   6 C        3.076    -0.043    28.989     8.827
    38   6 C        3.083     0.080    26.136     8.381
    39   8 O        1.731    -0.159    16.692     5.516
    40   6 C        3.080     0.069    26.379     8.420
    41   6 C        3.019    -0.062    29.512     8.911
    42   8 O        0.859    -0.433    22.358     6.340
    43   1 H        0.926     0.029     2.604     2.524
    44   1 H        0.926     0.040     2.446     2.446
    45   1 H        0.926     0.036     2.501     2.473
    46   1 H        0.926     0.035     2.518     2.481
    47   1 H        0.926     0.034     2.525     2.485
    48   1 H        0.926     0.033     2.544     2.494
    49   1 H        0.925     0.031     2.577     2.510
    50   1 H        0.924     0.057     2.229     2.335
    51   1 H        0.924     0.084     1.939     2.177
    52   1 H        0.926     0.034     2.533     2.489
    53   1 H        0.925     0.029     2.599     2.521
    54   1 H        0.926     0.032     2.555     2.500
    55   1 H        0.926     0.034     2.536     2.490
    56   1 H        0.926     0.036     2.502     2.473
    57   1 H        0.926     0.042     2.426     2.436
    58   1 H        0.926     0.051     2.303     2.373
    59   1 H        0.926     0.074     2.042     2.234
    60   1 H        0.926     0.058     2.221     2.331
    61   1 H        0.927     0.056     2.245     2.343
    62   1 H        0.923     0.092     1.856     2.130
    63   1 H        0.804     0.344     0.603     1.220
    64   1 H        0.926     0.063     2.162     2.300
    65   1 H        0.926     0.058     2.221     2.331
    66   1 H        0.927     0.044     2.402     2.423

Wiberg/Mayer (AO) data.
largest (>0.10) Wiberg bond orders for each atom

     #   Z sym  total        # sym  WBO       # sym  WBO       # sym  WBO
 ---------------------------------------------------------------------------
     1   6 C    3.992 --     2 C    1.564    10 C    1.294    43 H    0.968
     2   6 C    3.991 --     1 C    1.564     3 C    1.276    44 H    0.968
                             9 C    0.113
     3   6 C    3.990 --     4 C    1.282     2 C    1.276     8 C    1.251
     4   6 C    3.992 --     5 C    1.556     3 C    1.282    45 H    0.968
                             7 C    0.118
     5   6 C    3.989 --     4 C    1.556     6 C    1.321    46 H    0.971
     6   6 C    3.992 --     7 C    1.558     5 C    1.321    47 H    0.971
     7   6 C    3.989 --     6 C    1.558     8 C    1.278    48 H    0.968
                             4 C    0.118
     8   6 C    3.990 --     9 C    1.283     7 C    1.278     3 C    1.251
     9   6 C    3.990 --    10 C    1.524     8 C    1.283    49 H    0.966
                             2 C    0.113
    10   6 C    3.986 --     9 C    1.524     1 C    1.294    11 C    0.989
    11   6 C    3.966 --    10 C    0.989    35 N    0.961    12 C    0.959
                            50 H    0.950
    12   6 C    3.958 --    13 C    0.984    11 C    0.959    23 N    0.954
                            51 H    0.948
    13   6 C    3.984 --    14 C    1.532    22 C    1.286    12 C    0.984
    14   6 C    3.990 --    13 C    1.532    15 C    1.275    52 H    0.961
                            21 C    0.112
    15   6 C    3.990 --    16 C    1.281    14 C    1.275    20 C    1.253
    16   6 C    3.990 --    17 C    1.555    15 C    1.281    53 H    0.968
                            19 C    0.118
    17   6 C    3.992 --    16 C    1.555    18 C    1.323    54 H    0.971
    18   6 C    3.990 --    19 C    1.555    17 C    1.323    55 H    0.971
    19   6 C    3.991 --    18 C    1.555    20 C    1.283    56 H    0.968
                            16 C    0.118
    20   6 C    3.990 --    19 C    1.283    21 C    1.272    15 C    1.253
    21   6 C    3.991 --    22 C    1.571    20 C    1.272    57 H    0.967
                            14 C    0.112
    22   6 C    3.989 --    21 C    1.571    13 C    1.286    58 H    0.967
    23   7 N    3.455 --    24 C    1.182    31 C    0.996    12 C    0.954
                            30 O    0.183
    24   6 C    3.947 --    30 O    1.682    23 N    1.182    25 C    1.004
    25   6 C    3.977 --    26 C    1.540    29 C    1.253    24 C    1.004
    26   6 C    3.913 --    25 C    1.540    27 O    1.164    59 H    0.959
                            28 C    0.142
    27   8 O    2.475 --    26 C    1.164    28 C    1.133
    28   6 C    3.906 --    29 C    1.623    27 O    1.133    60 H    0.966
                            26 C    0.142
    29   6 C    3.983 --    28 C    1.623    25 C    1.253    61 H    0.973
    30   8 O    2.017 --    24 C    1.682    23 N    0.183
    31   6 C    3.970 --    23 N    0.996    35 N    0.978    62 H    0.920
                            32 C    0.919
    32   6 C    3.920 --    34 O    1.764    33 O    1.166    31 C    0.919
    33   8 O    2.233 --    32 C    1.166    63 H    0.856    34 O    0.181
    34   8 O    2.052 --    32 C    1.764    33 O    0.181
    35   7 N    3.452 --    36 C    1.200    31 C    0.978    11 C    0.961
                            42 O    0.184
    36   6 C    3.949 --    42 O    1.678    35 N    1.200    37 C    0.993
    37   6 C    3.979 --    38 C    1.556    41 C    1.252    36 C    0.993
    38   6 C    3.912 --    37 C    1.556    39 O    1.159    64 H    0.965
                            40 C    0.142
    39   8 O    2.472 --    38 C    1.159    40 C    1.137
    40   6 C    3.907 --    41 C    1.619    39 O    1.137    65 H    0.966
                            38 C    0.142
    41   6 C    3.982 --    40 C    1.619    37 C    1.252    66 H    0.973
    42   8 O    2.008 --    36 C    1.678    35 N    0.184
    43   1 H    0.999 --     1 C    0.968
    44   1 H    0.998 --     2 C    0.968
    45   1 H    0.998 --     4 C    0.968
    46   1 H    0.998 --     5 C    0.971
    47   1 H    0.998 --     6 C    0.971
    48   1 H    0.998 --     7 C    0.968
    49   1 H    0.999 --     9 C    0.966
    50   1 H    0.996 --    11 C    0.950
    51   1 H    0.991 --    12 C    0.948
    52   1 H    0.998 --    14 C    0.961
    53   1 H    0.999 --    16 C    0.968
    54   1 H    0.998 --    17 C    0.971
    55   1 H    0.998 --    18 C    0.971
    56   1 H    0.998 --    19 C    0.968
    57   1 H    0.997 --    21 C    0.967
    58   1 H    0.997 --    22 C    0.967
    59   1 H    0.995 --    26 C    0.959
    60   1 H    0.996 --    28 C    0.966
    61   1 H    0.997 --    29 C    0.973
    62   1 H    0.991 --    31 C    0.920
    63   1 H    0.881 --    33 O    0.856
    64   1 H    0.996 --    38 C    0.965
    65   1 H    0.996 --    40 C    0.966
    66   1 H    0.998 --    41 C    0.973
 ---------------------------------------------------------------------------

molecular dipole:
                 x           y           z       tot (Debye)
 q only:        0.532       1.462       0.587
   full:        0.506       1.373       0.815       4.257

           -------------------------------------------------
          | TOTAL ENERGY             -115.337232971379 Eh   |
          | GRADIENT NORM               0.000731010779 Eh/Î± |
          | HOMO-LUMO GAP               3.179700688495 eV   |
           -------------------------------------------------

 * finished run on 2022/03/17 at 01:25:55.665
