   * xtb version 6.3.3 (4ae9cef) compiled by 'conda@95abc7406d43' on 2020-10-14
          program call               : xtb acid_223.xyz --opt --chrg 0 --uhf 0 --gfn 2
          number of atoms            :                    60
          number of electrons        :                   178
          charge                     :                     0
          spin                       :                   0.0

   ID    Z sym.   atoms
    1    6 C      1-14, 16-22, 24, 25, 29-35
    2    7 N      15, 28
    3    8 O      23, 26, 27, 36
    4    1 H      37-60

          :  Hamiltonian                  GFN2-xTB          :
 * total energy  :   -98.5964914 Eh     change       -0.7860592E-09 Eh
 * total energy  :   -98.6087286 Eh     change       -0.1223718E-01 Eh
 * total energy  :   -98.6119363 Eh     change       -0.3207729E-02 Eh
 * total energy  :   -98.6128084 Eh     change       -0.8720878E-03 Eh
 * total energy  :   -98.6133063 Eh     change       -0.4978233E-03 Eh
 * total energy  :   -98.6135819 Eh     change       -0.2756870E-03 Eh
 * total energy  :   -98.6138318 Eh     change       -0.2498274E-03 Eh
 * total energy  :   -98.6140952 Eh     change       -0.2633960E-03 Eh
 * total energy  :   -98.6143708 Eh     change       -0.2756080E-03 Eh
 * total energy  :   -98.6146276 Eh     change       -0.2568280E-03 Eh
 * total energy  :   -98.6172974 Eh     change       -0.2249298E-04 Eh
 * total energy  :   -98.6173208 Eh     change       -0.2339602E-04 Eh
 * total energy  :   -98.6173364 Eh     change       -0.1559479E-04 Eh
 * total energy  :   -98.6173547 Eh     change       -0.1827441E-04 Eh
 * total energy  :   -98.6173659 Eh     change       -0.1124902E-04 Eh
 * total energy  :   -98.6173616 Eh     change        0.4381916E-05 Eh
 * total energy  :   -98.6173730 Eh     change       -0.1143081E-04 Eh
 * total energy  :   -98.6173779 Eh     change       -0.4925371E-05 Eh
 * total energy  :   -98.6173811 Eh     change       -0.3144445E-05 Eh
   *** GEOMETRY OPTIMIZATION CONVERGED AFTER 44 ITERATIONS ***

 final structure:
================
60
 xtb: 6.3.3 (4ae9cef)
C        -0.37811044554036   -3.34256648166824    1.26445598305912
C        -0.33530807847900   -4.30473804857105    2.25666659970424
C         0.74690054946962   -4.36772468400031    3.11853045273010
C         1.79502245431990   -3.47778505328992    2.96549335306151
C         1.75460736750495   -2.51579940991669    1.97050146239349
C         0.65747250321055   -2.42510910451667    1.12513146690862
C         0.58663260494101   -1.37920016172940    0.03713612732861
C        -0.76056900568957   -0.59708015392880    0.02671687225616
C        -1.36878553777993   -0.54998692478134   -1.35130883587559
C        -0.72361347884767    0.13609397408848   -2.37340806511879
C        -1.27895408968359    0.18742633008017   -3.63792818464214
C        -2.48181356620601   -0.44864604444453   -3.89488316819503
C        -3.12261720216955   -1.14361223967696   -2.88444420778282
C        -2.56680771520587   -1.19648107254504   -1.61897404131586
N        -0.37900351251416    0.72659937259396    0.49459836748958
C        -1.08217203813627    1.88280423731184    0.38610714279653
C        -2.49902612130117    1.72092915310528   -0.05285886699490
C        -2.93023011728714    2.32119396100825   -1.22864373449233
C        -4.24279004357624    2.17464368665229   -1.63782394701750
C        -5.13543895202826    1.45445175955162   -0.86221063566767
C        -4.71717488036837    0.88884889359843    0.33061379333797
C        -3.40095790592713    1.01733116892784    0.73569305658335
O        -0.57864701546776    2.95718192068541    0.64893888571705
C         0.99888251172570    0.73612089923008    0.92643196506781
C         1.10491097989426    0.47211440644356    2.44152772756278
O        -0.06816834037689    0.16475934632289    2.98414026591553
O         2.12848025681126    0.53092573108332    3.06317479744906
N         1.59593267776548   -0.34294195523619    0.18600730976325
C         2.60349423708310   -0.24109521236853   -0.73972576503940
C         3.46635250422697    0.96585523070238   -0.65530798174271
C         3.99746393169166    1.42767068019381    0.54529999447243
C         4.83342351652434    2.53069772858179    0.54686015524567
C         5.13935364629829    3.17960568915007   -0.63779622331934
C         4.62137127807649    2.71474006322990   -1.83573617007100
C         3.79744223643605    1.60534847600978   -1.84715876122588
O         2.77465580184272   -1.11053448062697   -1.56960503410016
H        -1.21537480556466   -3.31342075107270    0.58215780101983
H        -1.14732154008912   -5.01004616300666    2.35464970149386
H         0.77798054250593   -5.11572880513233    3.89653426058018
H         2.65230732610197   -3.53058068171532    3.61970680323173
H         2.58631643274029   -1.83908264055519    1.84893316592432
H         0.76035890850639   -1.86842680572513   -0.93051691124949
H        -1.46399595467165   -1.05215843096634    0.73263600037363
H         0.21257727170115    0.63849229503515   -2.17649870709028
H        -0.77209137240567    0.72569152179834   -4.42471969153174
H        -2.91741771479555   -0.40387445129391   -4.88170557120946
H        -4.05934879908848   -1.64367038557104   -3.07990637318981
H        -3.07413499691302   -1.73262860706836   -0.82981044796570
H        -2.22911572754960    2.88865679169634   -1.82154562300105
H        -4.57097448557148    2.62727211049020   -2.56143447523214
H        -6.16080158666664    1.34223977757237   -1.18200849449868
H        -5.41853414638154    0.34492413515983    0.94632999222822
H        -3.07162296537699    0.58533159506758    1.66983891779333
H         1.46406678833866    1.70806891107959    0.71724443083537
H         0.02647594816492    0.01036499682695    3.93848285027688
H         3.77303437826337    0.92222361670795    1.47171430527870
H         5.24698997439437    2.88288754458966    1.47980858758332
H         5.78664977705274    4.04405838377180   -0.62888932756400
H         4.86319421138304    3.21488290603490   -2.76158452386391
H         3.39857252469012    1.22248445503213   -2.77486482646861

          :  Hamiltonian                  GFN2-xTB          :
         :: total energy             -98.617381066362 Eh    ::
         :: gradient norm              0.000365921850 Eh/a0 ::
         :: HOMO-LUMO gap              3.573039021159 eV    ::
         :: SCC energy              -100.176217824455 Eh    ::
         :: -> dispersion             -0.087017872754 Eh    ::
         :: repulsion energy           1.556259244196 Eh    ::

    * Orbital Energies and Occupations

         #    Occupation            Energy/Eh            Energy/eV
      -------------------------------------------------------------
         1        2.0000           -0.7718522             -21.0032
       ...           ...                  ...                  ...
        77        2.0000           -0.4281750             -11.6512
        78        2.0000           -0.4256504             -11.5825
        79        2.0000           -0.4192937             -11.4096
        80        2.0000           -0.4155722             -11.3083
        81        2.0000           -0.4154274             -11.3044
        82        2.0000           -0.4141255             -11.2689
        83        2.0000           -0.4124637             -11.2237
        84        2.0000           -0.4115498             -11.1988
        85        2.0000           -0.4093321             -11.1385
        86        2.0000           -0.4061631             -11.0523
        87        2.0000           -0.4034152             -10.9775
        88        2.0000           -0.3973163             -10.8115
        89        2.0000           -0.3943019             -10.7295 (HOMO)
        90                         -0.2629951              -7.1565 (LUMO)
        91                         -0.2552879              -6.9467
        92                         -0.2499453              -6.8014
        93                         -0.2401081              -6.5337
        94                         -0.2363895              -6.4325
        95                         -0.2341067              -6.3704
        96                         -0.2338857              -6.3644
        97                         -0.2329400              -6.3386
        98                         -0.2297002              -6.2505
        99                         -0.2061550              -5.6098
       100                         -0.1971729              -5.3653
       ...                                ...                  ...
       168                          0.6644373              18.0803
      -------------------------------------------------------------
                  HL-Gap            0.1313068 Eh            3.5730 eV

     #   Z          covCN         q      C6AA      Î±(0)
     1   6 C        2.925    -0.038    28.945     8.823
     2   6 C        2.920    -0.028    28.706     8.786
     3   6 C        2.920    -0.031    28.772     8.796
     4   6 C        2.920    -0.027    28.678     8.782
     5   6 C        2.923    -0.033    28.813     8.803
     6   6 C        2.970     0.002    27.979     8.676
     7   6 C        3.845     0.037    19.919     6.349
     8   6 C        3.819     0.033    19.999     6.364
     9   6 C        2.973    -0.001    28.049     8.687
    10   6 C        2.924    -0.028    28.704     8.786
    11   6 C        2.920    -0.025    28.639     8.776
    12   6 C        2.921    -0.028    28.712     8.787
    13   6 C        2.920    -0.027    28.681     8.782
    14   6 C        2.924    -0.035    28.865     8.811
    15   7 N        2.767    -0.115    23.502     7.200
    16   6 C        2.764     0.271    22.413     7.753
    17   6 C        2.978    -0.012    28.301     8.726
    18   6 C        2.924    -0.020    28.512     8.757
    19   6 C        2.920    -0.026    28.653     8.778
    20   6 C        2.920    -0.027    28.675     8.781
    21   6 C        2.920    -0.027    28.683     8.783
    22   6 C        2.923    -0.029    28.714     8.787
    23   8 O        0.859    -0.435    22.398     6.345
    24   6 C        3.786     0.092    19.068     6.220
    25   6 C        2.689     0.358    20.930     7.487
    26   8 O        1.659    -0.356    20.017     6.040
    27   8 O        0.856    -0.387    21.427     6.206
    28   7 N        2.763    -0.121    23.637     7.221
    29   6 C        2.765     0.271    22.414     7.753
    30   6 C        2.975    -0.019    28.482     8.754
    31   6 C        2.920    -0.034    28.846     8.807
    32   6 C        2.920    -0.024    28.613     8.772
    33   6 C        2.920    -0.024    28.595     8.769
    34   6 C        2.919    -0.026    28.651     8.778
    35   6 C        2.926    -0.019    28.491     8.753
    36   8 O        0.859    -0.420    22.088     6.301
    37   1 H        0.926     0.031     2.576     2.510
    38   1 H        0.926     0.036     2.502     2.473
    39   1 H        0.926     0.036     2.497     2.471
    40   1 H        0.926     0.040     2.450     2.448
    41   1 H        0.926     0.041     2.439     2.442
    42   1 H        0.923     0.087     1.910     2.161
    43   1 H        0.924     0.055     2.256     2.349
    44   1 H        0.926     0.033     2.551     2.498
    45   1 H        0.926     0.041     2.438     2.442
    46   1 H        0.926     0.039     2.460     2.453
    47   1 H        0.926     0.038     2.477     2.461
    48   1 H        0.926     0.029     2.598     2.521
    49   1 H        0.926     0.042     2.418     2.432
    50   1 H        0.926     0.039     2.456     2.451
    51   1 H        0.926     0.038     2.471     2.458
    52   1 H        0.926     0.038     2.478     2.462
    53   1 H        0.926     0.035     2.516     2.480
    54   1 H        0.924     0.095     1.831     2.116
    55   1 H        0.804     0.342     0.608     1.225
    56   1 H        0.926     0.056     2.252     2.346
    57   1 H        0.926     0.042     2.416     2.430
    58   1 H        0.926     0.039     2.461     2.453
    59   1 H        0.926     0.040     2.455     2.450
    60   1 H        0.926     0.047     2.357     2.401

Wiberg/Mayer (AO) data.
largest (>0.10) Wiberg bond orders for each atom

     #   Z sym  total        # sym  WBO       # sym  WBO       # sym  WBO
 ---------------------------------------------------------------------------
     1   6 C    3.991 --     2 C    1.450     6 C    1.405    37 H    0.967
                             4 C    0.112
     2   6 C    3.991 --     1 C    1.450     3 C    1.433    38 H    0.971
                             5 C    0.110
     3   6 C    3.992 --     4 C    1.444     2 C    1.433    39 H    0.971
                             6 C    0.109
     4   6 C    3.992 --     3 C    1.444     5 C    1.438    40 H    0.970
                             1 C    0.112
     5   6 C    3.990 --     4 C    1.438     6 C    1.418    41 H    0.966
                             2 C    0.110
     6   6 C    3.985 --     5 C    1.418     1 C    1.405     7 C    0.989
                             3 C    0.109
     7   6 C    3.963 --     6 C    0.989    28 N    0.971     8 C    0.947
                            42 H    0.938
     8   6 C    3.966 --     9 C    0.992    15 N    0.964    43 H    0.952
                             7 C    0.947
     9   6 C    3.986 --    14 C    1.414    10 C    1.407     8 C    0.992
                            12 C    0.109
    10   6 C    3.992 --    11 C    1.449     9 C    1.407    44 H    0.969
                            13 C    0.111
    11   6 C    3.992 --    10 C    1.449    12 C    1.435    45 H    0.970
                            14 C    0.110
    12   6 C    3.990 --    13 C    1.441    11 C    1.435    46 H    0.971
                             9 C    0.109
    13   6 C    3.992 --    14 C    1.442    12 C    1.441    47 H    0.971
                            10 C    0.111
    14   6 C    3.990 --    13 C    1.442     9 C    1.414    48 H    0.968
                            11 C    0.110
    15   7 N    3.469 --    16 C    1.211    24 C    0.980     8 C    0.964
                            23 O    0.189
    16   6 C    3.945 --    23 O    1.681    15 N    1.211    17 C    0.968
    17   6 C    3.987 --    18 C    1.405    22 C    1.401    16 C    0.968
                            20 C    0.110
    18   6 C    3.990 --    19 C    1.445    17 C    1.405    49 H    0.969
                            21 C    0.111
    19   6 C    3.992 --    18 C    1.445    20 C    1.438    50 H    0.970
                            22 C    0.111
    20   6 C    3.992 --    19 C    1.438    21 C    1.437    51 H    0.971
                            17 C    0.110
    21   6 C    3.992 --    22 C    1.446    20 C    1.437    52 H    0.970
                            18 C    0.111
    22   6 C    3.991 --    21 C    1.446    17 C    1.401    53 H    0.969
                            19 C    0.111
    23   8 O    2.007 --    16 C    1.681    15 N    0.189
    24   6 C    3.968 --    28 N    0.987    15 N    0.980    54 H    0.932
                            25 C    0.914
    25   6 C    3.917 --    27 O    1.775    26 O    1.161    24 C    0.914
    26   8 O    2.226 --    25 C    1.161    55 H    0.857    27 O    0.182
    27   8 O    2.062 --    25 C    1.775    26 O    0.182
    28   7 N    3.444 --    29 C    1.170    24 C    0.987     7 C    0.971
                            36 O    0.178
    29   6 C    3.941 --    36 O    1.694    28 N    1.170    30 C    0.990
    30   6 C    3.987 --    31 C    1.394    35 C    1.393    29 C    0.990
                            33 C    0.106
    31   6 C    3.989 --    32 C    1.445    30 C    1.394    56 H    0.963
                            34 C    0.110
    32   6 C    3.992 --    31 C    1.445    33 C    1.439    57 H    0.970
                            35 C    0.110
    33   6 C    3.991 --    32 C    1.439    34 C    1.435    58 H    0.971
                            30 C    0.106
    34   6 C    3.992 --    35 C    1.450    33 C    1.435    59 H    0.970
                            31 C    0.110
    35   6 C    3.990 --    34 C    1.450    30 C    1.393    60 H    0.969
                            32 C    0.110
    36   8 O    2.024 --    29 C    1.694    28 N    0.178
    37   1 H    0.999 --     1 C    0.967
    38   1 H    0.998 --     2 C    0.971
    39   1 H    0.998 --     3 C    0.971
    40   1 H    0.998 --     4 C    0.970
    41   1 H    0.998 --     5 C    0.966
    42   1 H    0.992 --     7 C    0.938
    43   1 H    0.996 --     8 C    0.952
    44   1 H    0.999 --    10 C    0.969
    45   1 H    0.998 --    11 C    0.970
    46   1 H    0.998 --    12 C    0.971
    47   1 H    0.998 --    13 C    0.971
    48   1 H    0.999 --    14 C    0.968
    49   1 H    0.998 --    18 C    0.969
    50   1 H    0.998 --    19 C    0.970
    51   1 H    0.998 --    20 C    0.971
    52   1 H    0.998 --    21 C    0.970
    53   1 H    0.999 --    22 C    0.969
    54   1 H    0.991 --    24 C    0.932
    55   1 H    0.882 --    26 O    0.857
    56   1 H    0.997 --    31 C    0.963
    57   1 H    0.998 --    32 C    0.970
    58   1 H    0.998 --    33 C    0.971
    59   1 H    0.998 --    34 C    0.970
    60   1 H    0.998 --    35 C    0.969
 ---------------------------------------------------------------------------

molecular dipole:
                 x           y           z       tot (Debye)
 q only:       -1.408      -0.745       0.219
   full:       -1.528      -0.677       0.362       4.346

           -------------------------------------------------
          | TOTAL ENERGY              -98.617381066362 Eh   |
          | GRADIENT NORM               0.000365921850 Eh/Î± |
          | HOMO-LUMO GAP               3.573039021159 eV   |
           -------------------------------------------------

 * finished run on 2022/03/16 at 22:41:52.021
