   * xtb version 6.3.3 (4ae9cef) compiled by 'conda@95abc7406d43' on 2020-10-14
          program call               : xtb acid_202.xyz --opt --chrg 0 --uhf 0 --gfn 2
          number of atoms            :                    72
          number of electrons        :                   218
          charge                     :                     0
          spin                       :                   0.0

   ID    Z sym.   atoms
    1    6 C      1-22, 24-29, 32, 33, 37-42
    2    7 N      23, 36
    3   16 S      30, 43
    4    8 O      31, 34, 35, 44
    5    1 H      45-72

          :  Hamiltonian                  GFN2-xTB          :
 * total energy  :  -119.9861749 Eh     change       -0.2165933E-08 Eh
 * total energy  :  -120.0029836 Eh     change       -0.1680873E-01 Eh
 * total energy  :  -120.0069660 Eh     change       -0.3982434E-02 Eh
 * total energy  :  -120.0080064 Eh     change       -0.1040413E-02 Eh
 * total energy  :  -120.0088008 Eh     change       -0.7943208E-03 Eh
 * total energy  :  -120.0093498 Eh     change       -0.5490821E-03 Eh
 * total energy  :  -120.0100597 Eh     change       -0.7099001E-03 Eh
 * total energy  :  -120.0107681 Eh     change       -0.7083616E-03 Eh
 * total energy  :  -120.0114425 Eh     change       -0.6744111E-03 Eh
 * total energy  :  -120.0121002 Eh     change       -0.6576753E-03 Eh
 * total energy  :  -120.0211247 Eh     change        0.1045366E-05 Eh
 * total energy  :  -120.0211353 Eh     change       -0.1059153E-04 Eh
 * total energy  :  -120.0211477 Eh     change       -0.1231991E-04 Eh
 * total energy  :  -120.0211558 Eh     change       -0.8161393E-05 Eh
 * total energy  :  -120.0211650 Eh     change       -0.9142650E-05 Eh
 * total energy  :  -120.0211528 Eh     change        0.1218395E-04 Eh
 * total energy  :  -120.0211660 Eh     change       -0.1325335E-04 Eh
 * total energy  :  -120.0211636 Eh     change        0.2436367E-05 Eh
 * total energy  :  -120.0211683 Eh     change       -0.4708272E-05 Eh
   *** GEOMETRY OPTIMIZATION CONVERGED AFTER 80 ITERATIONS ***

 final structure:
================
72
 xtb: 6.3.3 (4ae9cef)
C         3.16357812554778   -2.20305943163052    0.68621453491221
C         4.13107841139947   -2.58948579298162    1.56677547407373
C         3.99674406391213   -2.32752688016714    2.94651924600547
C         4.97867132224299   -2.70437747088884    3.88505267676483
C         4.81769067644415   -2.42070314416889    5.21248001065401
C         3.67056748884823   -1.74673762349876    5.66033204326246
C         2.69815402708423   -1.37334280565936    4.77554063718446
C         2.83340869600356   -1.65533245181720    3.40084083638294
C         1.84677174705740   -1.27362134637682    2.46799127710755
C         2.00087504370945   -1.53878413159157    1.13279562750458
C         1.02659386221112   -1.08735927517092    0.07232863332336
C        -0.37544304169915   -0.67852838418469    0.57532340470941
C        -1.41218676350634   -0.97805562732707   -0.48232866680257
C        -1.62475562120996   -0.13232409336196   -1.53917642230922
C        -2.57628271318376   -0.43223960885243   -2.53284522691872
C        -2.80671425522388    0.42940204385366   -3.62489194101931
C        -3.73714415397397    0.11461824297049   -4.57491293530672
C        -4.47908663725358   -1.07308746201651   -4.47502952168438
C        -4.27849637507643   -1.92756088534742   -3.42719677174518
C        -3.32430888263539   -1.63318080353963   -2.43187081131380
C        -3.08366067618194   -2.48967337052375   -1.33740211423732
C        -2.15188922911990   -2.17295759328082   -0.39180854607645
N        -0.23041200591096    0.75147942433719    0.81537265413227
C        -1.25779456846669    1.65493661436685    0.85479297735205
C        -2.57831666919051    1.16656725408423    1.26309017119834
C        -3.75617085327577    1.74596395432675    0.88011769824978
C        -4.89006385703345    1.11684046496373    1.42558559930299
C        -4.58419220957181    0.07374338709154    2.24605092210036
C        -5.50667509097492   -0.80497003256566    3.01042311616410
S        -2.87101726129416   -0.15851415114216    2.34239215819859
O        -1.08141728972139    2.82344232734699    0.55836088242972
C         1.05185146201936    1.21131935357325    0.31324797542227
C         2.03158861890894    1.49340810407924    1.47914038647320
O         3.31663402938625    1.31552058539483    1.16442813386432
O         1.67425720664116    1.88304304092053    2.54775458387012
N         1.52663671158631    0.14926630022549   -0.53853084906073
C         1.65285054727507    0.19769264617502   -1.91027013144283
C         1.92876470234808    1.50049747599994   -2.52466795861734
C         1.58497886279935    1.82302562184236   -3.80956691228076
C         2.01372742564583    3.10650633590855   -4.19176696453303
C         2.70954132264166    3.75851778989760   -3.21767965065762
C         3.31769656541779    5.11220054332897   -3.26039992197843
S         2.82898699426846    2.79463832719137   -1.78519524543771
O         1.59941142351770   -0.81257074032794   -2.58387354657304
H         3.27262848039489   -2.39842537872234   -0.37115978289972
H         5.01672266799431   -3.10003769935257    1.21689627980733
H         5.86203974078556   -3.21885044634222    3.53425085229227
H         5.57455277815638   -2.70989948296342    5.92694372894087
H         3.56491207007310   -1.52456179403461    6.71199395263116
H         1.81665025359160   -0.84762276135964    5.11169072429314
H         0.97985963763017   -0.75255351983653    2.84534629368836
H         0.95646369119427   -1.84444048089959   -0.71571882842603
H        -0.62124601526873   -1.21423781758888    1.49604524308805
H        -1.07684366826566    0.79516202582183   -1.63294898386932
H        -2.23303605179319    1.34290064995367   -3.69401508195336
H        -3.90950889520820    0.77730312128358   -5.41037188366326
H        -5.21005000135837   -1.30523546187002   -5.23568526121182
H        -4.84645482871473   -2.84353707299927   -3.34712911832761
H        -3.65234185356418   -3.40509363411302   -1.25875985094255
H        -1.97293376795179   -2.83335720933882    0.44450997113640
H        -3.78900771503744    2.59151979049840    0.21753635319606
H        -5.89851310187681    1.42938223074048    1.22118092069160
H        -5.32270452279565   -1.85203698209553    2.77606737922730
H        -5.36071977375543   -0.67344408249945    4.08186042895117
H        -6.53774970434311   -0.56372611397662    2.76631952406710
H         0.89957589191995    2.16735627322124   -0.21043067969877
H         3.42065219042082    0.91497485044167    0.28596411864556
H         1.03230981906344    1.15042111457721   -4.44060064330112
H         1.82128261146922    3.53294345756481   -5.15990882653687
H         3.20314355037716    5.54033165210859   -4.25314638911686
H         4.37788056297951    5.06606976979511   -3.01417694939099
H         2.83740677146634    5.77005727053816   -2.53608801399870

          :  Hamiltonian                  GFN2-xTB          :
         :: total energy            -120.021168303717 Eh    ::
         :: gradient norm              0.000838902923 Eh/a0 ::
         :: HOMO-LUMO gap              2.737432870424 eV    ::
         :: SCC energy              -121.852571644718 Eh    ::
         :: -> dispersion             -0.109153098279 Eh    ::
         :: repulsion energy           1.828373037268 Eh    ::

    * Orbital Energies and Occupations

         #    Occupation            Energy/Eh            Energy/eV
      -------------------------------------------------------------
         1        2.0000           -0.7534072             -20.5013
       ...           ...                  ...                  ...
        97        2.0000           -0.4218607             -11.4794
        98        2.0000           -0.4172370             -11.3536
        99        2.0000           -0.4137945             -11.2599
       100        2.0000           -0.4120181             -11.2116
       101        2.0000           -0.4086297             -11.1194
       102        2.0000           -0.4038796             -10.9901
       103        2.0000           -0.4020777             -10.9411
       104        2.0000           -0.4014719             -10.9246
       105        2.0000           -0.4004457             -10.8967
       106        2.0000           -0.3973823             -10.8133
       107        2.0000           -0.3900862             -10.6148
       108        2.0000           -0.3848261             -10.4716
       109        2.0000           -0.3825977             -10.4110 (HOMO)
       110                         -0.2819989              -7.6736 (LUMO)
       111                         -0.2715993              -7.3906
       112                         -0.2665926              -7.2544
       113                         -0.2638673              -7.1802
       114                         -0.2432207              -6.6184
       115                         -0.2373475              -6.4586
       116                         -0.2330722              -6.3422
       117                         -0.2275025              -6.1907
       118                         -0.2130404              -5.7971
       119                         -0.2119980              -5.7688
       120                         -0.2010583              -5.4711
       ...                                ...                  ...
       214                          0.6930912              18.8600
      -------------------------------------------------------------
                  HL-Gap            0.1005988 Eh            2.7374 eV

     #   Z          covCN         q      C6AA      Î±(0)
     1   6 C        2.921    -0.040    29.001     8.831
     2   6 C        2.916    -0.034    28.839     8.806
     3   6 C        2.988     0.015    27.676     8.630
     4   6 C        2.918    -0.034    28.845     8.807
     5   6 C        2.916    -0.027    28.685     8.783
     6   6 C        2.916    -0.027    28.673     8.781
     7   6 C        2.919    -0.030    28.756     8.794
     8   6 C        2.988     0.018    27.593     8.617
     9   6 C        2.921    -0.041    29.020     8.834
    10   6 C        2.969    -0.010    28.260     8.720
    11   6 C        3.861     0.039    19.873     6.340
    12   6 C        3.824     0.036    19.953     6.356
    13   6 C        2.970    -0.003    28.104     8.696
    14   6 C        2.923    -0.034    28.840     8.807
    15   6 C        2.988     0.016    27.650     8.626
    16   6 C        2.919    -0.032    28.789     8.799
    17   6 C        2.916    -0.028    28.696     8.784
    18   6 C        2.916    -0.028    28.710     8.786
    19   6 C        2.918    -0.033    28.833     8.805
    20   6 C        2.988     0.014    27.695     8.633
    21   6 C        2.917    -0.033    28.817     8.803
    22   6 C        2.920    -0.037    28.922     8.819
    23   7 N        2.759    -0.129    23.797     7.245
    24   6 C        2.779     0.276    22.341     7.742
    25   6 C        2.989    -0.013    28.340     8.733
    26   6 C        3.119    -0.031    28.603     8.759
    27   6 C        3.115    -0.056    29.223     8.855
    28   6 C        2.985     0.034    27.235     8.561
    29   6 C        3.778    -0.111    22.638     6.779
    30  16 S        2.351    -0.035   142.482    20.090
    31   8 O        0.860    -0.437    22.429     6.350
    32   6 C        3.798     0.079    19.266     6.250
    33   6 C        2.686     0.351    21.041     7.507
    34   8 O        1.659    -0.357    20.043     6.044
    35   8 O        0.856    -0.342    20.554     6.078
    36   7 N        2.759    -0.151    24.268     7.317
    37   6 C        2.773     0.271    22.425     7.756
    38   6 C        2.989    -0.025    28.611     8.774
    39   6 C        3.109    -0.028    28.557     8.755
    40   6 C        3.114    -0.054    29.184     8.849
    41   6 C        2.984     0.039    27.109     8.541
    42   6 C        3.779    -0.110    22.631     6.777
    43  16 S        2.339    -0.041   142.737    20.108
    44   8 O        0.860    -0.423    22.135     6.308
    45   1 H        0.926     0.038     2.477     2.461
    46   1 H        0.926     0.038     2.478     2.461
    47   1 H        0.926     0.034     2.535     2.490
    48   1 H        0.926     0.033     2.538     2.491
    49   1 H        0.926     0.035     2.512     2.478
    50   1 H        0.926     0.042     2.421     2.433
    51   1 H        0.926     0.044     2.399     2.422
    52   1 H        0.924     0.081     1.971     2.195
    53   1 H        0.924     0.063     2.169     2.303
    54   1 H        0.925     0.024     2.680     2.560
    55   1 H        0.926     0.033     2.548     2.496
    56   1 H        0.926     0.034     2.536     2.490
    57   1 H        0.926     0.033     2.538     2.491
    58   1 H        0.926     0.034     2.531     2.488
    59   1 H        0.926     0.038     2.479     2.462
    60   1 H        0.926     0.033     2.539     2.492
    61   1 H        0.926     0.056     2.242     2.341
    62   1 H        0.926     0.042     2.416     2.431
    63   1 H        0.925     0.059     2.208     2.324
    64   1 H        0.925     0.062     2.172     2.305
    65   1 H        0.925     0.056     2.252     2.347
    66   1 H        0.923     0.093     1.852     2.128
    67   1 H        0.804     0.331     0.635     1.252
    68   1 H        0.926     0.060     2.198     2.318
    69   1 H        0.926     0.047     2.363     2.404
    70   1 H        0.925     0.057     2.231     2.336
    71   1 H        0.925     0.062     2.174     2.306
    72   1 H        0.925     0.065     2.136     2.286

Wiberg/Mayer (AO) data.
largest (>0.10) Wiberg bond orders for each atom

     #   Z sym  total        # sym  WBO       # sym  WBO       # sym  WBO
 ---------------------------------------------------------------------------
     1   6 C    3.990 --     2 C    1.568    10 C    1.288    45 H    0.968
     2   6 C    3.991 --     1 C    1.568     3 C    1.274    46 H    0.968
                             9 C    0.112
     3   6 C    3.990 --     4 C    1.282     2 C    1.274     8 C    1.253
     4   6 C    3.992 --     5 C    1.555     3 C    1.282    47 H    0.968
                             7 C    0.118
     5   6 C    3.990 --     4 C    1.555     6 C    1.322    48 H    0.971
     6   6 C    3.992 --     7 C    1.557     5 C    1.322    49 H    0.971
     7   6 C    3.989 --     6 C    1.557     8 C    1.280    50 H    0.968
                             4 C    0.118
     8   6 C    3.990 --     7 C    1.280     9 C    1.276     3 C    1.253
     9   6 C    3.989 --    10 C    1.530     8 C    1.276    51 H    0.961
                             2 C    0.112
    10   6 C    3.983 --     9 C    1.530     1 C    1.288    11 C    0.987
    11   6 C    3.956 --    10 C    0.987    12 C    0.956    36 N    0.949
                            52 H    0.949
    12   6 C    3.965 --    13 C    0.988    23 N    0.965    11 C    0.956
                            53 H    0.947
    13   6 C    3.986 --    14 C    1.526    22 C    1.292    12 C    0.988
    14   6 C    3.991 --    13 C    1.526    15 C    1.281    54 H    0.964
                            21 C    0.114
    15   6 C    3.990 --    14 C    1.281    16 C    1.279    20 C    1.251
    16   6 C    3.990 --    17 C    1.558    15 C    1.279    55 H    0.968
                            19 C    0.118
    17   6 C    3.992 --    16 C    1.558    18 C    1.321    56 H    0.971
    18   6 C    3.990 --    19 C    1.556    17 C    1.321    57 H    0.971
    19   6 C    3.992 --    18 C    1.556    20 C    1.281    58 H    0.968
                            16 C    0.118
    20   6 C    3.990 --    19 C    1.281    21 C    1.276    15 C    1.251
    21   6 C    3.991 --    22 C    1.564    20 C    1.276    59 H    0.968
                            14 C    0.114
    22   6 C    3.991 --    21 C    1.564    13 C    1.292    60 H    0.968
    23   7 N    3.429 --    24 C    1.177    32 C    0.977    12 C    0.965
                            31 O    0.172
    24   6 C    3.951 --    31 O    1.654    23 N    1.177    25 C    1.033
    25   6 C    3.942 --    26 C    1.551    30 S    1.133    24 C    1.033
                            28 C    0.105
    26   6 C    3.987 --    25 C    1.551    27 C    1.293    61 H    0.962
    27   6 C    3.985 --    28 C    1.579    26 C    1.293    62 H    0.963
    28   6 C    3.953 --    27 C    1.579    30 S    1.171    29 C    1.041
                            25 C    0.105
    29   6 C    3.993 --    28 C    1.041    65 H    0.979    63 H    0.970
                            64 H    0.966
    30  16 S    2.606 --    28 C    1.171    25 C    1.133
    31   8 O    2.008 --    24 C    1.654    23 N    0.172
    32   6 C    3.961 --    36 N    0.986    23 N    0.977    66 H    0.919
                            33 C    0.909
    33   6 C    3.924 --    35 O    1.810    34 O    1.140    32 C    0.909
    34   8 O    2.221 --    33 C    1.140    67 H    0.854    35 O    0.169
    35   8 O    2.097 --    33 C    1.810    34 O    0.169
    36   7 N    3.418 --    37 C    1.153    32 C    0.986    11 C    0.949
                            44 O    0.168
    37   6 C    3.951 --    44 O    1.673    36 N    1.153    38 C    1.036
    38   6 C    3.939 --    39 C    1.544    43 S    1.129    37 C    1.036
                            41 C    0.105
    39   6 C    3.986 --    38 C    1.544    40 C    1.298    68 H    0.962
                            43 S    0.100
    40   6 C    3.985 --    41 C    1.573    39 C    1.298    69 H    0.963
    41   6 C    3.953 --    40 C    1.573    43 S    1.173    42 C    1.042
                            38 C    0.105
    42   6 C    3.992 --    41 C    1.042    70 H    0.979    71 H    0.968
                            72 H    0.965
    43  16 S    2.616 --    41 C    1.173    38 C    1.129    39 C    0.100
    44   8 O    2.023 --    37 C    1.673    36 N    0.168
    45   1 H    0.998 --     1 C    0.968
    46   1 H    0.998 --     2 C    0.968
    47   1 H    0.998 --     4 C    0.968
    48   1 H    0.998 --     5 C    0.971
    49   1 H    0.998 --     6 C    0.971
    50   1 H    0.998 --     7 C    0.968
    51   1 H    0.998 --     9 C    0.961
    52   1 H    0.992 --    11 C    0.949
    53   1 H    0.995 --    12 C    0.947
    54   1 H    0.999 --    14 C    0.964
    55   1 H    0.998 --    16 C    0.968
    56   1 H    0.998 --    17 C    0.971
    57   1 H    0.998 --    18 C    0.971
    58   1 H    0.998 --    19 C    0.968
    59   1 H    0.998 --    21 C    0.968
    60   1 H    0.998 --    22 C    0.968
    61   1 H    0.997 --    26 C    0.962
    62   1 H    0.998 --    27 C    0.963
    63   1 H    0.995 --    29 C    0.970
    64   1 H    0.995 --    29 C    0.966
    65   1 H    0.996 --    29 C    0.979
    66   1 H    0.991 --    32 C    0.919
    67   1 H    0.891 --    34 O    0.854
    68   1 H    0.996 --    39 C    0.962
    69   1 H    0.997 --    40 C    0.963
    70   1 H    0.996 --    42 C    0.979
    71   1 H    0.995 --    42 C    0.968
    72   1 H    0.994 --    42 C    0.965
 ---------------------------------------------------------------------------

molecular dipole:
                 x           y           z       tot (Debye)
 q only:       -0.406      -0.941      -0.315
   full:       -0.732      -0.687      -1.072       3.733

           -------------------------------------------------
          | TOTAL ENERGY             -120.021168303717 Eh   |
          | GRADIENT NORM               0.000838902923 Eh/Î± |
          | HOMO-LUMO GAP               2.737432870424 eV   |
           -------------------------------------------------

 * finished run on 2022/03/16 at 22:27:55.106
