   * xtb version 6.3.3 (4ae9cef) compiled by 'conda@95abc7406d43' on 2020-10-14
          program call               : xtb acid_38.xyz --opt --chrg 0 --uhf 0 --gfn 2
          number of atoms            :                    84
          number of electrons        :                   238
          charge                     :                     0
          spin                       :                   0.0

   ID    Z sym.   atoms
    1    6 C      1-22, 24-32, 34, 35, 39-47
    2    7 N      23, 38
    3    8 O      33, 36, 37, 48
    4    1 H      49-84

          :  Hamiltonian                  GFN2-xTB          :
 * total energy  :  -130.4316535 Eh     change       -0.7337917E-08 Eh
 * total energy  :  -130.4517028 Eh     change       -0.2004927E-01 Eh
 * total energy  :  -130.4582316 Eh     change       -0.6528757E-02 Eh
 * total energy  :  -130.4606777 Eh     change       -0.2446139E-02 Eh
 * total energy  :  -130.4626950 Eh     change       -0.2017249E-02 Eh
 * total energy  :  -130.4639683 Eh     change       -0.1273356E-02 Eh
 * total energy  :  -130.4650898 Eh     change       -0.1121451E-02 Eh
 * total energy  :  -130.4660875 Eh     change       -0.9977603E-03 Eh
 * total energy  :  -130.4670150 Eh     change       -0.9274281E-03 Eh
 * total energy  :  -130.4678428 Eh     change       -0.8278062E-03 Eh
 * total energy  :  -130.4853050 Eh     change       -0.3110307E-04 Eh
 * total energy  :  -130.4853150 Eh     change       -0.9982511E-05 Eh
 * total energy  :  -130.4853226 Eh     change       -0.7653342E-05 Eh
 * total energy  :  -130.4853360 Eh     change       -0.1334610E-04 Eh
 * total energy  :  -130.4853450 Eh     change       -0.9007680E-05 Eh
 * total energy  :  -130.4853536 Eh     change       -0.8548739E-05 Eh
 * total energy  :  -130.4853673 Eh     change       -0.1372559E-04 Eh
 * total energy  :  -130.4853831 Eh     change       -0.1585766E-04 Eh
 * total energy  :  -130.4853877 Eh     change       -0.4536180E-05 Eh
   *** GEOMETRY OPTIMIZATION CONVERGED AFTER 122 ITERATIONS ***

 final structure:
================
84
 xtb: 6.3.3 (4ae9cef)
C         2.36485935774264   -2.89557151200725    1.87454847255992
C         2.07188307126087   -2.21035019037730    3.01895364546584
C         1.50357889014445   -0.93204858884225    2.93529929464134
C         1.25390195514197   -0.35361879171827    1.72096074405405
C         1.55636733053480   -1.02653083500330    0.51522430043684
C         2.11021361550979   -2.33454351569748    0.60568489413075
C         2.39915603059917   -3.05849834048890   -0.56845525937993
C         2.14695353800793   -2.51908188663021   -1.79559987279783
C         1.62956290187059   -1.22252620008762   -1.89278510200635
C         1.35484353941022   -0.46980116382791   -0.77827782216707
C         0.79105502174778    0.90955155408285   -0.99530795019959
C        -0.69698464343070    0.98644286406863   -0.57389566564002
C        -1.63102931608216    0.65603210010741   -1.70921862518616
C        -1.76762926169902    1.56670803544292   -2.72815687863140
C        -2.67373565781352    1.36150160245477   -3.77410050631577
C        -3.46191579337967    0.24663792054311   -3.78070867259877
C        -3.33686445154674   -0.72706345635710   -2.76958844781019
C        -2.38122104260324   -0.54916521688473   -1.73120485677484
C        -2.24109984371745   -1.58211157460844   -0.77847863444537
C        -3.03285368128200   -2.69516541710166   -0.81974415308072
C        -4.00826601534932   -2.84261192704819   -1.81567653662333
C        -4.14674448406439   -1.88219477375293   -2.77550695945774
N        -0.84518366006203    2.36122838521388   -0.12558366922364
C        -1.98696107782826    2.93727534135592    0.33250599150587
C        -3.20192793510224    2.07419244667670    0.20833682623413
C        -4.15785831014459    2.35043544808028   -0.75962767341487
C        -5.25694506101550    1.52167221645519   -0.89019968797261
C        -5.41321669966466    0.43502579479693   -0.04872232826605
C        -4.48544247721043    0.17214884855343    0.95070388690325
C        -4.69450882792676   -0.96383334420054    1.90951681034536
C        -5.52649853398808   -0.50164260409455    3.10733921808632
C        -3.38123168776482    1.00365894252961    1.07323412712036
O        -1.99240546223632    4.06755734085925    0.77456127703650
C         0.43073068158306    3.01767259251699    0.05991467440486
C         0.57395371565617    3.50178163473114    1.51832408951029
O         0.82473627029604    4.79359620030046    1.58861362928582
O         0.37977591752317    2.77693016296842    2.45760972023375
N         1.40801805322126    1.99721717046232   -0.25469802320080
C         2.64821779422229    2.09389543972284    0.28477344519979
C         3.64871406413744    1.08912481791119   -0.16447667632563
C         4.32195064894007    0.33089220858602    0.78301838747032
C         5.24754230234788   -0.62665657488408    0.39581217173076
C         5.96405496956356   -1.44949032400546    1.42651638554169
C         7.23093484116644   -0.73199789018086    1.89634157273967
C         5.52729376832792   -0.77710323141469   -0.95648998457663
C         4.89606387311866    0.01138398676443   -1.90199172448307
C         3.94897164663661    0.94021374482092   -1.51271763125948
O         2.90797876960871    2.98957321961231    1.06854073363886
H         2.79851749580630   -3.88454474028156    1.91991960616411
H         2.27239495986371   -2.64544483378122    3.98712609334830
H         1.26438825107557   -0.39091603902390    3.83829160777841
H         0.83287825649844    0.63780494137070    1.71421524296239
H         2.81890200279209   -4.04957139332899   -0.47542670807939
H         2.35404473604150   -3.07492057839268   -2.69737828279707
H         1.45415058382303   -0.80511535398618   -2.87407978300253
H         0.85441898947983    1.14256347546110   -2.06966308019592
H        -0.87125619809544    0.31364343133908    0.26953574477839
H        -1.18873064599553    2.47920624176064   -2.70640669778949
H        -2.75706621742970    2.10058641474406   -4.55679251915652
H        -4.18983649021180    0.09044426485945   -4.56351731672579
H        -1.48672647414378   -1.51339146198441   -0.01032260679552
H        -2.90766926448031   -3.47211285121032   -0.08010805835017
H        -4.63474174849880   -3.72231137716338   -1.82351187842355
H        -4.87892916050891   -1.99229083574845   -3.56260669042377
H        -4.02803696746492    3.19999020628629   -1.41262951288162
H        -5.99345635219025    1.72339539119999   -1.65378534369548
H        -6.26821561935411   -0.21572683651616   -0.16360097119145
H        -5.20993735865818   -1.78207791585260    1.40245681114256
H        -3.72971691568793   -1.33371055537740    2.26154571599301
H        -5.67616718387431   -1.32072115697699    3.80679642811579
H        -6.49876652539838   -0.14349433568369    2.77701753019696
H        -5.02168267672280    0.31055778196046    3.62483734153134
H        -2.65598138388330    0.82085645792669    1.85424604245825
H         0.53283789454582    3.89410153678525   -0.60078553659414
H         0.89051545009284    5.07857392112266    2.51336798188369
H         4.09460436559609    0.47600787212246    1.82876296380340
H         5.30548878068332   -1.61943319069413    2.28038314103236
H         6.23304866602259   -2.41902914530390    1.00239357447499
H         7.75136436151285   -1.32694644378985    2.64318120472456
H         7.90211813586338   -0.56164391525858    1.05749881128561
H         6.97757723631544    0.23133153955840    2.33214750457340
H         6.25026866190015   -1.51613726010696   -1.27101251063487
H         5.13642328153212   -0.10503870980975   -2.94847039107262
H         3.45218742859054    1.55476779329062   -2.24874441477639

          :  Hamiltonian                  GFN2-xTB          :
         :: total energy            -130.485387671998 Eh    ::
         :: gradient norm              0.000322578171 Eh/a0 ::
         :: HOMO-LUMO gap              2.926443649366 eV    ::
         :: SCC energy              -132.620961743824 Eh    ::
         :: -> dispersion             -0.133457331169 Eh    ::
         :: repulsion energy           2.128631907504 Eh    ::

    * Orbital Energies and Occupations

         #    Occupation            Energy/Eh            Energy/eV
      -------------------------------------------------------------
         1        2.0000           -0.7352857             -20.0081
       ...           ...                  ...                  ...
       107        2.0000           -0.4231792             -11.5153
       108        2.0000           -0.4147780             -11.2867
       109        2.0000           -0.4130837             -11.2406
       110        2.0000           -0.4084400             -11.1142
       111        2.0000           -0.4067364             -11.0679
       112        2.0000           -0.4025938             -10.9551
       113        2.0000           -0.4017356             -10.9318
       114        2.0000           -0.4009957             -10.9116
       115        2.0000           -0.3965407             -10.7904
       116        2.0000           -0.3913433             -10.6490
       117        2.0000           -0.3888723             -10.5818
       118        2.0000           -0.3871141             -10.5339
       119        2.0000           -0.3829619             -10.4209 (HOMO)
       120                         -0.2754171              -7.4945 (LUMO)
       121                         -0.2700489              -7.3484
       122                         -0.2491333              -6.7793
       123                         -0.2406501              -6.5484
       124                         -0.2385997              -6.4926
       125                         -0.2355136              -6.4087
       126                         -0.2278201              -6.1993
       127                         -0.2257039              -6.1417
       128                         -0.2246092              -6.1119
       129                         -0.2065590              -5.6208
       130                         -0.2032596              -5.5310
       ...                                ...                  ...
       228                          0.6864877              18.6803
      -------------------------------------------------------------
                  HL-Gap            0.1075448 Eh            2.9264 eV

     #   Z          covCN         q      C6AA      Î±(0)
     1   6 C        2.921    -0.035    28.868     8.811
     2   6 C        2.914    -0.029    28.719     8.788
     3   6 C        2.917    -0.026    28.652     8.778
     4   6 C        2.916    -0.040    28.996     8.830
     5   6 C        2.983     0.007    27.850     8.657
     6   6 C        2.988     0.013    27.718     8.636
     7   6 C        2.921    -0.036    28.885     8.814
     8   6 C        2.914    -0.031    28.774     8.796
     9   6 C        2.925    -0.037    28.908     8.817
    10   6 C        2.966    -0.009    28.234     8.716
    11   6 C        3.824     0.045    19.801     6.332
    12   6 C        3.821     0.041    19.876     6.345
    13   6 C        2.968    -0.009    28.234     8.716
    14   6 C        2.923    -0.035    28.868     8.811
    15   6 C        2.914    -0.030    28.747     8.792
    16   6 C        2.921    -0.035    28.877     8.812
    17   6 C        2.989     0.015    27.661     8.627
    18   6 C        2.984     0.008    27.844     8.656
    19   6 C        2.917    -0.035    28.862     8.810
    20   6 C        2.917    -0.028    28.694     8.784
    21   6 C        2.915    -0.029    28.720     8.788
    22   6 C        2.921    -0.033    28.829     8.805
    23   7 N        2.765    -0.122    23.650     7.223
    24   6 C        2.765     0.274    22.364     7.745
    25   6 C        2.977    -0.014    28.352     8.734
    26   6 C        2.923    -0.027    28.681     8.782
    27   6 C        2.919    -0.029    28.720     8.788
    28   6 C        2.926    -0.037    28.910     8.818
    29   6 C        2.971     0.017    27.635     8.623
    30   6 C        3.807    -0.056    21.583     6.613
    31   6 C        3.754    -0.099    22.443     6.755
    32   6 C        2.929    -0.036    28.897     8.816
    33   8 O        0.859    -0.427    22.234     6.322
    34   6 C        3.772     0.105    18.891     6.193
    35   6 C        2.688     0.382    20.532     7.416
    36   8 O        1.660    -0.340    19.720     5.995
    37   8 O        0.856    -0.412    21.913     6.276
    38   7 N        2.761    -0.117    23.549     7.207
    39   6 C        2.768     0.275    22.348     7.742
    40   6 C        2.976    -0.013    28.326     8.730
    41   6 C        2.930    -0.027    28.686     8.784
    42   6 C        2.971     0.018    27.604     8.618
    43   6 C        3.807    -0.057    21.600     6.616
    44   6 C        3.754    -0.099    22.452     6.757
    45   6 C        2.926    -0.036    28.886     8.814
    46   6 C        2.919    -0.029    28.735     8.790
    47   6 C        2.923    -0.032    28.808     8.802
    48   8 O        0.860    -0.427    22.230     6.321
    49   1 H        0.926     0.033     2.544     2.494
    50   1 H        0.926     0.034     2.533     2.489
    51   1 H        0.926     0.044     2.394     2.420
    52   1 H        0.926     0.056     2.241     2.341
    53   1 H        0.926     0.038     2.481     2.463
    54   1 H        0.926     0.037     2.494     2.470
    55   1 H        0.926     0.029     2.603     2.523
    56   1 H        0.923     0.044     2.391     2.418
    57   1 H        0.924     0.057     2.233     2.337
    58   1 H        0.926     0.035     2.514     2.480
    59   1 H        0.926     0.039     2.461     2.453
    60   1 H        0.926     0.039     2.458     2.452
    61   1 H        0.926     0.028     2.612     2.528
    62   1 H        0.926     0.035     2.513     2.479
    63   1 H        0.926     0.036     2.504     2.475
    64   1 H        0.926     0.037     2.482     2.464
    65   1 H        0.926     0.037     2.487     2.466
    66   1 H        0.926     0.035     2.510     2.477
    67   1 H        0.926     0.034     2.530     2.487
    68   1 H        0.924     0.036     2.499     2.472
    69   1 H        0.924     0.037     2.494     2.470
    70   1 H        0.925     0.039     2.468     2.457
    71   1 H        0.925     0.038     2.477     2.461
    72   1 H        0.925     0.041     2.433     2.439
    73   1 H        0.925     0.037     2.491     2.468
    74   1 H        0.923     0.064     2.148     2.292
    75   1 H        0.805     0.345     0.599     1.216
    76   1 H        0.926     0.046     2.367     2.406
    77   1 H        0.924     0.039     2.460     2.453
    78   1 H        0.924     0.038     2.480     2.463
    79   1 H        0.925     0.039     2.458     2.452
    80   1 H        0.925     0.038     2.480     2.463
    81   1 H        0.925     0.042     2.424     2.435
    82   1 H        0.926     0.037     2.486     2.466
    83   1 H        0.926     0.037     2.492     2.469
    84   1 H        0.926     0.030     2.587     2.515

Wiberg/Mayer (AO) data.
largest (>0.10) Wiberg bond orders for each atom

     #   Z sym  total        # sym  WBO       # sym  WBO       # sym  WBO
 ---------------------------------------------------------------------------
     1   6 C    3.991 --     2 C    1.555     6 C    1.281    49 H    0.968
                             4 C    0.118
     2   6 C    3.992 --     1 C    1.555     3 C    1.325    50 H    0.971
     3   6 C    3.991 --     4 C    1.550     2 C    1.325    51 H    0.970
     4   6 C    3.989 --     3 C    1.550     5 C    1.284    52 H    0.957
                             1 C    0.118
     5   6 C    3.989 --     4 C    1.284     6 C    1.252    10 C    1.250
     6   6 C    3.990 --     1 C    1.281     7 C    1.279     5 C    1.252
     7   6 C    3.990 --     8 C    1.553     6 C    1.279    53 H    0.968
                            10 C    0.114
     8   6 C    3.991 --     7 C    1.553     9 C    1.326    54 H    0.970
     9   6 C    3.989 --    10 C    1.522     8 C    1.326    55 H    0.967
    10   6 C    3.983 --     9 C    1.522     5 C    1.250    11 C    0.996
                             7 C    0.114
    11   6 C    3.966 --    10 C    0.996    38 N    0.962    56 H    0.951
                            12 C    0.945
    12   6 C    3.965 --    13 C    0.991    23 N    0.962    11 C    0.945
                            57 H    0.943
    13   6 C    3.984 --    14 C    1.517    18 C    1.255    12 C    0.991
                            16 C    0.115
    14   6 C    3.990 --    13 C    1.517    15 C    1.331    58 H    0.967
    15   6 C    3.992 --    16 C    1.548    14 C    1.331    59 H    0.970
    16   6 C    3.990 --    15 C    1.548    17 C    1.281    60 H    0.968
                            13 C    0.115
    17   6 C    3.990 --    16 C    1.281    22 C    1.278    18 C    1.252
    18   6 C    3.989 --    19 C    1.283    13 C    1.255    17 C    1.252
    19   6 C    3.992 --    20 C    1.555    18 C    1.283    61 H    0.961
                            22 C    0.118
    20   6 C    3.991 --    19 C    1.555    21 C    1.321    62 H    0.971
    21   6 C    3.992 --    22 C    1.558    20 C    1.321    63 H    0.971
    22   6 C    3.991 --    21 C    1.558    17 C    1.278    64 H    0.968
                            19 C    0.118
    23   7 N    3.455 --    24 C    1.209    34 C    0.976    12 C    0.962
                            33 O    0.190
    24   6 C    3.943 --    33 O    1.688    23 N    1.209    25 C    0.960
    25   6 C    3.988 --    32 C    1.410    26 C    1.403    24 C    0.960
                            28 C    0.108
    26   6 C    3.990 --    27 C    1.440    25 C    1.403    65 H    0.970
                            29 C    0.108
    27   6 C    3.992 --    28 C    1.443    26 C    1.440    66 H    0.970
                            32 C    0.108
    28   6 C    3.991 --    27 C    1.443    29 C    1.409    67 H    0.969
                            25 C    0.108
    29   6 C    3.988 --    32 C    1.414    28 C    1.409    30 C    1.012
                            26 C    0.108
    30   6 C    3.997 --    29 C    1.012    31 C    1.000    69 H    0.974
                            68 H    0.973
    31   6 C    3.995 --    30 C    1.000    71 H    0.988    72 H    0.988
                            70 H    0.986
    32   6 C    3.990 --    29 C    1.414    25 C    1.410    73 H    0.967
                            27 C    0.108
    33   8 O    2.019 --    24 C    1.688    23 N    0.190
    34   6 C    3.960 --    38 N    0.976    23 N    0.976    74 H    0.945
                            35 C    0.909
    35   6 C    3.924 --    37 O    1.740    36 O    1.178    34 C    0.909
    36   8 O    2.241 --    35 C    1.178    75 H    0.855    37 O    0.175
    37   8 O    2.037 --    35 C    1.740    36 O    0.175
    38   7 N    3.465 --    39 C    1.217    34 C    0.976    11 C    0.962
                            48 O    0.186
    39   6 C    3.941 --    48 O    1.657    38 N    1.217    40 C    0.976
    40   6 C    3.987 --    41 C    1.406    47 C    1.395    39 C    0.976
                            45 C    0.106
    41   6 C    3.989 --    42 C    1.415    40 C    1.406    76 H    0.967
                            46 C    0.107
    42   6 C    3.987 --    41 C    1.415    45 C    1.409    43 C    1.013
                            47 C    0.106
    43   6 C    3.996 --    42 C    1.013    44 C    1.000    78 H    0.974
                            77 H    0.973
    44   6 C    3.995 --    43 C    1.000    80 H    0.988    81 H    0.988
                            79 H    0.986
    45   6 C    3.991 --    46 C    1.441    42 C    1.409    82 H    0.969
                            40 C    0.106
    46   6 C    3.991 --    47 C    1.443    45 C    1.441    83 H    0.970
                            41 C    0.107
    47   6 C    3.991 --    46 C    1.443    40 C    1.395    84 H    0.970
                            42 C    0.106
    48   8 O    2.039 --    39 C    1.657    38 N    0.186
    49   1 H    0.998 --     1 C    0.968
    50   1 H    0.998 --     2 C    0.971
    51   1 H    0.998 --     3 C    0.970
    52   1 H    0.996 --     4 C    0.957
    53   1 H    0.998 --     7 C    0.968
    54   1 H    0.998 --     8 C    0.970
    55   1 H    0.999 --     9 C    0.967
    56   1 H    0.998 --    11 C    0.951
    57   1 H    0.996 --    12 C    0.943
    58   1 H    0.998 --    14 C    0.967
    59   1 H    0.997 --    15 C    0.970
    60   1 H    0.997 --    16 C    0.968
    61   1 H    0.999 --    19 C    0.961
    62   1 H    0.998 --    20 C    0.971
    63   1 H    0.998 --    21 C    0.971
    64   1 H    0.998 --    22 C    0.968
    65   1 H    0.998 --    26 C    0.970
    66   1 H    0.998 --    27 C    0.970
    67   1 H    0.998 --    28 C    0.969
    68   1 H    0.998 --    30 C    0.973
    69   1 H    0.998 --    30 C    0.974
    70   1 H    0.998 --    31 C    0.986
    71   1 H    0.999 --    31 C    0.988
    72   1 H    0.998 --    31 C    0.988
    73   1 H    0.999 --    32 C    0.967
    74   1 H    0.995 --    34 C    0.945
    75   1 H    0.880 --    36 O    0.855
    76   1 H    0.998 --    41 C    0.967
    77   1 H    0.998 --    43 C    0.973
    78   1 H    0.998 --    43 C    0.974
    79   1 H    0.998 --    44 C    0.986
    80   1 H    0.999 --    44 C    0.988
    81   1 H    0.998 --    44 C    0.988
    82   1 H    0.998 --    45 C    0.969
    83   1 H    0.998 --    46 C    0.970
    84   1 H    0.999 --    47 C    0.970
 ---------------------------------------------------------------------------

molecular dipole:
                 x           y           z       tot (Debye)
 q only:       -0.097      -2.615      -1.324
   full:       -0.059      -2.602      -1.440       7.560

           -------------------------------------------------
          | TOTAL ENERGY             -130.485387671998 Eh   |
          | GRADIENT NORM               0.000322578171 Eh/Î± |
          | HOMO-LUMO GAP               2.926443649366 eV   |
           -------------------------------------------------

 * finished run on 2022/03/17 at 00:31:16.202
