   * xtb version 6.3.3 (4ae9cef) compiled by 'conda@95abc7406d43' on 2020-10-14
          program call               : xtb acid_129.xyz --opt --chrg 0 --uhf 0 --gfn 2
          number of atoms            :                    80
          number of electrons        :                   238
          charge                     :                     0
          spin                       :                   0.0

   ID    Z sym.   atoms
    1    6 C      1-22, 24-28, 30-32, 34, 35, 39-43, 45-47
    2    7 N      23, 38
    3    8 O      29, 33, 36, 37, 44, 48
    4    1 H      49-80

          :  Hamiltonian                  GFN2-xTB          :
 * total energy  :  -132.2188377 Eh     change       -0.1030722E-07 Eh
 * total energy  :  -132.2370549 Eh     change       -0.1821724E-01 Eh
 * total energy  :  -132.2428181 Eh     change       -0.5763214E-02 Eh
 * total energy  :  -132.2446216 Eh     change       -0.1803481E-02 Eh
 * total energy  :  -132.2461022 Eh     change       -0.1480572E-02 Eh
 * total energy  :  -132.2471347 Eh     change       -0.1032484E-02 Eh
 * total energy  :  -132.2481339 Eh     change       -0.9992023E-03 Eh
 * total energy  :  -132.2491133 Eh     change       -0.9794228E-03 Eh
 * total energy  :  -132.2499708 Eh     change       -0.8575262E-03 Eh
 * total energy  :  -132.2507434 Eh     change       -0.7725283E-03 Eh
 * total energy  :  -132.2777385 Eh     change       -0.2514298E-04 Eh
 * total energy  :  -132.2777603 Eh     change       -0.2177093E-04 Eh
 * total energy  :  -132.2777767 Eh     change       -0.1637926E-04 Eh
 * total energy  :  -132.2777938 Eh     change       -0.1717086E-04 Eh
 * total energy  :  -132.2778125 Eh     change       -0.1871776E-04 Eh
 * total energy  :  -132.2778299 Eh     change       -0.1735698E-04 Eh
 * total energy  :  -132.2778361 Eh     change       -0.6214324E-05 Eh
 * total energy  :  -132.2778473 Eh     change       -0.1113156E-04 Eh
 * total energy  :  -132.2778519 Eh     change       -0.4614774E-05 Eh
   *** GEOMETRY OPTIMIZATION CONVERGED AFTER 124 ITERATIONS ***

 final structure:
================
80
 xtb: 6.3.3 (4ae9cef)
C         4.66601208795757   -2.38204784966712   -0.16565363537830
C         4.48090153486287   -2.95784733630800   -1.38928250636519
C         3.25607100285821   -2.79966982692818   -2.05311337447679
C         2.25594994917283   -2.04962133303279   -1.50120877649751
C         2.41683543912507   -1.42111330749676   -0.24660582376872
C         3.64552877181417   -1.62070839894581    0.44190189605997
C         3.82912288689965   -1.06590029535344    1.72442009237506
C         2.83404062407996   -0.34393407701301    2.31829598331611
C         1.63757194207637   -0.10866842183606    1.63233894618556
C         1.42853071806113   -0.60552090549934    0.36821007301238
C         0.14106715073515   -0.22611344263185   -0.32433748412722
C        -1.11267883595828   -0.75557299799875    0.41701825693079
C        -1.94168591604116   -1.65422090283450   -0.47412599076737
C        -3.09054002282958   -1.19188931043401   -1.06086093303233
C        -3.85446096643595   -2.00269956820572   -1.91163941852514
C        -3.45287595312719   -3.27743466136596   -2.18602849060742
C        -2.27443194334057   -3.79547635272928   -1.60964000304376
C        -1.50561232875810   -2.98310754357269   -0.73155272510865
C        -0.34156263844632   -3.54151588259751   -0.15930179187191
C         0.05077938247695   -4.81702196795732   -0.45687932383081
C        -0.70210516774846   -5.60960228312725   -1.33448634217573
C        -1.84410380942157   -5.10901587933971   -1.89171697549058
N        -1.83327303964964    0.43373709421978    0.84035503273749
C        -2.60408806578926    0.36242397312364    1.96780072734332
C        -3.38145583501314    1.58193306542547    2.30110577821727
C        -4.19663872740110    2.20448474844138    1.36597936056508
C        -4.93313467437694    3.32430817179286    1.70099757993678
C        -4.85804552822270    3.84571258602639    2.98908587236244
O        -5.51189210513782    4.95406839458472    3.41793907693825
C        -6.25962569210298    5.69836405899441    2.48518806933927
C        -4.06916113287822    3.19670161823429    3.94266068883106
C        -3.35175044949619    2.07261890201041    3.60486491937647
O        -2.66411739289558   -0.66155251820112    2.61832391814438
C        -1.35620761987777    1.61091898646116    0.16117933594680
C        -1.24595911136171    2.86008742716416    1.06426089954401
O        -0.50989001180793    2.60339637933928    2.15122072756466
O        -1.86334151575919    3.87129712009145    0.88929692089242
N        -0.04524754612506    1.21767330264209   -0.32432009109859
C         0.91023468789711    2.16614663814415   -0.44615247718131
C         2.23100366314131    1.71855819799913   -0.95824428800136
C         2.35879220876722    1.09035173348415   -2.18780796489926
C         3.59541539121594    0.66653758363370   -2.64044007817085
C         4.72600170582751    0.85607207375750   -1.85242961151749
O         5.97683769121146    0.43983932236411   -2.17383443158109
C         6.16343714627372   -0.27228652301228   -3.37406375765949
C         4.60257590392808    1.53009534506634   -0.63473514654092
C         3.37348009407809    1.96990393546663   -0.20215975196223
O         0.66432247113666    3.32448527426180   -0.14928317259674
H         5.59904895156000   -2.50612438631731    0.36450335470118
H         5.26509842615308   -3.54499314863511   -1.84485662922840
H         3.10405060619036   -3.27811444126086   -3.00998023181052
H         1.32321452386987   -1.96257044766501   -2.03597859095797
H         4.76912673300957   -1.23167857599430    2.23004171175276
H         2.96440095228074    0.06405643914042    3.30913775931667
H         0.87756377873485    0.50110708938581    2.09936925676418
H         0.12459614926320   -0.58620758904059   -1.35748231694031
H        -0.84284003533760   -1.30772993589036    1.32496302604355
H        -3.42960419640943   -0.18701947567100   -0.86077470129476
H        -4.75876789277617   -1.60459509437454   -2.34737049398064
H        -4.02992376438176   -3.90936283208409   -2.84551238086678
H         0.25254273563680   -2.95948136121051    0.52627647409419
H         0.94786541412286   -5.22043214326592   -0.01083161498460
H        -0.37760617350697   -6.61527289341446   -1.55761077789429
H        -2.44062210179694   -5.71284637808823   -2.56081045977213
H        -4.26956172197471    1.81127597110454    0.36301473605065
H        -5.55148801734556    3.78643675249912    0.94881864440402
H        -6.63574674238365    6.56173171500435    3.03166456397956
H        -7.10514373833512    5.12188758745360    2.09614725392902
H        -5.63453191110434    6.03786977716906    1.65396892459036
H        -4.03812248946649    3.60159742266428    4.94189944974863
H        -2.74335139050897    1.56809863744255    4.34023798271183
H        -1.99861305131071    1.88974482068968   -0.69423133108823
H        -0.43927341296941    3.40478369787963    2.69204357853176
H         1.48837945422029    0.93901266336091   -2.80911860347205
H         3.66215642166741    0.18249843600495   -3.60145943450584
H         7.22138244827671   -0.52780950223786   -3.40242938390957
H         5.56607417708699   -1.18915909020571   -3.38842371250597
H         5.91724798019358    0.34034253351394   -4.24710622926907
H         5.49199417326556    1.69315598339350   -0.04766719978941
H         3.27982729051665    2.49262742190233    0.73701758618369

          :  Hamiltonian                  GFN2-xTB          :
         :: total energy            -132.277851868114 Eh    ::
         :: gradient norm              0.000493945643 Eh/a0 ::
         :: HOMO-LUMO gap              2.864709411436 eV    ::
         :: SCC energy              -134.313438279453 Eh    ::
         :: -> dispersion             -0.125336165847 Eh    ::
         :: repulsion energy           2.031575099492 Eh    ::

    * Orbital Energies and Occupations

         #    Occupation            Energy/Eh            Energy/eV
      -------------------------------------------------------------
         1        2.0000           -0.7466269             -20.3168
       ...           ...                  ...                  ...
       107        2.0000           -0.4220352             -11.4842
       108        2.0000           -0.4190467             -11.4028
       109        2.0000           -0.4121184             -11.2143
       110        2.0000           -0.4084275             -11.1139
       111        2.0000           -0.4070789             -11.0772
       112        2.0000           -0.4069135             -11.0727
       113        2.0000           -0.4039380             -10.9917
       114        2.0000           -0.3980615             -10.8318
       115        2.0000           -0.3926676             -10.6850
       116        2.0000           -0.3904201             -10.6239
       117        2.0000           -0.3852249             -10.4825
       118        2.0000           -0.3833094             -10.4304
       119        2.0000           -0.3797367             -10.3332 (HOMO)
       120                         -0.2744606              -7.4685 (LUMO)
       121                         -0.2661231              -7.2416
       122                         -0.2500606              -6.8045
       123                         -0.2425141              -6.5991
       124                         -0.2402729              -6.5382
       125                         -0.2361677              -6.4265
       126                         -0.2347395              -6.3876
       127                         -0.2327010              -6.3321
       128                         -0.2245115              -6.1093
       129                         -0.2073996              -5.6436
       130                         -0.2006958              -5.4612
       ...                                ...                  ...
       224                          0.6872060              18.6998
      -------------------------------------------------------------
                  HL-Gap            0.1052761 Eh            2.8647 eV

     #   Z          covCN         q      C6AA      Î±(0)
     1   6 C        2.921    -0.031    28.782     8.798
     2   6 C        2.915    -0.030    28.756     8.793
     3   6 C        2.917    -0.030    28.759     8.794
     4   6 C        2.917    -0.034    28.857     8.809
     5   6 C        2.983     0.007    27.852     8.657
     6   6 C        2.989     0.015    27.676     8.630
     7   6 C        2.921    -0.035    28.870     8.811
     8   6 C        2.914    -0.029    28.715     8.787
     9   6 C        2.923    -0.036    28.884     8.813
    10   6 C        2.968    -0.009    28.229     8.715
    11   6 C        3.814     0.040    19.897     6.349
    12   6 C        3.828     0.043    19.840     6.338
    13   6 C        2.967    -0.003    28.097     8.695
    14   6 C        2.921    -0.033    28.818     8.803
    15   6 C        2.914    -0.030    28.742     8.791
    16   6 C        2.920    -0.036    28.904     8.816
    17   6 C        2.988     0.015    27.669     8.629
    18   6 C        2.985     0.007    27.854     8.657
    19   6 C        2.917    -0.036    28.889     8.814
    20   6 C        2.917    -0.028    28.695     8.784
    21   6 C        2.915    -0.029    28.719     8.788
    22   6 C        2.920    -0.034    28.851     8.808
    23   7 N        2.759    -0.122    23.640     7.221
    24   6 C        2.766     0.272    22.398     7.751
    25   6 C        2.974    -0.033    28.815     8.805
    26   6 C        2.923    -0.025    28.618     8.773
    27   6 C        2.917    -0.058    29.438     8.897
    28   6 C        2.868     0.152    24.696     8.146
    29   8 O        1.706    -0.260    18.301     5.776
    30   6 C        3.645     0.034    20.337     6.481
    31   6 C        2.920    -0.053    29.320     8.880
    32   6 C        2.924    -0.022    28.545     8.762
    33   8 O        0.859    -0.425    22.193     6.316
    34   6 C        3.760     0.099    19.001     6.214
    35   6 C        2.689     0.373    20.686     7.443
    36   8 O        1.659    -0.375    20.371     6.093
    37   8 O        0.856    -0.395    21.588     6.229
    38   7 N        2.765    -0.112    23.452     7.192
    39   6 C        2.769     0.274    22.363     7.745
    40   6 C        2.975    -0.023    28.578     8.769
    41   6 C        2.923    -0.028    28.711     8.787
    42   6 C        2.917    -0.064    29.596     8.921
    43   6 C        2.867     0.148    24.775     8.159
    44   8 O        1.706    -0.261    18.325     5.780
    45   6 C        3.645     0.034    20.329     6.480
    46   6 C        2.920    -0.052    29.286     8.874
    47   6 C        2.924    -0.020    28.503     8.755
    48   8 O        0.863    -0.422    22.121     6.306
    49   1 H        0.926     0.039     2.466     2.455
    50   1 H        0.926     0.033     2.546     2.495
    51   1 H        0.926     0.031     2.576     2.510
    52   1 H        0.926     0.027     2.626     2.534
    53   1 H        0.926     0.040     2.450     2.448
    54   1 H        0.926     0.041     2.440     2.443
    55   1 H        0.926     0.050     2.321     2.382
    56   1 H        0.924     0.049     2.334     2.389
    57   1 H        0.924     0.081     1.965     2.192
    58   1 H        0.926     0.030     2.580     2.512
    59   1 H        0.926     0.036     2.508     2.477
    60   1 H        0.926     0.036     2.498     2.471
    61   1 H        0.926     0.031     2.578     2.511
    62   1 H        0.926     0.031     2.567     2.505
    63   1 H        0.926     0.033     2.539     2.492
    64   1 H        0.926     0.035     2.516     2.480
    65   1 H        0.926     0.032     2.565     2.504
    66   1 H        0.926     0.046     2.374     2.409
    67   1 H        0.925     0.064     2.150     2.293
    68   1 H        0.924     0.042     2.427     2.436
    69   1 H        0.924     0.048     2.340     2.392
    70   1 H        0.926     0.055     2.262     2.352
    71   1 H        0.926     0.052     2.291     2.367
    72   1 H        0.922     0.056     2.250     2.346
    73   1 H        0.805     0.341     0.609     1.226
    74   1 H        0.926     0.036     2.498     2.472
    75   1 H        0.926     0.042     2.423     2.434
    76   1 H        0.925     0.066     2.129     2.282
    77   1 H        0.924     0.043     2.408     2.427
    78   1 H        0.924     0.044     2.399     2.422
    79   1 H        0.926     0.057     2.231     2.336
    80   1 H        0.926     0.052     2.295     2.369

Wiberg/Mayer (AO) data.
largest (>0.10) Wiberg bond orders for each atom

     #   Z sym  total        # sym  WBO       # sym  WBO       # sym  WBO
 ---------------------------------------------------------------------------
     1   6 C    3.991 --     2 C    1.557     6 C    1.278    49 H    0.968
                             4 C    0.118
     2   6 C    3.992 --     1 C    1.557     3 C    1.321    50 H    0.970
     3   6 C    3.990 --     4 C    1.555     2 C    1.321    51 H    0.971
     4   6 C    3.992 --     3 C    1.555     5 C    1.282    52 H    0.960
                             1 C    0.118
     5   6 C    3.988 --     4 C    1.282    10 C    1.253     6 C    1.252
     6   6 C    3.990 --     7 C    1.280     1 C    1.278     5 C    1.252
     7   6 C    3.989 --     8 C    1.549     6 C    1.280    53 H    0.968
                            10 C    0.115
     8   6 C    3.992 --     7 C    1.549     9 C    1.331    54 H    0.970
     9   6 C    3.989 --    10 C    1.518     8 C    1.331    55 H    0.965
    10   6 C    3.984 --     9 C    1.518     5 C    1.253    11 C    0.989
                             7 C    0.115
    11   6 C    3.964 --    10 C    0.989    38 N    0.959    56 H    0.949
                            12 C    0.948
    12   6 C    3.962 --    13 C    0.986    23 N    0.968    11 C    0.948
                            57 H    0.942
    13   6 C    3.984 --    14 C    1.531    18 C    1.248    12 C    0.986
                            16 C    0.114
    14   6 C    3.990 --    13 C    1.531    15 C    1.321    58 H    0.965
    15   6 C    3.992 --    16 C    1.558    14 C    1.321    59 H    0.970
    16   6 C    3.990 --    15 C    1.558    17 C    1.276    60 H    0.968
                            13 C    0.114
    17   6 C    3.990 --    22 C    1.281    16 C    1.276    18 C    1.255
    18   6 C    3.989 --    19 C    1.285    17 C    1.255    13 C    1.248
    19   6 C    3.992 --    20 C    1.552    18 C    1.285    61 H    0.963
                            22 C    0.119
    20   6 C    3.992 --    19 C    1.552    21 C    1.324    62 H    0.971
    21   6 C    3.992 --    22 C    1.556    20 C    1.324    63 H    0.971
    22   6 C    3.991 --    21 C    1.556    17 C    1.281    64 H    0.968
                            19 C    0.119
    23   7 N    3.445 --    24 C    1.183    34 C    0.989    12 C    0.968
                            33 O    0.182
    24   6 C    3.943 --    33 O    1.688    23 N    1.183    25 C    0.987
    25   6 C    3.986 --    26 C    1.397    32 C    1.372    24 C    0.987
    26   6 C    3.992 --    27 C    1.451    25 C    1.397    65 H    0.968
                            31 C    0.104
    27   6 C    3.988 --    26 C    1.451    28 C    1.366    66 H    0.965
    28   6 C    3.937 --    27 C    1.366    31 C    1.339    29 O    1.078
    29   8 O    2.244 --    28 C    1.078    30 C    0.982
    30   6 C    3.944 --    29 O    0.982    67 H    0.980    69 H    0.976
                            68 H    0.976
    31   6 C    3.987 --    32 C    1.484    28 C    1.339    70 H    0.967
                            26 C    0.104
    32   6 C    3.989 --    31 C    1.484    25 C    1.372    71 H    0.968
    33   8 O    2.013 --    24 C    1.688    23 N    0.182
    34   6 C    3.965 --    23 N    0.989    38 N    0.970    72 H    0.942
                            35 C    0.913
    35   6 C    3.926 --    37 O    1.761    36 O    1.126    34 C    0.913
    36   8 O    2.189 --    35 C    1.126    73 H    0.859    37 O    0.163
    37   8 O    2.054 --    35 C    1.761    36 O    0.163
    38   7 N    3.470 --    39 C    1.233    34 C    0.970    11 C    0.959
                            48 O    0.184
    39   6 C    3.942 --    48 O    1.639    38 N    1.233    40 C    0.979
    40   6 C    3.986 --    41 C    1.405    47 C    1.371    39 C    0.979
    41   6 C    3.991 --    42 C    1.443    40 C    1.405    74 H    0.969
                            46 C    0.105
    42   6 C    3.987 --    41 C    1.443    43 C    1.369    75 H    0.965
    43   6 C    3.938 --    42 C    1.369    46 C    1.338    44 O    1.076
    44   8 O    2.243 --    43 C    1.076    45 C    0.982
    45   6 C    3.943 --    44 O    0.982    76 H    0.979    78 H    0.976
                            77 H    0.975
    46   6 C    3.987 --    47 C    1.484    43 C    1.338    79 H    0.966
                            41 C    0.105
    47   6 C    3.989 --    46 C    1.484    40 C    1.371    80 H    0.968
    48   8 O    2.064 --    39 C    1.639    38 N    0.184
    49   1 H    0.998 --     1 C    0.968
    50   1 H    0.998 --     2 C    0.970
    51   1 H    0.999 --     3 C    0.971
    52   1 H    0.999 --     4 C    0.960
    53   1 H    0.997 --     7 C    0.968
    54   1 H    0.997 --     8 C    0.970
    55   1 H    0.997 --     9 C    0.965
    56   1 H    0.997 --    11 C    0.949
    57   1 H    0.993 --    12 C    0.942
    58   1 H    0.999 --    14 C    0.965
    59   1 H    0.998 --    15 C    0.970
    60   1 H    0.998 --    16 C    0.968
    61   1 H    0.999 --    19 C    0.963
    62   1 H    0.999 --    20 C    0.971
    63   1 H    0.998 --    21 C    0.971
    64   1 H    0.998 --    22 C    0.968
    65   1 H    0.999 --    26 C    0.968
    66   1 H    0.997 --    27 C    0.965
    67   1 H    0.995 --    30 C    0.980
    68   1 H    0.998 --    30 C    0.976
    69   1 H    0.997 --    30 C    0.976
    70   1 H    0.996 --    31 C    0.967
    71   1 H    0.997 --    32 C    0.968
    72   1 H    0.996 --    34 C    0.942
    73   1 H    0.884 --    36 O    0.859
    74   1 H    0.999 --    41 C    0.969
    75   1 H    0.998 --    42 C    0.965
    76   1 H    0.995 --    45 C    0.979
    77   1 H    0.998 --    45 C    0.975
    78   1 H    0.998 --    45 C    0.976
    79   1 H    0.996 --    46 C    0.966
    80   1 H    0.997 --    47 C    0.968
 ---------------------------------------------------------------------------

molecular dipole:
                 x           y           z       tot (Debye)
 q only:        1.116      -1.157      -1.363
   full:        1.070      -1.052      -1.699       5.761

           -------------------------------------------------
          | TOTAL ENERGY             -132.277851868114 Eh   |
          | GRADIENT NORM               0.000493945643 Eh/Î± |
          | HOMO-LUMO GAP               2.864709411436 eV   |
           -------------------------------------------------

 * finished run on 2022/03/16 at 21:40:02.042
