   * xtb version 6.3.3 (4ae9cef) compiled by 'conda@95abc7406d43' on 2020-10-14
          program call               : xtb acid_278.xyz --opt --chrg 0 --uhf 0 --gfn 2
          number of atoms            :                    54
          number of electrons        :                   170
          charge                     :                     0
          spin                       :                   0.0

   ID    Z sym.   atoms
    1    6 C      1-14, 16-20, 23, 24, 28-32
    2    7 N      15, 27
    3    8 O      21, 22, 25, 26, 33, 34
    4    1 H      35-54

          :  Hamiltonian                  GFN2-xTB          :
 * total energy  :   -96.1180683 Eh     change       -0.3010186E-08 Eh
 * total energy  :   -96.1327204 Eh     change       -0.1465212E-01 Eh
 * total energy  :   -96.1371274 Eh     change       -0.4406981E-02 Eh
 * total energy  :   -96.1385605 Eh     change       -0.1433129E-02 Eh
 * total energy  :   -96.1394881 Eh     change       -0.9275962E-03 Eh
 * total energy  :   -96.1401328 Eh     change       -0.6446750E-03 Eh
 * total energy  :   -96.1407677 Eh     change       -0.6349078E-03 Eh
 * total energy  :   -96.1412307 Eh     change       -0.4630358E-03 Eh
 * total energy  :   -96.1416970 Eh     change       -0.4662716E-03 Eh
 * total energy  :   -96.1420970 Eh     change       -0.3999897E-03 Eh
 * total energy  :   -96.1476840 Eh     change       -0.1535296E-04 Eh
 * total energy  :   -96.1477013 Eh     change       -0.1732402E-04 Eh
 * total energy  :   -96.1477157 Eh     change       -0.1432403E-04 Eh
 * total energy  :   -96.1477285 Eh     change       -0.1280160E-04 Eh
 * total energy  :   -96.1477384 Eh     change       -0.9944610E-05 Eh
 * total energy  :   -96.1477359 Eh     change        0.2468101E-05 Eh
 * total energy  :   -96.1477427 Eh     change       -0.6780783E-05 Eh
 * total energy  :   -96.1477442 Eh     change       -0.1509764E-05 Eh
 * total energy  :   -96.1477475 Eh     change       -0.3305299E-05 Eh
   *** GEOMETRY OPTIMIZATION CONVERGED AFTER 68 ITERATIONS ***

 final structure:
================
54
 xtb: 6.3.3 (4ae9cef)
C        -0.88211905866746    0.88815092427089   -2.80548269003679
C        -0.95984647277537    1.19212755434634   -4.15493602653111
C        -0.02923174672677    2.03373749478431   -4.73763647713512
C         0.98500051374908    2.57417025903044   -3.96445299778521
C         1.06375533936364    2.27519436571298   -2.61692168775825
C         0.12975087797096    1.43094791984146   -2.02422699743511
C         0.31824140196068    1.08990546656500   -0.56223527169949
C        -0.92957299073852    0.54778986601455    0.16389517431118
C        -0.95717163295266    1.02387311107517    1.59805379517824
C        -1.73747575729949    2.12009595125402    1.94168329057477
C        -1.76690885966962    2.57821320131569    3.24615520871736
C        -1.01387086143644    1.94559267216462    4.22067903751015
C        -0.22663480781498    0.85870059350296    3.88251809059917
C        -0.19552581528245    0.40059687666802    2.57730396619869
N        -0.76838436497976   -0.89451886084308    0.06246779792023
C        -1.44532813430716   -1.85651131345034    0.75045489377170
C        -2.73711335724538   -1.49402230806662    1.34228514880237
C        -3.47461015538292   -2.24046635198902    2.22841248868976
C        -4.63569170222234   -1.49164258336769    2.50590538180089
C        -4.52665152597329   -0.35139347273771    1.76709808209286
O        -3.38947964675881   -0.34238361532502    1.06320207576618
O        -0.99461755027578   -2.98353432311915    0.86449955551131
C         0.52423381438922   -1.23627447699622   -0.49350729832601
C         0.37102540690057   -1.76083204673843   -1.93390137887334
O         1.51470133460745   -1.65375660567726   -2.60783619820072
O        -0.63414256353747   -2.22269838215198   -2.38882799948972
N         1.26620843662704   -0.01292782591045   -0.43377238221566
C         2.59315425026635    0.21748619346246   -0.26268805508718
C         3.50233127597131   -0.92807262418356   -0.14911294108724
C         4.86323712027641   -0.86326451262143    0.03198697248569
C         5.32398309355355   -2.19437320850840    0.06468281001562
C         4.21807167860348   -2.97386793947929   -0.10193452158276
O         3.11766515592430   -2.22386476756448   -0.22883715041987
O         3.02730995220589    1.35607311657868   -0.20180279974026
H        -1.61381938341529    0.21737828640636   -2.38189956716909
H        -1.75127661288242    0.76209777091530   -4.75072221364196
H        -0.09320573361468    2.26655958263111   -5.79034512721865
H         1.71686374396081    3.22999305805968   -4.41192807696195
H         1.86075207494428    2.68278085686741   -2.01363473894526
H         0.74208592173441    1.95526525030490   -0.04209310064280
H        -1.84345196213711    0.87458919836409   -0.34003807684848
H        -2.32794489387316    2.61107264087378    1.18154955187998
H        -2.38175327788705    3.42798090786324    3.50332249975823
H        -1.04048167848225    2.29886217657038    5.24057175479406
H         0.36609852048603    0.36333110665307    4.63683082219745
H         0.41974950644796   -0.45124424780525    2.32717085357699
H        -3.20039604699893   -3.19917364805622    2.61630502281264
H        -5.43921066842481   -1.76233467496937    3.15910522207489
H        -5.17407778086633    0.49704988470110    1.66151862879685
H         0.97198296562618   -2.05261713839697    0.09127492072788
H         1.41455971402997   -2.00018700136193   -3.50934758886138
H         5.43616543203536    0.03495284133931    0.12860892866161
H         6.33358381612377   -2.52667358459700    0.19088150283954
H         4.08948669486733   -4.03793061422132   -0.14030111437734

          :  Hamiltonian                  GFN2-xTB          :
         :: total energy             -96.147747531302 Eh    ::
         :: gradient norm              0.000687712468 Eh/a0 ::
         :: HOMO-LUMO gap              3.487809275449 eV    ::
         :: SCC energy               -97.496154902549 Eh    ::
         :: -> dispersion             -0.074359352453 Eh    ::
         :: repulsion energy           1.346405188784 Eh    ::

    * Orbital Energies and Occupations

         #    Occupation            Energy/Eh            Energy/eV
      -------------------------------------------------------------
         1        2.0000           -0.7642581             -20.7965
       ...           ...                  ...                  ...
        73        2.0000           -0.4377752             -11.9125
        74        2.0000           -0.4328178             -11.7776
        75        2.0000           -0.4270784             -11.6214
        76        2.0000           -0.4164804             -11.3330
        77        2.0000           -0.4149040             -11.2901
        78        2.0000           -0.4127662             -11.2319
        79        2.0000           -0.4108152             -11.1789
        80        2.0000           -0.4083332             -11.1113
        81        2.0000           -0.4060224             -11.0484
        82        2.0000           -0.4053664             -11.0306
        83        2.0000           -0.4031964             -10.9715
        84        2.0000           -0.3993631             -10.8672
        85        2.0000           -0.3928795             -10.6908 (HOMO)
        86                         -0.2647049              -7.2030 (LUMO)
        87                         -0.2631328              -7.1602
        88                         -0.2520708              -6.8592
        89                         -0.2369034              -6.4465
        90                         -0.2328016              -6.3349
        91                         -0.2315832              -6.3017
        92                         -0.2281793              -6.2091
        93                         -0.1931647              -5.2563
        94                         -0.1920572              -5.2261
        95                         -0.1444996              -3.9320
        96                         -0.1417450              -3.8571
       ...                                ...                  ...
       156                          0.7011335              19.0788
      -------------------------------------------------------------
                  HL-Gap            0.1281746 Eh            3.4878 eV

     #   Z          covCN         q      C6AA      Î±(0)
     1   6 C        2.921    -0.039    28.966     8.826
     2   6 C        2.920    -0.029    28.734     8.790
     3   6 C        2.919    -0.030    28.758     8.794
     4   6 C        2.919    -0.028    28.692     8.784
     5   6 C        2.925    -0.034    28.841     8.807
     6   6 C        2.972    -0.002    28.071     8.691
     7   6 C        3.848     0.036    19.933     6.351
     8   6 C        3.822     0.033    20.007     6.365
     9   6 C        2.973     0.002    27.982     8.677
    10   6 C        2.925    -0.035    28.862     8.810
    11   6 C        2.920    -0.027    28.687     8.783
    12   6 C        2.920    -0.029    28.729     8.790
    13   6 C        2.920    -0.026    28.661     8.779
    14   6 C        2.923    -0.031    28.781     8.798
    15   7 N        2.766    -0.110    23.397     7.184
    16   6 C        2.763     0.265    22.524     7.772
    17   6 C        3.117     0.084    25.972     8.347
    18   6 C        3.029    -0.045    29.087     8.846
    19   6 C        3.011    -0.059    29.453     8.902
    20   6 C        3.077     0.077    26.196     8.391
    21   8 O        1.729    -0.178    16.984     5.564
    22   8 O        0.860    -0.436    22.414     6.348
    23   6 C        3.785     0.090    19.113     6.227
    24   6 C        2.688     0.358    20.930     7.487
    25   8 O        1.659    -0.365    20.190     6.066
    26   8 O        0.856    -0.376    21.210     6.175
    27   7 N        2.768    -0.101    23.220     7.157
    28   6 C        2.756     0.263    22.574     7.780
    29   6 C        3.111     0.081    26.041     8.360
    30   6 C        3.029    -0.044    29.059     8.842
    31   6 C        3.008    -0.059    29.445     8.901
    32   6 C        3.073     0.079    26.161     8.386
    33   8 O        1.729    -0.181    17.038     5.573
    34   8 O        0.861    -0.438    22.454     6.353
    35   1 H        0.926     0.041     2.434     2.440
    36   1 H        0.926     0.037     2.485     2.465
    37   1 H        0.926     0.035     2.519     2.482
    38   1 H        0.926     0.038     2.474     2.460
    39   1 H        0.926     0.058     2.227     2.334
    40   1 H        0.924     0.081     1.972     2.196
    41   1 H        0.924     0.069     2.098     2.265
    42   1 H        0.926     0.034     2.536     2.490
    43   1 H        0.926     0.037     2.484     2.465
    44   1 H        0.926     0.038     2.481     2.463
    45   1 H        0.926     0.039     2.468     2.457
    46   1 H        0.926     0.031     2.573     2.508
    47   1 H        0.927     0.066     2.133     2.284
    48   1 H        0.927     0.051     2.312     2.378
    49   1 H        0.926     0.056     2.248     2.345
    50   1 H        0.923     0.110     1.698     2.038
    51   1 H        0.804     0.340     0.611     1.228
    52   1 H        0.927     0.067     2.120     2.277
    53   1 H        0.926     0.051     2.307     2.375
    54   1 H        0.926     0.059     2.208     2.324

Wiberg/Mayer (AO) data.
largest (>0.10) Wiberg bond orders for each atom

     #   Z sym  total        # sym  WBO       # sym  WBO       # sym  WBO
 ---------------------------------------------------------------------------
     1   6 C    3.991 --     2 C    1.437     6 C    1.419    35 H    0.965
                             4 C    0.110
     2   6 C    3.992 --     3 C    1.444     1 C    1.437    36 H    0.971
                             5 C    0.113
     3   6 C    3.991 --     2 C    1.444     4 C    1.434    37 H    0.971
                             6 C    0.109
     4   6 C    3.991 --     5 C    1.450     3 C    1.434    38 H    0.970
                             1 C    0.110
     5   6 C    3.988 --     4 C    1.450     6 C    1.407    39 H    0.966
                             2 C    0.113
     6   6 C    3.983 --     1 C    1.419     5 C    1.407     7 C    0.982
                             3 C    0.109
     7   6 C    3.960 --     6 C    0.982     8 C    0.960    27 N    0.952
                            40 H    0.951
     8   6 C    3.964 --     9 C    0.986    15 N    0.965     7 C    0.960
                            41 H    0.949
     9   6 C    3.986 --    14 C    1.416    10 C    1.409     8 C    0.986
                            12 C    0.109
    10   6 C    3.991 --    11 C    1.447     9 C    1.409    42 H    0.969
                            13 C    0.111
    11   6 C    3.992 --    10 C    1.447    12 C    1.437    43 H    0.971
                            14 C    0.111
    12   6 C    3.990 --    13 C    1.440    11 C    1.437    44 H    0.971
                             9 C    0.109
    13   6 C    3.992 --    14 C    1.442    12 C    1.440    45 H    0.971
                            10 C    0.111
    14   6 C    3.992 --    13 C    1.442     9 C    1.416    46 H    0.968
                            11 C    0.111
    15   7 N    3.457 --    16 C    1.194    23 C    0.981     8 C    0.965
                            22 O    0.182
    16   6 C    3.959 --    22 O    1.644    15 N    1.194    17 C    1.030
    17   6 C    3.907 --    18 C    1.523    21 O    1.104    16 C    1.030
                            20 C    0.138
    18   6 C    3.984 --    17 C    1.523    19 C    1.324    47 H    0.972
    19   6 C    3.984 --    20 C    1.579    18 C    1.324    48 H    0.974
    20   6 C    3.909 --    19 C    1.579    21 O    1.152    49 H    0.965
                            17 C    0.138
    21   8 O    2.452 --    20 C    1.152    17 C    1.104
    22   8 O    1.994 --    16 C    1.644    15 N    0.182
    23   6 C    3.966 --    27 N    0.995    15 N    0.981    50 H    0.915
                            24 C    0.913
    24   6 C    3.918 --    26 O    1.789    25 O    1.147    23 C    0.913
    25   8 O    2.213 --    24 C    1.147    51 H    0.858    26 O    0.181
    26   8 O    2.070 --    24 C    1.789    25 O    0.181
    27   7 N    3.482 --    28 C    1.203    23 C    0.995     7 C    0.952
                            34 O    0.185
    28   6 C    3.960 --    34 O    1.632    27 N    1.203    29 C    1.031
    29   6 C    3.904 --    30 C    1.521    33 O    1.100    28 C    1.031
                            32 C    0.138
    30   6 C    3.983 --    29 C    1.521    31 C    1.325    52 H    0.972
    31   6 C    3.983 --    32 C    1.579    30 C    1.325    53 H    0.974
    32   6 C    3.908 --    31 C    1.579    33 O    1.151    54 H    0.965
                            29 C    0.138
    33   8 O    2.452 --    32 C    1.151    29 C    1.100
    34   8 O    1.985 --    28 C    1.632    27 N    0.185
    35   1 H    0.998 --     1 C    0.965
    36   1 H    0.998 --     2 C    0.971
    37   1 H    0.998 --     3 C    0.971
    38   1 H    0.998 --     4 C    0.970
    39   1 H    0.997 --     5 C    0.966
    40   1 H    0.993 --     7 C    0.951
    41   1 H    0.995 --     8 C    0.949
    42   1 H    0.999 --    10 C    0.969
    43   1 H    0.998 --    11 C    0.971
    44   1 H    0.998 --    12 C    0.971
    45   1 H    0.998 --    13 C    0.971
    46   1 H    0.999 --    14 C    0.968
    47   1 H    0.996 --    18 C    0.972
    48   1 H    0.997 --    19 C    0.974
    49   1 H    0.996 --    20 C    0.965
    50   1 H    0.987 --    23 C    0.915
    51   1 H    0.884 --    25 O    0.858
    52   1 H    0.996 --    30 C    0.972
    53   1 H    0.997 --    31 C    0.974
    54   1 H    0.996 --    32 C    0.965
 ---------------------------------------------------------------------------

molecular dipole:
                 x           y           z       tot (Debye)
 q only:       -0.245       0.641       0.009
   full:       -0.272       0.454      -0.089       1.364

           -------------------------------------------------
          | TOTAL ENERGY              -96.147747531302 Eh   |
          | GRADIENT NORM               0.000687712468 Eh/Î± |
          | HOMO-LUMO GAP               3.487809275449 eV   |
           -------------------------------------------------

 * finished run on 2022/03/16 at 23:17:08.589
