   * xtb version 6.3.3 (4ae9cef) compiled by 'conda@95abc7406d43' on 2020-10-14
          program call               : xtb acid_208.xyz --opt --chrg 0 --uhf 0 --gfn 2
          number of atoms            :                    68
          number of electrons        :                   214
          charge                     :                     0
          spin                       :                   0.0

   ID    Z sym.   atoms
    1    6 C      1, 3-16, 18, 20-25, 27, 29, 30, 34-37, 39-41
    2    8 O      2, 17, 28, 31, 32, 42
    3    7 N      19, 33
    4   53 I      26, 38
    5    1 H      43-68

          :  Hamiltonian                  GFN2-xTB          :
 * total energy  :  -119.6557647 Eh     change       -0.1475442E-08 Eh
 * total energy  :  -119.6710922 Eh     change       -0.1532744E-01 Eh
 * total energy  :  -119.6765511 Eh     change       -0.5458965E-02 Eh
 * total energy  :  -119.6790110 Eh     change       -0.2459865E-02 Eh
 * total energy  :  -119.6808932 Eh     change       -0.1882219E-02 Eh
 * total energy  :  -119.6824247 Eh     change       -0.1531474E-02 Eh
 * total energy  :  -119.6839346 Eh     change       -0.1509881E-02 Eh
 * total energy  :  -119.6854352 Eh     change       -0.1500618E-02 Eh
 * total energy  :  -119.6867711 Eh     change       -0.1335875E-02 Eh
 * total energy  :  -119.6879542 Eh     change       -0.1183113E-02 Eh
 * total energy  :  -119.7121196 Eh     change       -0.4181807E-04 Eh
 * total energy  :  -119.7121581 Eh     change       -0.3854434E-04 Eh
 * total energy  :  -119.7121996 Eh     change       -0.4145554E-04 Eh
 * total energy  :  -119.7122101 Eh     change       -0.1046917E-04 Eh
 * total energy  :  -119.7122248 Eh     change       -0.1478206E-04 Eh
 * total energy  :  -119.7122360 Eh     change       -0.1113721E-04 Eh
 * total energy  :  -119.7122431 Eh     change       -0.7098910E-05 Eh
 * total energy  :  -119.7122500 Eh     change       -0.6947965E-05 Eh
 * total energy  :  -119.7122545 Eh     change       -0.4482292E-05 Eh
   *** GEOMETRY OPTIMIZATION CONVERGED AFTER 73 ITERATIONS ***

 final structure:
================
68
 xtb: 6.3.3 (4ae9cef)
C        -2.47265045157189   -0.07407298171490    0.43633267875686
O        -1.97494731780246   -1.12464356346058    1.13284057353267
C        -2.73562069772356   -1.72016912191975    2.15618312222541
C        -3.71108081928125    0.51507332246990    0.65925968042658
C        -4.11250947969889    1.60116257711087   -0.10016340417184
C        -3.28451904859782    2.12036500458531   -1.07706859742196
C        -2.05545574552141    1.52773779395692   -1.31254885411393
C        -1.64553466043024    0.42329234874124   -0.58555472943706
C        -0.30285872712925   -0.20015799821784   -0.84479154959705
C         0.66250685080970    0.09362450965666    0.33138218446023
C         1.39743035448116    1.39281184695537    0.14329767919238
C         1.09938277308681    2.47900999009900    0.94853984805719
C         1.77301616100221    3.67994826393936    0.80898715229602
C         2.76051607335328    3.79618972807681   -0.15035516038499
C         3.06435027039219    2.72857438519505   -0.97784535958604
C         2.38342131481352    1.52385913132056   -0.84863194895795
O         2.60780516657853    0.42783872576152   -1.62569513643552
C         3.67119888208393    0.45522954832603   -2.54936620048779
N         1.52134735245636   -1.07358490768058    0.35382857812796
C         2.61695129313355   -1.26928131635703    1.11786964248678
C         2.96496230813108   -0.10837267885041    1.99966632678661
C         2.22553493349816    0.13903445945455    3.14846596577225
C         2.54327170611669    1.22042117110656    3.95131079320386
C         3.58148403852283    2.06882643747018    3.60555828268542
C         4.32000159263080    1.79783496909788    2.46912973328072
I         5.88841672512783    3.09761447686630    1.91175693788119
C         4.03997506146208    0.70536522130424    1.67358173521746
O         3.26225721985241   -2.29679621468920    1.08063645094078
C         0.98856936680362   -2.15694460658931   -0.43830192935896
C         0.78592587636510   -3.40289578381946    0.45466402431396
O         1.42546741378945   -4.45346341602167   -0.02853321921207
O         0.22955770318786   -3.36028791005370    1.51878283910932
N        -0.26572262732559   -1.65095296725917   -0.95375941690787
C        -1.24628770899244   -2.55252233026199   -1.17922809132670
C        -2.53714441370172   -2.07161593593411   -1.74096750241445
C        -2.59345496724921   -1.13290033232450   -2.76312690351693
C        -3.82662883488806   -0.71370066751312   -3.22025476440042
I        -3.90915868981715    0.77222653495734   -4.71945259587971
C        -5.00269595737942   -1.22226484803753   -2.70039779609762
C        -4.93732932285541   -2.19543388953995   -1.71754935222750
C        -3.71157550090824   -2.62511890119208   -1.24353251659023
O        -1.05686361208106   -3.73895312216118   -0.96168564610431
H        -2.91900009648737   -1.01971667211445    2.97753242227391
H        -3.69048089016566   -2.09832427516072    1.77939371778158
H        -2.12249168485540   -2.54957762000196    2.50558419067566
H        -4.36548348055832    0.13297416953687    1.42658031614190
H        -5.07929316043517    2.04496333851829    0.08338930242504
H        -3.59273404400264    2.97395518058979   -1.65967270465694
H        -1.40707676486486    1.92389680375441   -2.08050915902265
H         0.12891211541513    0.22650370875135   -1.76058526878225
H         0.08391673921409    0.14035677290641    1.26250193667319
H         0.33284446064812    2.37470437535579    1.70236286449990
H         1.53286583000764    4.51343974271900    1.45008988811755
H         3.30622119033507    4.72061967538060   -0.26138123958095
H         3.83766475963483    2.84580621107670   -1.71986593026872
H         4.62746218235793    0.65487355838624   -2.05742523892715
H         3.50354268255063    1.19865013127366   -3.33495968665398
H         3.69849514136065   -0.53864686066404   -2.99308222293981
H         1.41214648213375   -0.52096757439137    3.41071288317312
H         1.97554726534657    1.41473341987731    4.84892790346753
H         3.81348158600800    2.92532937333055    4.21961761593707
H         4.63355741983924    0.48496143080984    0.80001175251571
H         1.67672072534211   -2.42894315007748   -1.25388578873846
H         1.31835910460258   -5.21792325184300    0.55831523931467
H        -1.68581701163859   -0.74610599701515   -3.19819873010647
H        -5.95775373545912   -0.87498476462828   -3.06316431431781
H        -5.85034009587855   -2.61483753940925   -1.32259123503546
H        -3.64258157517281   -3.38764213984266   -0.48296206808038

          :  Hamiltonian                  GFN2-xTB          :
         :: total energy            -119.712254519396 Eh    ::
         :: gradient norm              0.000556236963 Eh/a0 ::
         :: HOMO-LUMO gap              3.169499342332 eV    ::
         :: SCC energy              -121.355318659033 Eh    ::
         :: -> dispersion             -0.115439090884 Eh    ::
         :: repulsion energy           1.638154100905 Eh    ::

    * Orbital Energies and Occupations

         #    Occupation            Energy/Eh            Energy/eV
      -------------------------------------------------------------
         1        2.0000           -0.7469181             -20.3247
       ...           ...                  ...                  ...
        95        2.0000           -0.4334455             -11.7947
        96        2.0000           -0.4240514             -11.5390
        97        2.0000           -0.4214721             -11.4688
        98        2.0000           -0.4197040             -11.4207
        99        2.0000           -0.4151928             -11.2980
       100        2.0000           -0.4126180             -11.2279
       101        2.0000           -0.4104251             -11.1682
       102        2.0000           -0.4080025             -11.1023
       103        2.0000           -0.4059588             -11.0467
       104        2.0000           -0.4006553             -10.9024
       105        2.0000           -0.4000807             -10.8867
       106        2.0000           -0.3957119             -10.7679
       107        2.0000           -0.3919705             -10.6661 (HOMO)
       108                         -0.2754935              -7.4966 (LUMO)
       109                         -0.2610707              -7.1041
       110                         -0.2584350              -7.0324
       111                         -0.2532694              -6.8918
       112                         -0.2492269              -6.7818
       113                         -0.2440866              -6.6419
       114                         -0.2356653              -6.4128
       115                         -0.2353641              -6.4046
       116                         -0.2344343              -6.3793
       117                         -0.2313163              -6.2944
       118                         -0.2266775              -6.1682
       ...                                ...                  ...
       204                          0.6597416              17.9525
      -------------------------------------------------------------
                  HL-Gap            0.1164770 Eh            3.1695 eV

     #   Z          covCN         q      C6AA      Î±(0)
     1   6 C        2.865     0.139    24.973     8.191
     2   8 O        1.706    -0.266    18.412     5.793
     3   6 C        3.641     0.037    20.311     6.481
     4   6 C        2.917    -0.068    29.702     8.937
     5   6 C        2.921    -0.031    28.774     8.797
     6   6 C        2.917    -0.040    28.999     8.831
     7   6 C        2.924    -0.036    28.886     8.814
     8   6 C        2.972    -0.027    28.682     8.785
     9   6 C        3.824     0.048    19.751     6.324
    10   6 C        3.821     0.047    19.776     6.329
    11   6 C        2.971    -0.029    28.714     8.790
    12   6 C        2.925    -0.037    28.921     8.819
    13   6 C        2.917    -0.040    28.987     8.829
    14   6 C        2.921    -0.028    28.694     8.784
    15   6 C        2.917    -0.064    29.597     8.921
    16   6 C        2.866     0.140    24.951     8.188
    17   8 O        1.705    -0.274    18.543     5.814
    18   6 C        3.643     0.039    20.262     6.471
    19   7 N        2.765    -0.098    23.164     7.148
    20   6 C        2.766     0.275    22.357     7.744
    21   6 C        2.982    -0.007    28.181     8.708
    22   6 C        2.922    -0.028    28.705     8.786
    23   6 C        2.924    -0.026    28.643     8.777
    24   6 C        3.052    -0.033    28.768     8.796
    25   6 C        2.960     0.058    26.704     8.476
    26  53 I        1.236    -0.127   381.399    33.713
    27   6 C        3.063    -0.026    28.589     8.768
    28   8 O        0.859    -0.426    22.214     6.319
    29   6 C        3.783     0.101    18.942     6.200
    30   6 C        2.689     0.383    20.512     7.412
    31   8 O        1.660    -0.344    19.795     6.006
    32   8 O        0.856    -0.412    21.932     6.279
    33   7 N        2.759    -0.099    23.179     7.151
    34   6 C        2.774     0.277    22.311     7.736
    35   6 C        2.978    -0.005    28.142     8.702
    36   6 C        3.063    -0.033    28.749     8.793
    37   6 C        2.959     0.058    26.696     8.475
    38  53 I        1.237    -0.124   381.175    33.703
    39   6 C        3.052    -0.031    28.722     8.789
    40   6 C        2.922    -0.027    28.669     8.781
    41   6 C        2.925    -0.020    28.501     8.755
    42   8 O        0.862    -0.426    22.207     6.318
    43   1 H        0.924     0.040     2.450     2.448
    44   1 H        0.924     0.039     2.467     2.456
    45   1 H        0.925     0.088     1.899     2.155
    46   1 H        0.926     0.042     2.423     2.434
    47   1 H        0.926     0.043     2.406     2.426
    48   1 H        0.926     0.049     2.328     2.386
    49   1 H        0.926     0.042     2.424     2.435
    50   1 H        0.923     0.058     2.226     2.333
    51   1 H        0.924     0.058     2.225     2.333
    52   1 H        0.926     0.033     2.544     2.494
    53   1 H        0.926     0.042     2.418     2.431
    54   1 H        0.926     0.051     2.303     2.373
    55   1 H        0.926     0.049     2.334     2.389
    56   1 H        0.924     0.045     2.378     2.411
    57   1 H        0.924     0.044     2.401     2.423
    58   1 H        0.925     0.066     2.128     2.281
    59   1 H        0.926     0.050     2.319     2.381
    60   1 H        0.926     0.048     2.341     2.393
    61   1 H        0.926     0.054     2.269     2.356
    62   1 H        0.926     0.051     2.302     2.372
    63   1 H        0.923     0.076     2.025     2.226
    64   1 H        0.805     0.344     0.603     1.220
    65   1 H        0.926     0.051     2.303     2.373
    66   1 H        0.926     0.056     2.245     2.343
    67   1 H        0.926     0.050     2.320     2.382
    68   1 H        0.926     0.063     2.169     2.303

Wiberg/Mayer (AO) data.
largest (>0.10) Wiberg bond orders for each atom

     #   Z sym  total        # sym  WBO       # sym  WBO       # sym  WBO
 ---------------------------------------------------------------------------
     1   6 C    3.937 --     4 C    1.377     8 C    1.311     2 O    1.078
     2   8 O    2.254 --     1 C    1.078     3 C    0.975
     3   6 C    3.936 --    43 H    0.977    44 H    0.976     2 O    0.975
                            45 H    0.975
     4   6 C    3.987 --     5 C    1.435     1 C    1.377    46 H    0.966
                             7 C    0.101
     5   6 C    3.990 --     6 C    1.442     4 C    1.435    47 H    0.970
                             8 C    0.105
     6   6 C    3.990 --     5 C    1.442     7 C    1.424    48 H    0.970
     7   6 C    3.988 --     8 C    1.436     6 C    1.424    49 H    0.967
                             4 C    0.101
     8   6 C    3.981 --     7 C    1.436     1 C    1.311     9 C    0.999
                             5 C    0.105
     9   6 C    3.966 --     8 C    0.999    33 N    0.961    50 H    0.951
                            10 C    0.943
    10   6 C    3.968 --    11 C    0.994    19 N    0.964    51 H    0.950
                             9 C    0.943
    11   6 C    3.982 --    12 C    1.435    16 C    1.319    10 C    0.994
                            14 C    0.105
    12   6 C    3.989 --    11 C    1.435    13 C    1.427    52 H    0.968
                            15 C    0.102
    13   6 C    3.991 --    14 C    1.441    12 C    1.427    53 H    0.970
    14   6 C    3.989 --    13 C    1.441    15 C    1.435    54 H    0.970
                            11 C    0.105
    15   6 C    3.987 --    14 C    1.435    16 C    1.381    55 H    0.965
                            12 C    0.102
    16   6 C    3.936 --    15 C    1.381    11 C    1.319    17 O    1.065
    17   8 O    2.233 --    16 C    1.065    18 C    0.979
    18   6 C    3.941 --    17 O    0.979    58 H    0.979    56 H    0.976
                            57 H    0.976
    19   7 N    3.486 --    20 C    1.232    29 C    0.976    10 C    0.964
                            28 O    0.198
    20   6 C    3.947 --    28 O    1.678    19 N    1.232    21 C    0.952
    21   6 C    3.988 --    22 C    1.405    27 C    1.404    20 C    0.952
                            24 C    0.109
    22   6 C    3.991 --    23 C    1.441    21 C    1.405    59 H    0.968
                            25 C    0.102
    23   6 C    3.991 --    22 C    1.441    24 C    1.433    60 H    0.967
                            27 C    0.109
    24   6 C    3.990 --    23 C    1.433    25 C    1.423    61 H    0.969
                            21 C    0.109
    25   6 C    3.953 --    27 C    1.430    24 C    1.423    26 I    0.962
                            22 C    0.102
    26  53 I    1.074 --    25 C    0.962
    27   6 C    3.989 --    25 C    1.430    21 C    1.404    62 H    0.967
                            23 C    0.109
    28   8 O    2.016 --    20 C    1.678    19 N    0.198
    29   6 C    3.956 --    33 N    0.977    19 N    0.976    63 H    0.943
                            30 C    0.906
    30   6 C    3.925 --    32 O    1.742    31 O    1.169    29 C    0.906
    31   8 O    2.232 --    30 C    1.169    64 H    0.857    32 O    0.173
    32   8 O    2.035 --    30 C    1.742    31 O    0.173
    33   7 N    3.483 --    34 C    1.236    29 C    0.977     9 C    0.961
                            42 O    0.189
    34   6 C    3.944 --    42 O    1.635    33 N    1.236    35 C    0.982
    35   6 C    3.988 --    41 C    1.397    36 C    1.391    34 C    0.982
                            39 C    0.106
    36   6 C    3.990 --    37 C    1.433    35 C    1.391    65 H    0.967
                            40 C    0.107
    37   6 C    3.954 --    36 C    1.433    39 C    1.420    38 I    0.964
    38  53 I    1.075 --    37 C    0.964
    39   6 C    3.989 --    40 C    1.432    37 C    1.420    66 H    0.969
                            35 C    0.106
    40   6 C    3.991 --    41 C    1.444    39 C    1.432    67 H    0.967
                            36 C    0.107
    41   6 C    3.988 --    40 C    1.444    35 C    1.397    68 H    0.965
    42   8 O    2.044 --    34 C    1.635    33 N    0.189
    43   1 H    0.998 --     3 C    0.977
    44   1 H    0.998 --     3 C    0.976
    45   1 H    0.992 --     3 C    0.975
    46   1 H    0.998 --     4 C    0.966
    47   1 H    0.998 --     5 C    0.970
    48   1 H    0.997 --     6 C    0.970
    49   1 H    0.998 --     7 C    0.967
    50   1 H    0.996 --     9 C    0.951
    51   1 H    0.996 --    10 C    0.950
    52   1 H    0.998 --    12 C    0.968
    53   1 H    0.998 --    13 C    0.970
    54   1 H    0.997 --    14 C    0.970
    55   1 H    0.997 --    15 C    0.965
    56   1 H    0.998 --    18 C    0.976
    57   1 H    0.998 --    18 C    0.976
    58   1 H    0.995 --    18 C    0.979
    59   1 H    0.996 --    22 C    0.968
    60   1 H    0.997 --    23 C    0.967
    61   1 H    0.997 --    24 C    0.969
    62   1 H    0.997 --    27 C    0.967
    63   1 H    0.993 --    29 C    0.943
    64   1 H    0.881 --    31 O    0.857
    65   1 H    0.997 --    36 C    0.967
    66   1 H    0.996 --    39 C    0.969
    67   1 H    0.997 --    40 C    0.967
    68   1 H    0.995 --    41 C    0.965
 ---------------------------------------------------------------------------

molecular dipole:
                 x           y           z       tot (Debye)
 q only:       -1.396       1.665      -0.029
   full:       -1.985       0.821       0.673       5.721

           -------------------------------------------------
          | TOTAL ENERGY             -119.712254519396 Eh   |
          | GRADIENT NORM               0.000556236963 Eh/Î± |
          | HOMO-LUMO GAP               3.169499342332 eV   |
           -------------------------------------------------

 * finished run on 2022/03/16 at 22:31:39.730
