   * xtb version 6.3.3 (4ae9cef) compiled by 'conda@95abc7406d43' on 2020-10-14
          program call               : xtb acid_230.xyz --opt --chrg 0 --uhf 0 --gfn 2
          number of atoms            :                    82
          number of electrons        :                   238
          charge                     :                     0
          spin                       :                   0.0

   ID    Z sym.   atoms
    1    6 C      1, 3-16, 18, 20-28, 31, 32, 36-44
    2    8 O      2, 17, 30, 33, 34, 46
    3    7 N      19, 35
    4   16 S      29, 45
    5    1 H      47-82

          :  Hamiltonian                  GFN2-xTB          :
 * total energy  :  -132.2493869 Eh     change       -0.1636380E-08 Eh
 * total energy  :  -132.2641567 Eh     change       -0.1476980E-01 Eh
 * total energy  :  -132.2703449 Eh     change       -0.6188190E-02 Eh
 * total energy  :  -132.2730010 Eh     change       -0.2656143E-02 Eh
 * total energy  :  -132.2748864 Eh     change       -0.1885332E-02 Eh
 * total energy  :  -132.2761013 Eh     change       -0.1214946E-02 Eh
 * total energy  :  -132.2770194 Eh     change       -0.9180762E-03 Eh
 * total energy  :  -132.2777096 Eh     change       -0.6901662E-03 Eh
 * total energy  :  -132.2782069 Eh     change       -0.4973394E-03 Eh
 * total energy  :  -132.2785428 Eh     change       -0.3359228E-03 Eh
 * total energy  :  -132.2878993 Eh     change       -0.2711376E-04 Eh
 * total energy  :  -132.2879182 Eh     change       -0.1893822E-04 Eh
 * total energy  :  -132.2879339 Eh     change       -0.1567252E-04 Eh
 * total energy  :  -132.2879490 Eh     change       -0.1511949E-04 Eh
 * total energy  :  -132.2879643 Eh     change       -0.1529876E-04 Eh
 * total energy  :  -132.2879768 Eh     change       -0.1243780E-04 Eh
 * total energy  :  -132.2879868 Eh     change       -0.1001797E-04 Eh
 * total energy  :  -132.2879967 Eh     change       -0.9916986E-05 Eh
 * total energy  :  -132.2880005 Eh     change       -0.3828447E-05 Eh
   *** GEOMETRY OPTIMIZATION CONVERGED AFTER 94 ITERATIONS ***

 final structure:
================
82
 xtb: 6.3.3 (4ae9cef)
C        -1.69604772928297   -0.75609610612082   -1.48828605007435
O        -0.64578304930508    0.00659116759352   -1.89041338707855
C        -0.57868959845489    0.42847089085190   -3.23093151207136
C        -2.70088345063703   -1.22107286037488   -2.32821814231261
C        -3.73212333700782   -1.99336520925861   -1.82232096260182
C        -3.77344962807822   -2.31489413037472   -0.47934590492667
C        -2.78041000364371   -1.84515992225497    0.36204599991430
C        -1.74657784981494   -1.06121883648333   -0.11849413822100
C        -0.66645154576860   -0.57816585474879    0.80569084853538
C         0.70241581976270   -1.23894002533720    0.46605691320289
C         1.01000907960580   -2.39918352287604    1.37458847348690
C         1.85624761277654   -2.28876932048216    2.46146739448317
C         2.10203204083218   -3.37563598498662    3.28555996182630
C         1.49420901802480   -4.58557848703883    3.01650084089152
C         0.65170358604784   -4.72104739237881    1.92460000366120
C         0.40503054091800   -3.63526182842179    1.09514561686787
O        -0.39864724428356   -3.66776416633199   -0.00487296766464
C        -1.03263197059254   -4.87427292468418   -0.34809186523726
N         1.67127663508216   -0.15552957502982    0.55038330970781
C         2.83181348091954   -0.29283738568099   -0.15524433683013
C         3.79544508766537    0.80746685007757   -0.23639891957628
C         4.89664525089436    0.73291483367429   -1.05232200933984
C         5.72306379608697    1.87111363984804   -1.00430966683200
C         6.99008922120708    2.06397993286012   -1.77826195266767
C         7.38274300675940    3.54075424087709   -1.79902841675612
C         7.32892596726831    4.12490589463290   -0.38901658933566
C         5.88815095355656    4.13707953067227    0.12594106172233
C         5.25481299334326    2.81485994951862   -0.13471155196389
S         3.78844848859251    2.31583816928961    0.62939184319470
O         3.08013409411109   -1.35389019611106   -0.70614497941106
C         1.02258503207215    1.02776224219208    1.04618438529303
C         1.17134698281484    1.16283779478929    2.57249166775653
O         2.44621625568881    1.15791868320042    2.95477932649740
O         0.25152107197552    1.25524102203518    3.33540022563738
N        -0.37085968380732    0.84377346438362    0.73677275469227
C        -1.07956561502764    1.88011967955790    0.20710588622359
C        -2.52526749983876    1.65082644863251    0.08606608791190
C        -3.37173327553173    1.10549451825602    1.00495713432881
C        -4.70733376806964    1.02842757779255    0.55152259349941
C        -4.86068543932827    1.52922731329510   -0.70738209594293
C        -6.12912379297889    1.52553666329404   -1.48772649542050
C        -7.30823113076083    1.25346738831721   -0.55158058993524
C        -6.99086123750014    0.08061088387516    0.37306890357453
C        -5.85214970516535    0.44946731753720    1.32221923500980
S        -3.36974567414596    2.13285899306711   -1.34626156357737
O        -0.54265054509057    2.93298442065782   -0.08418729949477
H         0.31308305193843    1.04978666665937   -3.29456811067536
H        -0.47861867386131   -0.42074231923890   -3.91432187419961
H        -1.45438205221608    1.02521848456472   -3.50437936884374
H        -2.68738036915811   -0.98300650232058   -3.37981455618698
H        -4.50448677738358   -2.34568536672257   -2.49037570751026
H        -4.57400555390227   -2.92341956008383   -0.08710577173266
H        -2.80658162577024   -2.08682324880460    1.41457022269821
H        -0.93366751010067   -0.83061640207684    1.84190273659176
H         0.69800919163101   -1.61351707793277   -0.56407518937576
H         2.34633264278068   -1.34746321595589    2.65521607771518
H         2.76762893027247   -3.27499576822765    4.12910876159014
H         1.67691614186920   -5.43961353490408    3.65169005913637
H         0.19887397676838   -5.67958863131932    1.72586681175131
H        -1.62522538314414   -4.64784186084467   -1.23331165367803
H        -1.69817948473720   -5.21999758219664    0.44949064120858
H        -0.30666495977141   -5.65869854063147   -0.58470652808138
H         5.08534277337488   -0.12939373752461   -1.66617971555746
H         6.86386421392064    1.68599936968628   -2.79491133878842
H         7.78564748459170    1.47714948967686   -1.30765137422464
H         8.38703592682674    3.64930454365501   -2.21212597274728
H         6.69220438074438    4.09145003495525   -2.44124266629196
H         7.72672654938704    5.14094830130553   -0.38498198604989
H         7.94712204092557    3.51691995947910    0.27472680459705
H         5.31741640780012    4.91735866925909   -0.38906436227039
H         5.86091676714898    4.36832113834185    1.19320648663472
H         1.37675602557584    1.95463554957239    0.57486541081300
H         2.51938477127063    1.26375031743899    3.91805325080177
H        -3.04871847499123    0.77922720029709    1.97707835584620
H        -6.07456261620365    0.74105881486826   -2.25057188778369
H        -6.26159941362539    2.47659860275218   -2.00806019911286
H        -7.50571106452934    2.14176023642166    0.05159897741919
H        -8.20129073343895    1.04025598081708   -1.14131858536593
H        -6.69241137268658   -0.78015325216442   -0.22907232592287
H        -7.87694586297338   -0.19548236872352    0.94743621859399
H        -6.20341775086502    1.18478386320564    2.05334178061969
H        -5.51437083935618   -0.42933303511088    1.87529450774229

          :  Hamiltonian                  GFN2-xTB          :
         :: total energy            -132.288000522021 Eh    ::
         :: gradient norm              0.000329965694 Eh/a0 ::
         :: HOMO-LUMO gap              3.021858594004 eV    ::
         :: SCC energy              -134.073002655193 Eh    ::
         :: -> dispersion             -0.122031467693 Eh    ::
         :: repulsion energy           1.781303136273 Eh    ::

    * Orbital Energies and Occupations

         #    Occupation            Energy/Eh            Energy/eV
      -------------------------------------------------------------
         1        2.0000           -0.7616787             -20.7263
       ...           ...                  ...                  ...
       107        2.0000           -0.4235318             -11.5249
       108        2.0000           -0.4112870             -11.1917
       109        2.0000           -0.4036325             -10.9834
       110        2.0000           -0.3958917             -10.7728
       111        2.0000           -0.3919416             -10.6653
       112        2.0000           -0.3899932             -10.6123
       113        2.0000           -0.3872013             -10.5363
       114        2.0000           -0.3860336             -10.5045
       115        2.0000           -0.3842670             -10.4564
       116        2.0000           -0.3820912             -10.3972
       117        2.0000           -0.3771037             -10.2615
       118        2.0000           -0.3756081             -10.2208
       119        2.0000           -0.3709662             -10.0945 (HOMO)
       120                         -0.2599150              -7.0726 (LUMO)
       121                         -0.2530028              -6.8846
       122                         -0.2505109              -6.8167
       123                         -0.2321237              -6.3164
       124                         -0.2227924              -6.0625
       125                         -0.2183904              -5.9427
       126                         -0.2134604              -5.8086
       127                         -0.2028535              -5.5199
       128                         -0.1975043              -5.3744
       129                         -0.1892761              -5.1505
       130                         -0.1854957              -5.0476
       ...                                ...                  ...
       230                          0.6845249              18.6269
      -------------------------------------------------------------
                  HL-Gap            0.1110513 Eh            3.0219 eV

     #   Z          covCN         q      C6AA      Î±(0)
     1   6 C        2.868     0.145    24.840     8.170
     2   8 O        1.705    -0.268    18.445     5.799
     3   6 C        3.643     0.040    20.243     6.468
     4   6 C        2.917    -0.065    29.623     8.925
     5   6 C        2.921    -0.033    28.816     8.803
     6   6 C        2.917    -0.041    29.025     8.835
     7   6 C        2.925    -0.029    28.732     8.790
     8   6 C        2.971    -0.014    28.349     8.734
     9   6 C        3.830     0.046    19.777     6.328
    10   6 C        3.841     0.046    19.777     6.326
    11   6 C        2.971    -0.013    28.336     8.732
    12   6 C        2.923    -0.032    28.803     8.801
    13   6 C        2.918    -0.041    29.016     8.833
    14   6 C        2.921    -0.032    28.809     8.802
    15   6 C        2.917    -0.066    29.646     8.929
    16   6 C        2.869     0.140    24.950     8.188
    17   8 O        1.705    -0.274    18.539     5.813
    18   6 C        3.643     0.038    20.267     6.472
    19   7 N        2.756    -0.114    23.475     7.196
    20   6 C        2.775     0.268    22.472     7.764
    21   6 C        2.981    -0.018    28.445     8.749
    22   6 C        3.124    -0.041    28.817     8.791
    23   6 C        3.151    -0.010    27.972     8.651
    24   6 C        3.808    -0.057    21.589     6.614
    25   6 C        3.807    -0.058    21.608     6.617
    26   6 C        3.808    -0.057    21.587     6.614
    27   6 C        3.824    -0.057    21.586     6.612
    28   6 C        3.000     0.024    27.463     8.596
    29  16 S        2.321    -0.054   143.274    20.146
    30   8 O        0.861    -0.442    22.545     6.366
    31   6 C        3.790     0.088    19.127     6.228
    32   6 C        2.690     0.354    20.994     7.499
    33   8 O        1.659    -0.358    20.051     6.045
    34   8 O        0.856    -0.385    21.389     6.201
    35   7 N        2.766    -0.111    23.426     7.189
    36   6 C        2.789     0.279    22.285     7.733
    37   6 C        2.993    -0.012    28.299     8.726
    38   6 C        3.113    -0.054    29.166     8.847
    39   6 C        3.158    -0.011    27.966     8.646
    40   6 C        2.999     0.015    27.673     8.629
    41   6 C        3.823    -0.058    21.590     6.612
    42   6 C        3.808    -0.057    21.596     6.615
    43   6 C        3.807    -0.058    21.610     6.618
    44   6 C        3.808    -0.056    21.579     6.613
    45  16 S        2.335    -0.021   141.908    20.050
    46   8 O        0.859    -0.438    22.453     6.353
    47   1 H        0.925     0.066     2.128     2.281
    48   1 H        0.924     0.042     2.420     2.433
    49   1 H        0.924     0.047     2.361     2.403
    50   1 H        0.926     0.041     2.430     2.438
    51   1 H        0.926     0.035     2.516     2.481
    52   1 H        0.926     0.035     2.518     2.481
    53   1 H        0.926     0.035     2.511     2.478
    54   1 H        0.923     0.049     2.332     2.388
    55   1 H        0.924     0.090     1.878     2.143
    56   1 H        0.926     0.038     2.471     2.458
    57   1 H        0.926     0.036     2.500     2.473
    58   1 H        0.926     0.037     2.487     2.466
    59   1 H        0.926     0.038     2.470     2.458
    60   1 H        0.925     0.061     2.188     2.313
    61   1 H        0.924     0.040     2.448     2.447
    62   1 H        0.924     0.046     2.376     2.411
    63   1 H        0.926     0.061     2.189     2.314
    64   1 H        0.924     0.043     2.405     2.425
    65   1 H        0.924     0.044     2.398     2.422
    66   1 H        0.924     0.034     2.536     2.491
    67   1 H        0.924     0.038     2.478     2.462
    68   1 H        0.924     0.035     2.511     2.478
    69   1 H        0.924     0.039     2.465     2.455
    70   1 H        0.924     0.051     2.305     2.374
    71   1 H        0.924     0.047     2.358     2.402
    72   1 H        0.923     0.110     1.695     2.036
    73   1 H        0.804     0.341     0.609     1.226
    74   1 H        0.926     0.042     2.420     2.433
    75   1 H        0.924     0.047     2.358     2.401
    76   1 H        0.924     0.048     2.339     2.392
    77   1 H        0.924     0.040     2.443     2.444
    78   1 H        0.924     0.035     2.512     2.479
    79   1 H        0.924     0.037     2.490     2.468
    80   1 H        0.924     0.034     2.532     2.489
    81   1 H        0.924     0.045     2.390     2.418
    82   1 H        0.924     0.040     2.444     2.445

Wiberg/Mayer (AO) data.
largest (>0.10) Wiberg bond orders for each atom

     #   Z sym  total        # sym  WBO       # sym  WBO       # sym  WBO
 ---------------------------------------------------------------------------
     1   6 C    3.936 --     4 C    1.377     8 C    1.317     2 O    1.071
     2   8 O    2.245 --     1 C    1.071     3 C    0.979
     3   6 C    3.941 --     2 O    0.979    47 H    0.979    48 H    0.976
                            49 H    0.975
     4   6 C    3.987 --     5 C    1.436     1 C    1.377    50 H    0.965
                             7 C    0.100
     5   6 C    3.990 --     6 C    1.440     4 C    1.436    51 H    0.971
                             8 C    0.106
     6   6 C    3.991 --     5 C    1.440     7 C    1.425    52 H    0.971
     7   6 C    3.988 --     8 C    1.435     6 C    1.425    53 H    0.968
                             4 C    0.100
     8   6 C    3.984 --     7 C    1.435     1 C    1.317     9 C    1.001
                             5 C    0.106
     9   6 C    3.967 --     8 C    1.001    35 N    0.963    54 H    0.955
                            10 C    0.938
    10   6 C    3.961 --    11 C    0.994    19 N    0.966    55 H    0.942
                             9 C    0.938
    11   6 C    3.983 --    12 C    1.446    16 C    1.316    10 C    0.994
                            14 C    0.106
    12   6 C    3.989 --    11 C    1.446    13 C    1.418    56 H    0.965
                            15 C    0.101
    13   6 C    3.991 --    14 C    1.450    12 C    1.418    57 H    0.971
    14   6 C    3.990 --    13 C    1.450    15 C    1.428    58 H    0.971
                            11 C    0.106
    15   6 C    3.987 --    14 C    1.428    16 C    1.387    59 H    0.966
                            12 C    0.101
    16   6 C    3.933 --    15 C    1.387    11 C    1.316    17 O    1.060
    17   8 O    2.233 --    16 C    1.060    18 C    0.984
    18   6 C    3.945 --    17 O    0.984    60 H    0.979    61 H    0.976
                            62 H    0.976
    19   7 N    3.455 --    20 C    1.183    31 C    0.985    10 C    0.966
                            30 O    0.175
    20   6 C    3.951 --    30 O    1.634    19 N    1.183    21 C    1.049
    21   6 C    3.939 --    22 C    1.531    29 S    1.130    20 C    1.049
                            28 C    0.104
    22   6 C    3.985 --    21 C    1.531    23 C    1.285    63 H    0.961
                            29 S    0.103
    23   6 C    3.984 --    28 C    1.535    22 C    1.285    24 C    1.007
    24   6 C    3.997 --    23 C    1.007    25 C    1.006    64 H    0.969
                            65 H    0.961
    25   6 C    3.997 --    26 C    1.009    24 C    1.006    67 H    0.978
                            66 H    0.978
    26   6 C    3.997 --    25 C    1.009    27 C    1.000    69 H    0.978
                            68 H    0.977
    27   6 C    3.996 --    28 C    1.026    26 C    1.000    71 H    0.966
                            70 H    0.956
    28   6 C    3.948 --    23 C    1.535    29 S    1.172    27 C    1.026
                            21 C    0.104
    29  16 S    2.635 --    28 C    1.172    21 C    1.130    22 C    0.103
    30   8 O    1.990 --    20 C    1.634    19 N    0.175
    31   6 C    3.967 --    35 N    0.988    19 N    0.985    32 C    0.916
                            72 H    0.914
    32   6 C    3.917 --    34 O    1.784    33 O    1.149    31 C    0.916
    33   8 O    2.226 --    32 C    1.149    73 H    0.856    34 O    0.180
    34   8 O    2.059 --    32 C    1.784    33 O    0.180
    35   7 N    3.460 --    36 C    1.189    31 C    0.988     9 C    0.963
                            46 O    0.181
    36   6 C    3.948 --    46 O    1.658    35 N    1.189    37 C    1.016
    37   6 C    3.947 --    38 C    1.564    45 S    1.141    36 C    1.016
                            40 C    0.106
    38   6 C    3.986 --    37 C    1.564    39 C    1.262    74 H    0.963
    39   6 C    3.984 --    40 C    1.557    38 C    1.262    44 C    1.007
    40   6 C    3.947 --    39 C    1.557    45 S    1.163    41 C    1.026
                            37 C    0.106
    41   6 C    3.996 --    40 C    1.026    42 C    1.000    76 H    0.966
                            75 H    0.957
    42   6 C    3.997 --    43 C    1.009    41 C    1.000    77 H    0.978
                            78 H    0.977
    43   6 C    3.997 --    42 C    1.009    44 C    1.006    80 H    0.978
                            79 H    0.978
    44   6 C    3.997 --    39 C    1.007    43 C    1.006    82 H    0.969
                            81 H    0.961
    45  16 S    2.603 --    40 C    1.163    37 C    1.141
    46   8 O    2.001 --    36 C    1.658    35 N    0.181
    47   1 H    0.995 --     3 C    0.979
    48   1 H    0.998 --     3 C    0.976
    49   1 H    0.998 --     3 C    0.975
    50   1 H    0.998 --     4 C    0.965
    51   1 H    0.998 --     5 C    0.971
    52   1 H    0.998 --     6 C    0.971
    53   1 H    0.998 --     7 C    0.968
    54   1 H    0.997 --     9 C    0.955
    55   1 H    0.991 --    10 C    0.942
    56   1 H    0.998 --    12 C    0.965
    57   1 H    0.998 --    13 C    0.971
    58   1 H    0.998 --    14 C    0.971
    59   1 H    0.998 --    15 C    0.966
    60   1 H    0.996 --    18 C    0.979
    61   1 H    0.998 --    18 C    0.976
    62   1 H    0.998 --    18 C    0.976
    63   1 H    0.996 --    22 C    0.961
    64   1 H    0.998 --    24 C    0.969
    65   1 H    0.998 --    24 C    0.961
    66   1 H    0.998 --    25 C    0.978
    67   1 H    0.999 --    25 C    0.978
    68   1 H    0.998 --    26 C    0.977
    69   1 H    0.998 --    26 C    0.978
    70   1 H    0.995 --    27 C    0.956
    71   1 H    0.997 --    27 C    0.966
    72   1 H    0.987 --    31 C    0.914
    73   1 H    0.883 --    33 O    0.856
    74   1 H    0.998 --    38 C    0.963
    75   1 H    0.997 --    41 C    0.957
    76   1 H    0.997 --    41 C    0.966
    77   1 H    0.998 --    42 C    0.978
    78   1 H    0.998 --    42 C    0.977
    79   1 H    0.999 --    43 C    0.978
    80   1 H    0.998 --    43 C    0.978
    81   1 H    0.998 --    44 C    0.961
    82   1 H    0.998 --    44 C    0.969
 ---------------------------------------------------------------------------

molecular dipole:
                 x           y           z       tot (Debye)
 q only:       -0.670      -0.694      -0.139
   full:       -0.530      -0.937       0.056       2.741

           -------------------------------------------------
          | TOTAL ENERGY             -132.288000522021 Eh   |
          | GRADIENT NORM               0.000329965694 Eh/Î± |
          | HOMO-LUMO GAP               3.021858594004 eV   |
           -------------------------------------------------

 * finished run on 2022/03/16 at 22:46:13.381
