   * xtb version 6.3.3 (4ae9cef) compiled by 'conda@95abc7406d43' on 2020-10-14
          program call               : xtb acid_94.xyz --opt --chrg 0 --uhf 0 --gfn 2
          number of atoms            :                    84
          number of electrons        :                   310
          charge                     :                     0
          spin                       :                   0.0

   ID    Z sym.   atoms
    1    6 C      1-22, 24-28, 32-34, 38, 40, 41, 45-49, 53-55, 59
    2    7 N      23, 44
    3    9 F      29-31, 35-37, 50-52, 56-58
    4    8 O      39, 42, 43, 60
    5    1 H      61-84

          :  Hamiltonian                  GFN2-xTB          :
 * total energy  :  -181.1480677 Eh     change       -0.3416858E-08 Eh
 * total energy  :  -181.1692504 Eh     change       -0.2118276E-01 Eh
 * total energy  :  -181.1752845 Eh     change       -0.6034062E-02 Eh
 * total energy  :  -181.1768023 Eh     change       -0.1517769E-02 Eh
 * total energy  :  -181.1780014 Eh     change       -0.1199180E-02 Eh
 * total energy  :  -181.1786226 Eh     change       -0.6211167E-03 Eh
 * total energy  :  -181.1791494 Eh     change       -0.5268864E-03 Eh
 * total energy  :  -181.1796629 Eh     change       -0.5134552E-03 Eh
 * total energy  :  -181.1801159 Eh     change       -0.4529535E-03 Eh
 * total energy  :  -181.1805158 Eh     change       -0.3999815E-03 Eh
 * total energy  :  -181.1882834 Eh     change       -0.2243389E-04 Eh
 * total energy  :  -181.1883034 Eh     change       -0.1998657E-04 Eh
 * total energy  :  -181.1883197 Eh     change       -0.1629742E-04 Eh
 * total energy  :  -181.1883331 Eh     change       -0.1342785E-04 Eh
 * total energy  :  -181.1883462 Eh     change       -0.1305590E-04 Eh
 * total energy  :  -181.1883594 Eh     change       -0.1324894E-04 Eh
 * total energy  :  -181.1883663 Eh     change       -0.6865099E-05 Eh
 * total energy  :  -181.1883788 Eh     change       -0.1245565E-04 Eh
 * total energy  :  -181.1883836 Eh     change       -0.4811666E-05 Eh
   *** GEOMETRY OPTIMIZATION CONVERGED AFTER 96 ITERATIONS ***

 final structure:
================
84
 xtb: 6.3.3 (4ae9cef)
C        -0.00904310549615   -0.45651857881640    3.69141858140828
C        -0.20762925224585   -0.54367938712293    5.04037697180137
C        -1.06090756655421    0.35532183286089    5.71118360132733
C        -1.27963254401175    0.29076296446743    7.10285930204442
C        -2.11243861566302    1.18302582554653    7.71762704910380
C        -2.76413971988528    2.17851126562176    6.97115762352274
C        -2.57482744471544    2.26614690934273    5.62080972610255
C        -1.72080132306248    1.36053550239868    4.95671758809063
C        -1.50004678594093    1.42386686142105    3.56735366713225
C        -0.65914173544838    0.54054392547238    2.93663129160679
C        -0.51262740995846    0.64334442376519    1.43643093971939
C         0.81120505681281    0.09431924909361    0.85171480298059
C         1.35035928319306    0.98305752341201   -0.24343451565037
C         0.73112554416474    1.04978388678250   -1.46549687724476
C         1.27462738262890    1.80922582130881   -2.51937972343184
C         0.68213306373590    1.84507848415803   -3.79885622274921
C         1.25933719348765    2.56024951845317   -4.81000751143950
C         2.44725009976727    3.27450625850835   -4.58815021044898
C         3.04224587683849    3.26407053345596   -3.35771214281421
C         2.47628802129261    2.53160032201809   -2.29439208664821
C         3.07153998180169    2.47813645396479   -1.01698872448853
C         2.52550406889268    1.72445581947927   -0.01781551499792
N         0.43729448416215   -1.22152595919594    0.33132702582474
C         1.07312226967489   -1.88824917029005   -0.67225860825615
C         2.49768143361353   -1.47566820838466   -0.88645192472666
C         2.89158513511913   -1.08828425593607   -2.16264136842366
C         4.17775753048468   -0.61982688514467   -2.36944634554515
C         4.61108736205680   -0.14629349968531   -3.73199784438525
F         5.45141749761779   -1.01228528325534   -4.32150408506341
F         3.58872415766706    0.03149967647627   -4.57426412790364
F         5.26615211871642    1.02444853468301   -3.66720147815239
C         5.09696139195867   -0.56956387186043   -1.32869261443882
C         4.70777054745386   -1.01598660143181   -0.07668276480456
C         5.65535952275401   -0.96639287737218    1.09311052456327
F         5.16673985336516   -0.17957560086154    2.07282098842878
F         6.85960922900876   -0.48244701899045    0.78092166855980
F         5.84761849368984   -2.17218988095659    1.64539846192931
C         3.41515847452284   -1.47015994668792    0.15296873078038
O         0.52114712690785   -2.73328060370706   -1.33985312424200
C        -0.97602647401988   -1.46522674805736    0.53902460584987
C        -1.20437607757575   -2.41505806219992    1.75005094819178
O        -2.28364314785424   -2.12380371173780    2.47604137155343
O        -0.49643919463398   -3.34587375157582    1.96970995336839
N        -1.54179107525263   -0.16028359833576    0.76045349388151
C        -2.47299787982069    0.46692235376942   -0.01919715442098
C        -3.21059453230801   -0.39933858984435   -0.99749747736261
C        -3.92828209705645   -1.53205863049008   -0.63568011346112
C        -4.61500014882099   -2.24699142452187   -1.60911715073127
C        -5.39006538788624   -3.46720380453495   -1.17815267278921
F        -6.17741821103302   -3.20323373024111   -0.12339176424148
F        -4.57311230715758   -4.46270638907633   -0.80038031478922
F        -6.17766305264123   -3.95272476494962   -2.14003250004024
C        -4.58024233699363   -1.86534572563140   -2.94139940806164
C        -3.86420578351818   -0.72803899859525   -3.28778638377526
C        -3.83162310009888   -0.26178791495688   -4.72131895138634
F        -4.77217107384144    0.66612915537768   -4.96254811952060
F        -4.03718172940667   -1.25305722302220   -5.59298244624236
F        -2.65527298488260    0.29948929305390   -5.03724054875887
C        -3.19952951429563    0.01525879555942   -2.32513305153443
O        -2.69825819828604    1.65069830572823    0.07574216388348
H         0.64509936096006   -1.16732875097418    3.21036083735927
H         0.29126528505670   -1.31282015722782    5.61042941331566
H        -0.77565521855423   -0.47661822721880    7.67196694870216
H        -2.27577911400993    1.13044652425637    8.78370263607179
H        -3.41753898656471    2.87461722867367    7.47567668831925
H        -3.07349392714762    3.02931437395516    5.04109278758615
H        -2.00783727170554    2.18661470291507    2.99356772587217
H        -0.66687007129274    1.68507390863693    1.13517318916644
H         1.56128792244199    0.00535925774154    1.64281603955685
H        -0.17153857154546    0.48531281980830   -1.65884682677506
H        -0.22725286576372    1.28826997452157   -3.97324793167845
H         0.80550006406206    2.57569212997569   -5.78880705951448
H         2.88959947040596    3.83073079209138   -5.40048468848860
H         3.95950512481825    3.80638203330600   -3.18283152158790
H         3.98003964103435    3.03572261134367   -0.84446207603310
H         2.99663193397699    1.67904057321362    0.95326872320507
H         2.18522562107334   -1.13108518075285   -2.97751947763748
H         6.09377250651645   -0.19069129129393   -1.49540853205892
H         3.13348953273134   -1.81974048769151    1.13490700192132
H        -1.38085143739647   -1.98088153540141   -0.34509025913775
H        -2.63731273603106   -1.24078945176951    2.27469631587735
H        -3.98356164117114   -1.85836800722243    0.39253768962336
H        -5.10286185036378   -2.43759986353684   -3.69265724697185
H        -2.67053516237513    0.91701122393838   -2.59760458531556

          :  Hamiltonian                  GFN2-xTB          :
         :: total energy            -181.188383579630 Eh    ::
         :: gradient norm              0.000550583612 Eh/a0 ::
         :: HOMO-LUMO gap              2.244563236573 eV    ::
         :: SCC energy              -183.242540402720 Eh    ::
         :: -> dispersion             -0.128826082228 Eh    ::
         :: repulsion energy           2.049779089486 Eh    ::

    * Orbital Energies and Occupations

         #    Occupation            Energy/Eh            Energy/eV
      -------------------------------------------------------------
         1        2.0000           -0.9031487             -24.5759
       ...           ...                  ...                  ...
       143        2.0000           -0.4523894             -12.3101
       144        2.0000           -0.4521660             -12.3041
       145        2.0000           -0.4491879             -12.2230
       146        2.0000           -0.4441267             -12.0853
       147        2.0000           -0.4408652             -11.9966
       148        2.0000           -0.4391297             -11.9493
       149        2.0000           -0.4373801             -11.9017
       150        2.0000           -0.4359880             -11.8638
       151        2.0000           -0.4319708             -11.7545
       152        2.0000           -0.4240379             -11.5387
       153        2.0000           -0.4231908             -11.5156
       154        2.0000           -0.4042514             -11.0002
       155        2.0000           -0.4022599             -10.9460 (HOMO)
       156                         -0.3197737              -8.7015 (LUMO)
       157                         -0.3170686              -8.6279
       158                         -0.3105753              -8.4512
       159                         -0.3077982              -8.3756
       160                         -0.2877131              -7.8291
       161                         -0.2854024              -7.7662
       162                         -0.2740642              -7.4577
       163                         -0.2652775              -7.2186
       164                         -0.2574732              -7.0062
       165                         -0.2545461              -6.9266
       166                         -0.2492655              -6.7829
       ...                                ...                  ...
       264                          0.6762564              18.4019
      -------------------------------------------------------------
                  HL-Gap            0.0824862 Eh            2.2446 eV

     #   Z          covCN         q      C6AA      Î±(0)
     1   6 C        2.917    -0.040    29.004     8.831
     2   6 C        2.918    -0.029    28.733     8.790
     3   6 C        2.987     0.016    27.643     8.624
     4   6 C        2.918    -0.032    28.795     8.800
     5   6 C        2.916    -0.025    28.638     8.775
     6   6 C        2.916    -0.026    28.645     8.776
     7   6 C        2.918    -0.034    28.838     8.806
     8   6 C        2.986     0.015    27.666     8.628
     9   6 C        2.925    -0.044    29.103     8.847
    10   6 C        2.967    -0.015    28.372     8.737
    11   6 C        3.843     0.036    19.937     6.352
    12   6 C        3.818     0.031    20.047     6.372
    13   6 C        2.969    -0.014    28.368     8.736
    14   6 C        2.923    -0.042    29.038     8.837
    15   6 C        2.987     0.012    27.740     8.640
    16   6 C        2.918    -0.033    28.833     8.805
    17   6 C        2.916    -0.022    28.543     8.761
    18   6 C        2.916    -0.022    28.547     8.762
    19   6 C        2.918    -0.031    28.778     8.797
    20   6 C        2.988     0.012    27.749     8.641
    21   6 C        2.918    -0.036    28.884     8.813
    22   6 C        2.919    -0.046    29.135     8.851
    23   7 N        2.760    -0.118    23.558     7.209
    24   6 C        2.767     0.278    22.293     7.732
    25   6 C        2.978     0.007    27.854     8.657
    26   6 C        2.924    -0.009    28.234     8.714
    27   6 C        2.978    -0.012    28.315     8.729
    28   6 C        3.336     0.488    17.259     6.579
    29   9 F        0.791    -0.197    11.199     3.953
    30   9 F        0.791    -0.197    11.201     3.953
    31   9 F        0.791    -0.201    11.242     3.961
    32   6 C        2.921    -0.016    28.419     8.742
    33   6 C        2.978    -0.012    28.315     8.729
    34   6 C        3.336     0.488    17.247     6.576
    35   9 F        0.791    -0.206    11.297     3.970
    36   9 F        0.791    -0.194    11.172     3.948
    37   9 F        0.791    -0.196    11.189     3.951
    38   6 C        2.924    -0.016    28.403     8.740
    39   8 O        0.859    -0.401    21.706     6.246
    40   6 C        3.782     0.074    19.368     6.269
    41   6 C        2.685     0.352    21.023     7.504
    42   8 O        1.659    -0.355    19.988     6.035
    43   8 O        0.856    -0.328    20.289     6.039
    44   7 N        2.758    -0.137    23.973     7.272
    45   6 C        2.763     0.272    22.402     7.751
    46   6 C        2.974    -0.003    28.098     8.695
    47   6 C        2.922    -0.021    28.527     8.759
    48   6 C        2.978    -0.008    28.222     8.714
    49   6 C        3.336     0.489    17.247     6.577
    50   9 F        0.791    -0.199    11.224     3.957
    51   9 F        0.791    -0.196    11.198     3.953
    52   9 F        0.791    -0.192    11.156     3.946
    53   6 C        2.920    -0.013    28.342     8.730
    54   6 C        2.977    -0.009    28.232     8.716
    55   6 C        3.336     0.489    17.242     6.576
    56   9 F        0.791    -0.197    11.207     3.954
    57   9 F        0.791    -0.194    11.168     3.948
    58   9 F        0.791    -0.199    11.223     3.957
    59   6 C        2.927    -0.008    28.212     8.711
    60   8 O        0.859    -0.391    21.504     6.217
    61   1 H        0.926     0.035     2.516     2.480
    62   1 H        0.926     0.048     2.341     2.393
    63   1 H        0.926     0.041     2.435     2.440
    64   1 H        0.926     0.040     2.455     2.450
    65   1 H        0.926     0.039     2.462     2.453
    66   1 H        0.926     0.039     2.458     2.452
    67   1 H        0.926     0.046     2.376     2.410
    68   1 H        0.924     0.084     1.938     2.177
    69   1 H        0.924     0.063     2.165     2.301
    70   1 H        0.925     0.019     2.746     2.591
    71   1 H        0.926     0.039     2.456     2.451
    72   1 H        0.926     0.047     2.354     2.399
    73   1 H        0.926     0.045     2.383     2.414
    74   1 H        0.926     0.045     2.386     2.416
    75   1 H        0.926     0.046     2.368     2.407
    76   1 H        0.926     0.035     2.511     2.478
    77   1 H        0.926     0.090     1.882     2.145
    78   1 H        0.926     0.091     1.865     2.136
    79   1 H        0.926     0.080     1.975     2.197
    80   1 H        0.923     0.089     1.893     2.152
    81   1 H        0.804     0.332     0.632     1.249
    82   1 H        0.926     0.074     2.043     2.235
    83   1 H        0.926     0.098     1.806     2.102
    84   1 H        0.926     0.089     1.886     2.148

Wiberg/Mayer (AO) data.
largest (>0.10) Wiberg bond orders for each atom

     #   Z sym  total        # sym  WBO       # sym  WBO       # sym  WBO
 ---------------------------------------------------------------------------
     1   6 C    3.991 --     2 C    1.555    10 C    1.299    61 H    0.963
     2   6 C    3.990 --     1 C    1.555     3 C    1.281    62 H    0.967
                             9 C    0.115
     3   6 C    3.990 --     2 C    1.281     4 C    1.279     8 C    1.249
     4   6 C    3.991 --     5 C    1.559     3 C    1.279    63 H    0.968
                             7 C    0.119
     5   6 C    3.990 --     4 C    1.559     6 C    1.319    64 H    0.970
     6   6 C    3.992 --     7 C    1.560     5 C    1.319    65 H    0.970
     7   6 C    3.990 --     6 C    1.560     8 C    1.276    66 H    0.968
                             4 C    0.119
     8   6 C    3.990 --     9 C    1.287     7 C    1.276     3 C    1.249
     9   6 C    3.989 --    10 C    1.519     8 C    1.287    67 H    0.965
                             2 C    0.115
    10   6 C    3.981 --     9 C    1.519     1 C    1.299    11 C    0.986
    11   6 C    3.949 --    10 C    0.986    12 C    0.958    68 H    0.951
                            44 N    0.940
    12   6 C    3.960 --    13 C    0.988    11 C    0.958    23 N    0.956
                            69 H    0.951
    13   6 C    3.984 --    14 C    1.518    22 C    1.296    12 C    0.988
    14   6 C    3.991 --    13 C    1.518    15 C    1.285    70 H    0.965
                            21 C    0.113
    15   6 C    3.990 --    14 C    1.285    16 C    1.278    20 C    1.246
    16   6 C    3.990 --    17 C    1.557    15 C    1.278    71 H    0.967
                            19 C    0.118
    17   6 C    3.991 --    16 C    1.557    18 C    1.320    72 H    0.970
    18   6 C    3.988 --    19 C    1.556    17 C    1.320    73 H    0.970
    19   6 C    3.991 --    18 C    1.556    20 C    1.281    74 H    0.967
                            16 C    0.118
    20   6 C    3.990 --    19 C    1.281    21 C    1.279    15 C    1.246
    21   6 C    3.990 --    22 C    1.559    20 C    1.279    75 H    0.967
                            14 C    0.113
    22   6 C    3.990 --    21 C    1.559    13 C    1.296    76 H    0.968
    23   7 N    3.453 --    24 C    1.203    40 C    0.978    12 C    0.956
                            39 O    0.192
    24   6 C    3.954 --    39 O    1.705    23 N    1.203    25 C    0.963
    25   6 C    3.987 --    38 C    1.413    26 C    1.394    24 C    0.963
                            32 C    0.109
    26   6 C    3.983 --    27 C    1.430    25 C    1.394    77 H    0.961
                            33 C    0.104
    27   6 C    3.981 --    26 C    1.430    32 C    1.405    28 C    0.949
                            38 C    0.104
    28   6 C    3.837 --    30 F    0.957    27 C    0.949    29 F    0.949
                            31 F    0.948
    29   9 F    1.080 --    28 C    0.949
    30   9 F    1.082 --    28 C    0.957
    31   9 F    1.075 --    28 C    0.948
    32   6 C    3.984 --    33 C    1.425    27 C    1.405    78 H    0.961
                            25 C    0.109
    33   6 C    3.981 --    32 C    1.425    38 C    1.410    34 C    0.949
                            26 C    0.104
    34   6 C    3.837 --    36 F    0.960    37 F    0.953    33 C    0.949
                            35 F    0.940
    35   9 F    1.069 --    34 C    0.940
    36   9 F    1.085 --    34 C    0.960
    37   9 F    1.082 --    34 C    0.953
    38   6 C    3.986 --    25 C    1.413    33 C    1.410    79 H    0.963
                            27 C    0.104
    39   8 O    2.043 --    24 C    1.705    23 N    0.192
    40   6 C    3.959 --    44 N    0.989    23 N    0.978    80 H    0.925
                            41 C    0.898
    41   6 C    3.928 --    43 O    1.823    42 O    1.144    40 C    0.898
    42   8 O    2.223 --    41 C    1.144    81 H    0.849    43 O    0.171
    43   8 O    2.113 --    41 C    1.823    42 O    0.171
    44   7 N    3.453 --    45 C    1.188    40 C    0.989    11 C    0.940
                            60 O    0.189
    45   6 C    3.953 --    60 O    1.717    44 N    1.188    46 C    0.963
    46   6 C    3.986 --    47 C    1.408    59 C    1.399    45 C    0.963
                            53 C    0.107
    47   6 C    3.987 --    48 C    1.415    46 C    1.408    82 H    0.962
                            54 C    0.106
    48   6 C    3.982 --    53 C    1.421    47 C    1.415    49 C    0.947
                            59 C    0.106
    49   6 C    3.839 --    52 F    0.961    51 F    0.949    50 F    0.949
                            48 C    0.947
    50   9 F    1.077 --    49 C    0.949
    51   9 F    1.081 --    49 C    0.949
    52   9 F    1.087 --    49 C    0.961
    53   6 C    3.982 --    48 C    1.421    54 C    1.413    83 H    0.960
                            46 C    0.107
    54   6 C    3.982 --    59 C    1.424    53 C    1.413    55 C    0.947
                            47 C    0.106
    55   6 C    3.839 --    57 F    0.959    58 F    0.951    54 C    0.947
                            56 F    0.947
    56   9 F    1.080 --    55 C    0.947
    57   9 F    1.085 --    55 C    0.959
    58   9 F    1.078 --    55 C    0.951
    59   6 C    3.983 --    54 C    1.424    46 C    1.399    84 H    0.961
                            48 C    0.106
    60   8 O    2.051 --    45 C    1.717    44 N    0.189
    61   1 H    0.998 --     1 C    0.963
    62   1 H    0.997 --     2 C    0.967
    63   1 H    0.998 --     4 C    0.968
    64   1 H    0.998 --     5 C    0.970
    65   1 H    0.998 --     6 C    0.970
    66   1 H    0.998 --     7 C    0.968
    67   1 H    0.997 --     9 C    0.965
    68   1 H    0.992 --    11 C    0.951
    69   1 H    0.995 --    12 C    0.951
    70   1 H    0.999 --    14 C    0.965
    71   1 H    0.998 --    16 C    0.967
    72   1 H    0.997 --    17 C    0.970
    73   1 H    0.998 --    18 C    0.970
    74   1 H    0.998 --    19 C    0.967
    75   1 H    0.997 --    21 C    0.967
    76   1 H    0.998 --    22 C    0.968
    77   1 H    0.991 --    26 C    0.961
    78   1 H    0.991 --    32 C    0.961
    79   1 H    0.993 --    38 C    0.963
    80   1 H    0.992 --    40 C    0.925
    81   1 H    0.890 --    42 O    0.849
    82   1 H    0.994 --    47 C    0.962
    83   1 H    0.990 --    53 C    0.960
    84   1 H    0.992 --    59 C    0.961
 ---------------------------------------------------------------------------

molecular dipole:
                 x           y           z       tot (Debye)
 q only:       -0.227       2.075       1.610
   full:       -0.297       2.211       1.349       6.627

           -------------------------------------------------
          | TOTAL ENERGY             -181.188383579630 Eh   |
          | GRADIENT NORM               0.000550583612 Eh/Î± |
          | HOMO-LUMO GAP               2.244563236573 eV   |
           -------------------------------------------------

 * finished run on 2022/03/17 at 02:16:25.727
