   * xtb version 6.3.3 (4ae9cef) compiled by 'conda@95abc7406d43' on 2020-10-14
          program call               : xtb acid_404.xyz --opt --chrg 0 --uhf 0 --gfn 2
          number of atoms            :                    86
          number of electrons        :                   238
          charge                     :                     0
          spin                       :                   0.0

   ID    Z sym.   atoms
    1    6 C      1, 3-16, 18, 20-29, 31, 32, 36-45
    2    8 O      2, 17, 30, 33, 34, 46
    3    7 N      19, 35
    4    1 H      47-86

          :  Hamiltonian                  GFN2-xTB          :
 * total energy  :  -132.0382639 Eh     change       -0.7313247E-08 Eh
 * total energy  :  -132.0544668 Eh     change       -0.1620288E-01 Eh
 * total energy  :  -132.0596397 Eh     change       -0.5172867E-02 Eh
 * total energy  :  -132.0613033 Eh     change       -0.1663613E-02 Eh
 * total energy  :  -132.0623779 Eh     change       -0.1074647E-02 Eh
 * total energy  :  -132.0631888 Eh     change       -0.8108897E-03 Eh
 * total energy  :  -132.0640016 Eh     change       -0.8127842E-03 Eh
 * total energy  :  -132.0648008 Eh     change       -0.7992269E-03 Eh
 * total energy  :  -132.0656704 Eh     change       -0.8695229E-03 Eh
 * total energy  :  -132.0664933 Eh     change       -0.8229784E-03 Eh
 * total energy  :  -132.0718731 Eh     change       -0.1385495E-04 Eh
 * total energy  :  -132.0718848 Eh     change       -0.1163123E-04 Eh
 * total energy  :  -132.0718994 Eh     change       -0.1464443E-04 Eh
 * total energy  :  -132.0719151 Eh     change       -0.1569040E-04 Eh
 * total energy  :  -132.0719321 Eh     change       -0.1698152E-04 Eh
 * total energy  :  -132.0719427 Eh     change       -0.1064961E-04 Eh
 * total energy  :  -132.0719500 Eh     change       -0.7311436E-05 Eh
 * total energy  :  -132.0719574 Eh     change       -0.7339371E-05 Eh
 * total energy  :  -132.0719604 Eh     change       -0.3043325E-05 Eh
   *** GEOMETRY OPTIMIZATION CONVERGED AFTER 68 ITERATIONS ***

 final structure:
================
86
 xtb: 6.3.3 (4ae9cef)
C         2.53075797942960    2.80599871296962    1.52262492719119
O         2.00978465150086    3.04515355134240    2.75823586024371
C         2.72604363373642    3.86936249218099    3.64538876494378
C         3.68035263042610    3.41062595803131    1.02755115076570
C         4.12593092383741    3.12645747137280   -0.25146146265625
C         3.43027719211216    2.24546007630065   -1.05642471564321
C         2.28582145541461    1.64084429754236   -0.56891390250537
C         1.83255473602502    1.89847979056204    0.71358274923204
C         0.58912360693693    1.24101512308942    1.24025287129474
C        -0.64091208097407    1.55364988876473    0.36221917062266
C        -1.35411977657644    2.82467812973652    0.73349944640986
C        -1.87125377569904    3.03549920338890    2.00101718499582
C        -2.54034317389932    4.20605453449471    2.31575675945273
C        -2.69487389608711    5.18043216165276    1.34931608673978
C        -2.17053914353277    4.99900156241813    0.08150228988248
C        -1.48917101032686    3.82999224972578   -0.23904457162166
O        -0.91546582129465    3.58899937447997   -1.44628835014817
C        -1.11596136045525    4.51052344819317   -2.49016174046291
N        -1.47107556479927    0.34685357226685    0.49961023196393
C        -2.52206561968130    0.12043754374689   -0.34848726038947
C        -3.16970970207739   -1.22225531890687   -0.17543177505542
C        -2.77705061065871   -2.31717804065624   -0.94913494582772
C        -1.72796644660248   -2.13580354755900   -2.02096102013888
C        -0.95915856994118   -3.41584718027248   -2.34068125685031
C        -2.41111436390985   -1.59134454537325   -3.28129931583947
C        -3.42236537494594   -3.52962845796389   -0.74233670929684
C        -4.42994455682614   -3.65399589499300    0.19781129699191
C        -4.83145343455828   -2.55648269997238    0.93750565540547
C        -4.20252213293828   -1.33983925531709    0.74638680189551
O        -2.93282824583116    0.97528389461864   -1.10074423101219
C        -0.74177991938992   -0.67238822543949    1.22600431620939
C        -1.24325696951987   -0.75820930062346    2.70463291628560
O        -2.35052808647756   -0.07408759376013    2.95725005788175
O        -0.67013956516472   -1.39223746984509    3.53914232053408
N         0.62382359742746   -0.22107610704281    1.19085182773653
C         1.76579942584832   -0.96525792407784    1.29130514745149
C         1.63734717556750   -2.39715355902546    0.86624578930355
C         0.92166939342014   -3.30578392073932    1.63973386244962
C         0.81386131347873   -4.62922133044079    1.25286650904230
C         1.42432580447255   -5.05292393811398    0.08542591382347
C         2.15598481797949   -4.15697581002050   -0.67170641725715
C         2.29017968406498   -2.82486614906336   -0.29582990350437
C         3.12313276155236   -1.88845356410196   -1.14012915616461
C         4.55826027170378   -2.40579790585195   -1.26016734625382
C         2.49778684879443   -1.69539979935317   -2.52359687782267
O         2.82325271289432   -0.46368582565056    1.60619851382512
H         2.14832271869571    3.87623392788921    4.56853085600456
H         2.80953915399131    4.89305659604781    3.26572406742559
H         3.72406309515397    3.46872340973385    3.84616042212654
H         4.24145115686259    4.10273218595216    1.63506125446638
H         5.02494576948093    3.60155289180244   -0.61530516338806
H         3.77656548211736    2.02598252778949   -2.05472966287320
H         1.74239816394034    0.94614057687251   -1.19210523214718
H         0.42210758470801    1.57625831522642    2.27084398500382
H        -0.34403960985821    1.64145449532957   -0.68821626648265
H        -1.74354655952377    2.28843337660828    2.76971064174991
H        -2.93700811992130    4.35042411785547    3.30858145732575
H        -3.22137851720365    6.09492275219564    1.57818949264431
H        -2.29713047507615    5.77791691977534   -0.65323920186360
H        -0.66599215861139    5.48221602197983   -2.26155997870475
H        -0.61738160011708    4.08068082275549   -3.35752526806255
H        -2.17957873809846    4.63842920988982   -2.71148122174821
H        -1.00819230011756   -1.38206220807025   -1.67636701621388
H        -0.12062605338568   -3.18608693906060   -2.99292725117822
H        -0.57013409299690   -3.87395893488691   -1.43375836266149
H        -1.59304312545173   -4.13224636859929   -2.85708455667674
H        -3.16950390957995   -2.29011531440178   -3.62802404550495
H        -1.67937663765651   -1.44971551042629   -4.07358177074094
H        -2.88848927995993   -0.63707864143146   -3.07259942809770
H        -3.13903919483009   -4.39300670669584   -1.32226796962272
H        -4.91126373424074   -4.60957321004191    0.34287229502475
H        -5.62918321381221   -2.64308613121256    1.65884723500829
H        -4.52909460087689   -0.47342489822998    1.30386344554308
H        -0.84726148379333   -1.67183097642944    0.78374471930995
H        -2.64207080555657    0.42401174980871    2.16808043175714
H         0.46631465369867   -2.97643389862258    2.56030099486690
H         0.25617480121166   -5.32365013074925    1.86298662912631
H         1.33968175922956   -6.08255604706458   -0.23077233044313
H         2.63660248557313   -4.50419006247560   -1.57392701519978
H         3.17288471636826   -0.91581062808752   -0.64743834222271
H         4.59775018714393   -3.35366383893994   -1.79164223767475
H         4.98514411531453   -2.54348860828655   -0.27003690883297
H         5.16715633640468   -1.68385532100657   -1.79969441127788
H         1.48207174724367   -1.31372237092872   -2.43631582329778
H         3.08416270295765   -0.98372089689645   -3.10078688068258
H         2.46552116613741   -2.63480292765504   -3.07123004591227

          :  Hamiltonian                  GFN2-xTB          :
         :: total energy            -132.071960426692 Eh    ::
         :: gradient norm              0.000425476358 Eh/a0 ::
         :: HOMO-LUMO gap              3.242176814690 eV    ::
         :: SCC energy              -134.010207923209 Eh    ::
         :: -> dispersion             -0.118890374683 Eh    ::
         :: repulsion energy           1.931393351383 Eh    ::

    * Orbital Energies and Occupations

         #    Occupation            Energy/Eh            Energy/eV
      -------------------------------------------------------------
         1        2.0000           -0.7653689             -20.8267
       ...           ...                  ...                  ...
       107        2.0000           -0.4185349             -11.3889
       108        2.0000           -0.4165643             -11.3353
       109        2.0000           -0.4137532             -11.2588
       110        2.0000           -0.4117475             -11.2042
       111        2.0000           -0.4092571             -11.1365
       112        2.0000           -0.4070688             -11.0769
       113        2.0000           -0.4035701             -10.9817
       114        2.0000           -0.4017156             -10.9312
       115        2.0000           -0.3985516             -10.8451
       116        2.0000           -0.3925487             -10.6818
       117        2.0000           -0.3869921             -10.5306
       118        2.0000           -0.3846630             -10.4672
       119        2.0000           -0.3746917             -10.1959 (HOMO)
       120                         -0.2555439              -6.9537 (LUMO)
       121                         -0.2405193              -6.5449
       122                         -0.2366042              -6.4383
       123                         -0.2362743              -6.4294
       124                         -0.2349078              -6.3922
       125                         -0.2312713              -6.2932
       126                         -0.2260508              -6.1512
       127                         -0.2244961              -6.1089
       128                         -0.2210857              -6.0160
       129                         -0.2132945              -5.8040
       130                         -0.2040348              -5.5521
       ...                                ...                  ...
       224                          0.6680836              18.1795
      -------------------------------------------------------------
                  HL-Gap            0.1191478 Eh            3.2422 eV

     #   Z          covCN         q      C6AA      Î±(0)
     1   6 C        2.868     0.147    24.813     8.165
     2   8 O        1.705    -0.270    18.485     5.805
     3   6 C        3.644     0.038    20.279     6.473
     4   6 C        2.918    -0.063    29.566     8.917
     5   6 C        2.921    -0.030    28.743     8.792
     6   6 C        2.918    -0.039    28.958     8.824
     7   6 C        2.925    -0.029    28.721     8.789
     8   6 C        2.972    -0.006    28.167     8.705
     9   6 C        3.842     0.046    19.781     6.327
    10   6 C        3.831     0.040    19.878     6.344
    11   6 C        2.970    -0.019    28.471     8.752
    12   6 C        2.923    -0.042    29.052     8.839
    13   6 C        2.917    -0.041    29.031     8.835
    14   6 C        2.921    -0.030    28.750     8.793
    15   6 C        2.918    -0.064    29.600     8.922
    16   6 C        2.869     0.148    24.789     8.161
    17   8 O        1.705    -0.263    18.353     5.784
    18   6 C        3.644     0.037    20.293     6.475
    19   7 N        2.760    -0.150    24.238     7.312
    20   6 C        2.760     0.270    22.448     7.759
    21   6 C        2.981    -0.035    28.871     8.814
    22   6 C        2.974     0.009    27.803     8.649
    23   6 C        3.854    -0.007    20.669     6.466
    24   6 C        3.755    -0.106    22.585     6.776
    25   6 C        3.758    -0.103    22.528     6.767
    26   6 C        2.924    -0.036    28.887     8.814
    27   6 C        2.919    -0.029    28.715     8.787
    28   6 C        2.919    -0.029    28.731     8.790
    29   6 C        2.923    -0.032    28.806     8.802
    30   8 O        0.859    -0.414    21.959     6.283
    31   6 C        3.774     0.075    19.358     6.269
    32   6 C        2.685     0.344    21.151     7.526
    33   8 O        1.658    -0.356    20.009     6.039
    34   8 O        0.856    -0.352    20.749     6.107
    35   7 N        2.767    -0.124    23.686     7.228
    36   6 C        2.756     0.279    22.283     7.730
    37   6 C        2.977    -0.027    28.671     8.783
    38   6 C        2.921    -0.041    29.012     8.833
    39   6 C        2.919    -0.033    28.827     8.804
    40   6 C        2.917    -0.031    28.785     8.798
    41   6 C        2.926    -0.033    28.833     8.806
    42   6 C        2.974     0.018    27.606     8.618
    43   6 C        3.855    -0.018    20.855     6.495
    44   6 C        3.756    -0.102    22.502     6.764
    45   6 C        3.755    -0.097    22.408     6.750
    46   8 O        0.859    -0.413    21.944     6.281
    47   1 H        0.925     0.063     2.162     2.299
    48   1 H        0.924     0.039     2.459     2.452
    49   1 H        0.924     0.048     2.348     2.396
    50   1 H        0.926     0.040     2.445     2.445
    51   1 H        0.926     0.038     2.476     2.461
    52   1 H        0.926     0.036     2.496     2.471
    53   1 H        0.926     0.038     2.477     2.461
    54   1 H        0.924     0.063     2.165     2.301
    55   1 H        0.924     0.078     2.001     2.212
    56   1 H        0.926     0.043     2.413     2.429
    57   1 H        0.926     0.040     2.450     2.448
    58   1 H        0.926     0.039     2.456     2.451
    59   1 H        0.926     0.041     2.429     2.437
    60   1 H        0.924     0.040     2.445     2.445
    61   1 H        0.925     0.064     2.148     2.292
    62   1 H        0.924     0.049     2.335     2.390
    63   1 H        0.924     0.018     2.758     2.597
    64   1 H        0.925     0.041     2.438     2.442
    65   1 H        0.925     0.034     2.533     2.489
    66   1 H        0.925     0.041     2.442     2.444
    67   1 H        0.925     0.037     2.485     2.465
    68   1 H        0.925     0.040     2.451     2.448
    69   1 H        0.925     0.052     2.289     2.366
    70   1 H        0.926     0.046     2.376     2.410
    71   1 H        0.926     0.039     2.459     2.452
    72   1 H        0.926     0.042     2.425     2.435
    73   1 H        0.926     0.033     2.541     2.493
    74   1 H        0.923     0.070     2.089     2.260
    75   1 H        0.803     0.339     0.614     1.231
    76   1 H        0.926     0.057     2.229     2.335
    77   1 H        0.926     0.035     2.520     2.482
    78   1 H        0.926     0.032     2.553     2.499
    79   1 H        0.926     0.038     2.473     2.459
    80   1 H        0.924     0.048     2.340     2.392
    81   1 H        0.925     0.035     2.512     2.478
    82   1 H        0.925     0.042     2.422     2.434
    83   1 H        0.925     0.037     2.483     2.464
    84   1 H        0.925     0.025     2.656     2.548
    85   1 H        0.925     0.037     2.487     2.466
    86   1 H        0.925     0.035     2.518     2.481

Wiberg/Mayer (AO) data.
largest (>0.10) Wiberg bond orders for each atom

     #   Z sym  total        # sym  WBO       # sym  WBO       # sym  WBO
 ---------------------------------------------------------------------------
     1   6 C    3.935 --     4 C    1.378     8 C    1.326     2 O    1.063
     2   8 O    2.234 --     1 C    1.063     3 C    0.982
     3   6 C    3.944 --     2 O    0.982    47 H    0.979    49 H    0.977
                            48 H    0.976
     4   6 C    3.987 --     5 C    1.438     1 C    1.378    50 H    0.965
                             7 C    0.102
     5   6 C    3.990 --     6 C    1.440     4 C    1.438    51 H    0.971
                             8 C    0.106
     6   6 C    3.991 --     5 C    1.440     7 C    1.428    52 H    0.971
     7   6 C    3.991 --     8 C    1.433     6 C    1.428    53 H    0.964
                             4 C    0.102
     8   6 C    3.983 --     7 C    1.433     1 C    1.326     9 C    0.998
                             5 C    0.106
     9   6 C    3.963 --     8 C    0.998    10 C    0.954    35 N    0.951
                            54 H    0.949
    10   6 C    3.957 --    11 C    0.996     9 C    0.954    55 H    0.947
                            19 N    0.940
    11   6 C    3.982 --    12 C    1.439    16 C    1.318    10 C    0.996
                            14 C    0.105
    12   6 C    3.990 --    11 C    1.439    13 C    1.425    56 H    0.961
                            15 C    0.102
    13   6 C    3.991 --    14 C    1.442    12 C    1.425    57 H    0.971
    14   6 C    3.990 --    13 C    1.442    15 C    1.438    58 H    0.971
                            11 C    0.105
    15   6 C    3.987 --    14 C    1.438    16 C    1.377    59 H    0.965
                            12 C    0.102
    16   6 C    3.936 --    15 C    1.377    11 C    1.318    17 O    1.073
    17   8 O    2.247 --    16 C    1.073    18 C    0.981
    18   6 C    3.943 --    17 O    0.981    61 H    0.979    62 H    0.976
                            60 H    0.976
    19   7 N    3.447 --    20 C    1.182    31 C    0.983    10 C    0.940
                            30 O    0.184
    20   6 C    3.941 --    30 O    1.713    19 N    1.182    21 C    0.953
    21   6 C    3.985 --    29 C    1.412    22 C    1.376    20 C    0.953
                            27 C    0.109
    22   6 C    3.986 --    26 C    1.414    21 C    1.376    23 C    0.999
                            28 C    0.108
    23   6 C    3.996 --    24 C    1.007    22 C    0.999    25 C    0.988
                            63 H    0.959
    24   6 C    3.996 --    23 C    1.007    66 H    0.984    65 H    0.984
                            64 H    0.984
    25   6 C    3.994 --    23 C    0.988    67 H    0.987    68 H    0.984
                            69 H    0.984
    26   6 C    3.991 --    27 C    1.443    22 C    1.414    70 H    0.965
                            29 C    0.109
    27   6 C    3.991 --    26 C    1.443    28 C    1.438    71 H    0.971
                            21 C    0.109
    28   6 C    3.991 --    27 C    1.438    29 C    1.437    72 H    0.970
                            22 C    0.108
    29   6 C    3.991 --    28 C    1.437    21 C    1.412    73 H    0.967
                            26 C    0.109
    30   8 O    2.032 --    20 C    1.713    19 N    0.184
    31   6 C    3.968 --    35 N    0.994    19 N    0.983    74 H    0.932
                            32 C    0.891
    32   6 C    3.923 --    34 O    1.796    33 O    1.168    31 C    0.891
    33   8 O    2.235 --    32 C    1.168    75 H    0.827    34 O    0.173
    34   8 O    2.095 --    32 C    1.796    33 O    0.173
    35   7 N    3.440 --    36 C    1.181    31 C    0.994     9 C    0.951
                            46 O    0.181
    36   6 C    3.938 --    46 O    1.703    35 N    1.181    37 C    0.963
    37   6 C    3.985 --    38 C    1.405    42 C    1.377    36 C    0.963
                            40 C    0.106
    38   6 C    3.989 --    39 C    1.442    37 C    1.405    76 H    0.960
                            41 C    0.109
    39   6 C    3.991 --    38 C    1.442    40 C    1.432    77 H    0.970
                            42 C    0.109
    40   6 C    3.992 --    41 C    1.445    39 C    1.432    78 H    0.971
                            37 C    0.106
    41   6 C    3.991 --    40 C    1.445    42 C    1.412    79 H    0.965
                            38 C    0.109
    42   6 C    3.985 --    41 C    1.412    37 C    1.377    43 C    0.999
                            39 C    0.109
    43   6 C    3.993 --    42 C    0.999    44 C    0.997    45 C    0.996
                            80 H    0.960
    44   6 C    3.996 --    43 C    0.997    82 H    0.987    83 H    0.985
                            81 H    0.985
    45   6 C    3.997 --    43 C    0.996    85 H    0.985    84 H    0.985
                            86 H    0.985
    46   8 O    2.033 --    36 C    1.703    35 N    0.181
    47   1 H    0.996 --     3 C    0.979
    48   1 H    0.998 --     3 C    0.976
    49   1 H    0.998 --     3 C    0.977
    50   1 H    0.998 --     4 C    0.965
    51   1 H    0.998 --     5 C    0.971
    52   1 H    0.998 --     6 C    0.971
    53   1 H    0.998 --     7 C    0.964
    54   1 H    0.995 --     9 C    0.949
    55   1 H    0.994 --    10 C    0.947
    56   1 H    0.998 --    12 C    0.961
    57   1 H    0.998 --    13 C    0.971
    58   1 H    0.998 --    14 C    0.971
    59   1 H    0.998 --    15 C    0.965
    60   1 H    0.998 --    18 C    0.976
    61   1 H    0.995 --    18 C    0.979
    62   1 H    0.998 --    18 C    0.976
    63   1 H    0.999 --    23 C    0.959
    64   1 H    0.998 --    24 C    0.984
    65   1 H    0.999 --    24 C    0.984
    66   1 H    0.998 --    24 C    0.984
    67   1 H    0.999 --    25 C    0.987
    68   1 H    0.997 --    25 C    0.984
    69   1 H    0.997 --    25 C    0.984
    70   1 H    0.997 --    26 C    0.965
    71   1 H    0.998 --    27 C    0.971
    72   1 H    0.998 --    28 C    0.970
    73   1 H    0.999 --    29 C    0.967
    74   1 H    0.994 --    31 C    0.932
    75   1 H    0.885 --    33 O    0.827
    76   1 H    0.996 --    38 C    0.960
    77   1 H    0.998 --    39 C    0.970
    78   1 H    0.998 --    40 C    0.971
    79   1 H    0.998 --    41 C    0.965
    80   1 H    0.997 --    43 C    0.960
    81   1 H    0.999 --    44 C    0.985
    82   1 H    0.998 --    44 C    0.987
    83   1 H    0.998 --    44 C    0.985
    84   1 H    0.999 --    45 C    0.985
    85   1 H    0.998 --    45 C    0.985
    86   1 H    0.999 --    45 C    0.985
 ---------------------------------------------------------------------------

molecular dipole:
                 x           y           z       tot (Debye)
 q only:       -0.351       0.787      -1.276
   full:       -0.498       0.843      -1.455       4.458

           -------------------------------------------------
          | TOTAL ENERGY             -132.071960426692 Eh   |
          | GRADIENT NORM               0.000425476358 Eh/Î± |
          | HOMO-LUMO GAP               3.242176814690 eV   |
           -------------------------------------------------

 * finished run on 2022/03/17 at 00:47:46.492
