   * xtb version 6.3.3 (4ae9cef) compiled by 'conda@95abc7406d43' on 2020-10-14
          program call               : xtb acid_20.xyz --opt --chrg 0 --uhf 0 --gfn 2
          number of atoms            :                    90
          number of electrons        :                   274
          charge                     :                     0
          spin                       :                   0.0

   ID    Z sym.   atoms
    1    6 C      1, 2, 6-15, 19-22, 24-34, 36, 37, 41-51
    2    9 F      3-5, 16-18
    3    7 N      23, 40
    4    8 O      35, 38, 39, 52
    5    1 H      53-90

          :  Hamiltonian                  GFN2-xTB          :
 * total energy  :  -155.5985081 Eh     change       -0.1635982E-08 Eh
 * total energy  :  -155.6175278 Eh     change       -0.1901972E-01 Eh
 * total energy  :  -155.6239648 Eh     change       -0.6436964E-02 Eh
 * total energy  :  -155.6263369 Eh     change       -0.2372117E-02 Eh
 * total energy  :  -155.6283868 Eh     change       -0.2049891E-02 Eh
 * total energy  :  -155.6300927 Eh     change       -0.1705854E-02 Eh
 * total energy  :  -155.6317456 Eh     change       -0.1652927E-02 Eh
 * total energy  :  -155.6333911 Eh     change       -0.1645487E-02 Eh
 * total energy  :  -155.6347310 Eh     change       -0.1339964E-02 Eh
 * total energy  :  -155.6354009 Eh     change       -0.6698783E-03 Eh
 * total energy  :  -155.6420469 Eh     change       -0.9934466E-05 Eh
 * total energy  :  -155.6420565 Eh     change       -0.9611255E-05 Eh
 * total energy  :  -155.6420656 Eh     change       -0.9078356E-05 Eh
 * total energy  :  -155.6420744 Eh     change       -0.8844325E-05 Eh
 * total energy  :  -155.6420832 Eh     change       -0.8831140E-05 Eh
 * total energy  :  -155.6420920 Eh     change       -0.8783364E-05 Eh
 * total energy  :  -155.6420999 Eh     change       -0.7879586E-05 Eh
 * total energy  :  -155.6421060 Eh     change       -0.6100163E-05 Eh
 * total energy  :  -155.6421107 Eh     change       -0.4747962E-05 Eh
   *** GEOMETRY OPTIMIZATION CONVERGED AFTER 80 ITERATIONS ***

 final structure:
================
90
 xtb: 6.3.3 (4ae9cef)
C         2.33320896158750   -4.70193854130855    0.13650291027309
C         1.56366304579153   -5.41266875637746   -0.94102305733122
F         0.26907462159359   -5.61643098216942   -0.59580741968579
F         1.52152693612804   -4.75751844755446   -2.11343292001500
F         2.05189237114184   -6.62763693998720   -1.22114795232847
C         3.39204936219611   -5.37075656665675    0.73979108147119
C         4.11597314617064   -4.76634453179032    1.74833548126816
C         3.77965167877372   -3.48950597122140    2.16260911085857
C         2.72507575402428   -2.82706831075310    1.56793450635290
C         1.98922229436827   -3.41283769878331    0.54240554691082
C         0.83216350447205   -2.64637081400314   -0.04265834897897
C        -0.30759042541086   -2.46697030158537    0.98319431670314
C        -1.32060645843855   -3.57963949619575    0.92350487914137
C        -1.50439878077030   -4.49886411858671    1.95644848616518
C        -0.67481182678238   -4.44448190042425    3.20844671878104
F        -0.75695346090588   -3.27993709216890    3.87478433181140
F         0.64458604998781   -4.62223403516213    2.95468916019365
F        -0.99754223252534   -5.39411397614122    4.09513966095782
C        -2.44927407251759   -5.51119892749192    1.83701641098613
C        -3.21713442799807   -5.61833598905176    0.69428653096401
C        -3.03504163032122   -4.71805313251089   -0.34039335928969
C        -2.09379349572405   -3.71516037748438   -0.22430528928965
N        -0.88457372536401   -1.18857919129786    0.58103587096163
C        -2.15606638974262   -0.83577821146103    0.91856311510466
C        -2.71721252278826    0.32887821040642    0.16559266962141
C        -3.50012989099359    0.03317558082132   -0.94324601761477
C        -4.10261939137974    1.06416542970533   -1.63884945576922
C        -3.95448179457863    2.36865925309412   -1.21006256061283
C        -3.20098795043811    2.68341574227641   -0.08164945900278
C        -3.13602934311023    4.12923951279785    0.38284741101200
C        -4.54513408910639    4.55804716044344    0.81847950188046
C        -2.18969533760652    4.32545834115607    1.56961094969677
C        -2.66063266789382    5.01659067483957   -0.77662956305846
C        -2.57223938480578    1.64224577663940    0.59113831646578
O        -2.80901599781553   -1.48097320294636    1.70869842479496
C         0.03646946551572   -0.41340417820473   -0.21855481477046
C        -0.54891721251286   -0.12525691110339   -1.62085012109435
O        -0.95529390270342   -1.23450382901396   -2.22334463155093
O        -0.57697573032521    0.96135586189488   -2.13041109256464
N         1.19897498340418   -1.25909847335497   -0.32790177709681
C         2.44640835385169   -0.99351119473971   -0.84315681185686
C         3.00960757029209    0.37803928560797   -0.71351667406441
C         2.39429018466294    1.56703835744517   -1.07285366740789
C         3.03682942725560    2.79380984091447   -0.91088915750304
C         2.29382102049119    4.06467436912368   -1.28925971939890
C         1.07063828749499    4.18667960930548   -0.36969103376358
C         1.83362254781686    3.98367611190292   -2.75083841605416
C         3.15331381802887    5.32069936758551   -1.12345484585117
C         4.31885160137132    2.79972424629449   -0.37814205578522
C         4.94929988840444    1.61556094123167   -0.02996184721210
C         4.30767369150212    0.40804740690624   -0.20003308354102
O         3.13557678886326   -1.91372991909463   -1.23604391523977
H         3.64739582427952   -6.36684677455583    0.41373253933571
H         4.93802830404070   -5.29204348789009    2.20796622682464
H         4.33769535997826   -3.00925964056490    2.95188087933857
H         2.47258410207467   -1.82764612904740    1.89113494596606
H         0.44504288037152   -3.12182881947931   -0.94898391769400
H         0.11672689906936   -2.36518444132150    1.98716809606885
H        -2.58189836569269   -6.21372258449876    2.64485439083787
H        -3.95164612255632   -6.40408864348670    0.61338342324646
H        -3.62623213100033   -4.79893078084224   -1.23992222619305
H        -1.95245499670687   -3.01612676291825   -1.03421970866023
H        -3.64050239339219   -0.99525095237399   -1.24345793916985
H        -4.70351293362342    0.84836581572666   -2.51018407469690
H        -4.45021245136737    3.15145682762470   -1.76247029956082
H        -5.25621349657571    4.46742886061079    0.00174798259730
H        -4.89114077790428    3.93568623017668    1.64089493340566
H        -4.53343266295035    5.59414846539117    1.14960840515405
H        -1.17801739392214    4.01900577231810    1.31863992615788
H        -2.53010477470068    3.76560497489512    2.43746876753248
H        -2.16526188885670    5.37835739148181    1.84261288960986
H        -1.74243711548471    4.62139680170717   -1.20277760480437
H        -3.40515635399781    5.07227879145550   -1.56561349046133
H        -2.47469517883569    6.02745090845255   -0.42054251786049
H        -1.97789546791667    1.83036675406926    1.47076149201249
H         0.28327847588809    0.55238019543322    0.25041254168252
H        -1.27074187243261   -1.05078184118616   -3.12413189679623
H         1.41708258496850    1.55026876162386   -1.52091532575367
H         0.56088217369517    5.13008979465401   -0.55097453680689
H         0.37090669300687    3.37399988417113   -0.55050580438339
H         1.38014626781120    4.15772183399055    0.67397745136963
H         2.68610022347049    3.81784552817867   -3.40601147447476
H         1.35263311119787    4.91572195674939   -3.03974065661348
H         1.12090574008047    3.17777429453678   -2.90015709850271
H         3.44916571477460    5.46153761002061   -0.08639488358144
H         4.04332463733573    5.26941702285568   -1.74621556814838
H         2.58010092837548    6.19389443545104   -1.42793166583252
H         4.85128566325486    3.72549996073821   -0.23547643838267
H         5.95139330212301    1.64050340961925    0.37182214773495
H         4.79056527950153   -0.52276948554018    0.05561576489025

          :  Hamiltonian                  GFN2-xTB          :
         :: total energy            -155.642110745018 Eh    ::
         :: gradient norm              0.000247184446 Eh/a0 ::
         :: HOMO-LUMO gap              3.187900090772 eV    ::
         :: SCC energy              -157.635595425545 Eh    ::
         :: -> dispersion             -0.127593000948 Eh    ::
         :: repulsion energy           1.988728183824 Eh    ::

    * Orbital Energies and Occupations

         #    Occupation            Energy/Eh            Energy/eV
      -------------------------------------------------------------
         1        2.0000           -0.8743016             -23.7910
       ...           ...                  ...                  ...
       125        2.0000           -0.4326817             -11.7739
       126        2.0000           -0.4286314             -11.6637
       127        2.0000           -0.4268829             -11.6161
       128        2.0000           -0.4263328             -11.6011
       129        2.0000           -0.4213395             -11.4652
       130        2.0000           -0.4181663             -11.3789
       131        2.0000           -0.4168798             -11.3439
       132        2.0000           -0.4148578             -11.2889
       133        2.0000           -0.4086415             -11.1197
       134        2.0000           -0.4075097             -11.0889
       135        2.0000           -0.4044421             -11.0054
       136        2.0000           -0.4006068             -10.9011
       137        2.0000           -0.3987660             -10.8510 (HOMO)
       138                         -0.2816128              -7.6631 (LUMO)
       139                         -0.2623801              -7.1397
       140                         -0.2592459              -7.0544
       141                         -0.2563679              -6.9761
       142                         -0.2510006              -6.8301
       143                         -0.2475690              -6.7367
       144                         -0.2384696              -6.4891
       145                         -0.2340177              -6.3679
       146                         -0.2327365              -6.3331
       147                         -0.2257118              -6.1419
       148                         -0.2044621              -5.5637
       ...                                ...                  ...
       246                          0.6574697              17.8907
      -------------------------------------------------------------
                  HL-Gap            0.1171532 Eh            3.1879 eV

     #   Z          covCN         q      C6AA      Î±(0)
     1   6 C        2.976    -0.024    28.589     8.771
     2   6 C        3.336     0.486    17.296     6.587
     3   9 F        0.791    -0.225    11.495     4.005
     4   9 F        0.791    -0.204    11.272     3.966
     5   9 F        0.792    -0.201    11.244     3.961
     6   6 C        2.924    -0.019    28.481     8.752
     7   6 C        2.920    -0.020    28.514     8.757
     8   6 C        2.919    -0.015    28.387     8.737
     9   6 C        2.927    -0.021    28.535     8.760
    10   6 C        2.972     0.029    27.356     8.579
    11   6 C        3.835     0.048    19.742     6.321
    12   6 C        3.828     0.047    19.764     6.326
    13   6 C        2.971     0.027    27.405     8.587
    14   6 C        2.976    -0.024    28.600     8.772
    15   6 C        3.336     0.485    17.299     6.588
    16   9 F        0.791    -0.205    11.282     3.968
    17   9 F        0.791    -0.225    11.498     4.005
    18   9 F        0.792    -0.200    11.239     3.960
    19   6 C        2.924    -0.019    28.481     8.752
    20   6 C        2.920    -0.020    28.504     8.755
    21   6 C        2.919    -0.015    28.384     8.737
    22   6 C        2.928    -0.023    28.584     8.768
    23   7 N        2.768    -0.119    23.594     7.214
    24   6 C        2.763     0.272    22.405     7.752
    25   6 C        2.975    -0.025    28.622     8.776
    26   6 C        2.927    -0.032    28.806     8.802
    27   6 C        2.918    -0.028    28.711     8.787
    28   6 C        2.928    -0.030    28.758     8.795
    29   6 C        2.974     0.018    27.598     8.617
    30   6 C        3.903     0.026    20.075     6.369
    31   6 C        3.763    -0.107    22.595     6.776
    32   6 C        3.761    -0.112    22.684     6.789
    33   6 C        3.761    -0.110    22.651     6.785
    34   6 C        2.925    -0.036    28.899     8.816
    35   8 O        0.859    -0.411    21.908     6.276
    36   6 C        3.756     0.091    19.124     6.235
    37   6 C        2.688     0.352    21.017     7.503
    38   8 O        1.659    -0.352    19.941     6.028
    39   8 O        0.856    -0.393    21.546     6.223
    40   7 N        2.767    -0.126    23.740     7.237
    41   6 C        2.768     0.268    22.481     7.765
    42   6 C        2.970    -0.022    28.543     8.763
    43   6 C        2.927    -0.045    29.118     8.849
    44   6 C        2.974     0.014    27.692     8.632
    45   6 C        3.903     0.025    20.093     6.372
    46   6 C        3.763    -0.105    22.548     6.769
    47   6 C        3.761    -0.110    22.656     6.785
    48   6 C        3.761    -0.110    22.643     6.783
    49   6 C        2.924    -0.036    28.885     8.814
    50   6 C        2.917    -0.029    28.731     8.790
    51   6 C        2.933    -0.024    28.599     8.770
    52   8 O        0.860    -0.415    21.979     6.286
    53   1 H        0.926     0.068     2.107     2.270
    54   1 H        0.926     0.058     2.219     2.330
    55   1 H        0.926     0.056     2.242     2.342
    56   1 H        0.926     0.047     2.353     2.399
    57   1 H        0.924     0.068     2.106     2.270
    58   1 H        0.924     0.063     2.160     2.299
    59   1 H        0.926     0.068     2.112     2.273
    60   1 H        0.926     0.058     2.225     2.333
    61   1 H        0.926     0.055     2.262     2.352
    62   1 H        0.926     0.057     2.234     2.337
    63   1 H        0.926     0.030     2.581     2.512
    64   1 H        0.926     0.037     2.493     2.469
    65   1 H        0.926     0.042     2.427     2.436
    66   1 H        0.925     0.037     2.484     2.465
    67   1 H        0.925     0.037     2.489     2.467
    68   1 H        0.925     0.042     2.424     2.435
    69   1 H        0.925     0.039     2.456     2.451
    70   1 H        0.925     0.038     2.475     2.460
    71   1 H        0.925     0.039     2.457     2.451
    72   1 H        0.925     0.043     2.409     2.427
    73   1 H        0.925     0.038     2.474     2.460
    74   1 H        0.925     0.039     2.463     2.454
    75   1 H        0.926     0.041     2.437     2.441
    76   1 H        0.923     0.070     2.086     2.259
    77   1 H        0.804     0.346     0.597     1.214
    78   1 H        0.926     0.049     2.326     2.385
    79   1 H        0.925     0.044     2.392     2.419
    80   1 H        0.925     0.039     2.464     2.455
    81   1 H        0.925     0.030     2.592     2.518
    82   1 H        0.925     0.035     2.514     2.480
    83   1 H        0.925     0.040     2.447     2.446
    84   1 H        0.925     0.048     2.347     2.396
    85   1 H        0.925     0.037     2.493     2.469
    86   1 H        0.925     0.038     2.475     2.460
    87   1 H        0.925     0.040     2.455     2.450
    88   1 H        0.926     0.046     2.377     2.411
    89   1 H        0.926     0.039     2.464     2.455
    90   1 H        0.926     0.048     2.348     2.396

Wiberg/Mayer (AO) data.
largest (>0.10) Wiberg bond orders for each atom

     #   Z sym  total        # sym  WBO       # sym  WBO       # sym  WBO
 ---------------------------------------------------------------------------
     1   6 C    3.970 --     6 C    1.409    10 C    1.388     2 C    0.953
                             8 C    0.104
     2   6 C    3.821 --     5 F    0.956     1 C    0.953     4 F    0.947
                             3 F    0.927
     3   9 F    1.053 --     2 C    0.927
     4   9 F    1.077 --     2 C    0.947
     5   9 F    1.078 --     2 C    0.956
     6   6 C    3.987 --     7 C    1.447     1 C    1.409    53 H    0.966
                             9 C    0.109
     7   6 C    3.988 --     6 C    1.447     8 C    1.429    54 H    0.969
                            10 C    0.108
     8   6 C    3.990 --     9 C    1.454     7 C    1.429    55 H    0.969
                             1 C    0.104
     9   6 C    3.990 --     8 C    1.454    10 C    1.402    56 H    0.966
                             6 C    0.109
    10   6 C    3.986 --     9 C    1.402     1 C    1.388    11 C    0.997
                             7 C    0.108
    11   6 C    3.967 --    10 C    0.997    40 N    0.956    57 H    0.951
                            12 C    0.948
    12   6 C    3.967 --    13 C    0.997    23 N    0.954    58 H    0.952
                            11 C    0.948
    13   6 C    3.987 --    22 C    1.405    14 C    1.387    12 C    0.997
                            20 C    0.108
    14   6 C    3.970 --    19 C    1.411    13 C    1.387    15 C    0.952
                            21 C    0.104
    15   6 C    3.820 --    18 F    0.956    14 C    0.952    16 F    0.946
                            17 F    0.926
    16   9 F    1.076 --    15 C    0.946
    17   9 F    1.053 --    15 C    0.926
    18   9 F    1.079 --    15 C    0.956
    19   6 C    3.987 --    20 C    1.445    14 C    1.411    59 H    0.966
                            22 C    0.109
    20   6 C    3.988 --    19 C    1.445    21 C    1.430    60 H    0.969
                            13 C    0.108
    21   6 C    3.990 --    22 C    1.451    20 C    1.430    61 H    0.969
                            14 C    0.104
    22   6 C    3.989 --    21 C    1.451    13 C    1.405    62 H    0.961
                            19 C    0.109
    23   7 N    3.447 --    24 C    1.195    36 C    0.984    12 C    0.954
                            35 O    0.189
    24   6 C    3.940 --    35 O    1.706    23 N    1.195    25 C    0.955
    25   6 C    3.985 --    34 C    1.407    26 C    1.398    24 C    0.955
                            28 C    0.108
    26   6 C    3.990 --    27 C    1.434    25 C    1.398    63 H    0.969
                            29 C    0.109
    27   6 C    3.991 --    28 C    1.451    26 C    1.434    64 H    0.969
                            34 C    0.106
    28   6 C    3.991 --    27 C    1.451    29 C    1.403    65 H    0.965
                            25 C    0.108
    29   6 C    3.985 --    34 C    1.418    28 C    1.403    30 C    0.985
                            26 C    0.109
    30   6 C    3.991 --    32 C    1.000    33 C    0.988    29 C    0.985
                            31 C    0.984
    31   6 C    3.995 --    67 H    0.986    66 H    0.984    68 H    0.984
                            30 C    0.984
    32   6 C    3.995 --    30 C    1.000    71 H    0.984    70 H    0.984
                            69 H    0.982
    33   6 C    3.995 --    30 C    0.988    74 H    0.984    72 H    0.984
                            73 H    0.983
    34   6 C    3.990 --    29 C    1.418    25 C    1.407    75 H    0.964
                            27 C    0.106
    35   8 O    2.038 --    24 C    1.706    23 N    0.189
    36   6 C    3.971 --    40 N    0.989    23 N    0.984    76 H    0.944
                            37 C    0.906
    37   6 C    3.918 --    39 O    1.763    38 O    1.164    36 C    0.906
    38   8 O    2.233 --    37 C    1.164    77 H    0.853    39 O    0.180
    39   8 O    2.058 --    37 C    1.763    38 O    0.180
    40   7 N    3.426 --    41 C    1.160    36 C    0.989    11 C    0.956
                            52 O    0.173
    41   6 C    3.936 --    52 O    1.696    40 N    1.160    42 C    0.989
    42   6 C    3.984 --    43 C    1.418    51 C    1.371    41 C    0.989
                            49 C    0.102
    43   6 C    3.989 --    42 C    1.418    44 C    1.401    78 H    0.954
                            50 C    0.106
    44   6 C    3.986 --    49 C    1.422    43 C    1.401    45 C    0.985
                            51 C    0.108
    45   6 C    3.990 --    48 C    1.000    47 C    0.988    44 C    0.985
                            46 C    0.984
    46   6 C    3.996 --    81 H    0.986    45 C    0.984    79 H    0.982
                            80 H    0.982
    47   6 C    3.995 --    45 C    0.988    82 H    0.987    83 H    0.984
                            84 H    0.981
    48   6 C    3.996 --    45 C    1.000    86 H    0.985    85 H    0.984
                            87 H    0.984
    49   6 C    3.990 --    50 C    1.426    44 C    1.422    88 H    0.965
                            42 C    0.102
    50   6 C    3.991 --    51 C    1.460    49 C    1.426    89 H    0.969
                            43 C    0.106
    51   6 C    3.988 --    50 C    1.460    42 C    1.371    90 H    0.968
                            44 C    0.108
    52   8 O    2.034 --    41 C    1.696    40 N    0.173
    53   1 H    0.995 --     6 C    0.966
    54   1 H    0.996 --     7 C    0.969
    55   1 H    0.996 --     8 C    0.969
    56   1 H    0.997 --     9 C    0.966
    57   1 H    0.995 --    11 C    0.951
    58   1 H    0.995 --    12 C    0.952
    59   1 H    0.995 --    19 C    0.966
    60   1 H    0.996 --    20 C    0.969
    61   1 H    0.996 --    21 C    0.969
    62   1 H    0.996 --    22 C    0.961
    63   1 H    0.998 --    26 C    0.969
    64   1 H    0.998 --    27 C    0.969
    65   1 H    0.998 --    28 C    0.965
    66   1 H    0.999 --    31 C    0.984
    67   1 H    0.999 --    31 C    0.986
    68   1 H    0.997 --    31 C    0.984
    69   1 H    0.998 --    32 C    0.982
    70   1 H    0.999 --    32 C    0.984
    71   1 H    0.998 --    32 C    0.984
    72   1 H    0.998 --    33 C    0.984
    73   1 H    0.999 --    33 C    0.983
    74   1 H    0.998 --    33 C    0.984
    75   1 H    0.998 --    34 C    0.964
    76   1 H    0.994 --    36 C    0.944
    77   1 H    0.880 --    38 O    0.853
    78   1 H    0.998 --    43 C    0.954
    79   1 H    0.997 --    46 C    0.982
    80   1 H    0.998 --    46 C    0.982
    81   1 H    0.999 --    46 C    0.986
    82   1 H    0.999 --    47 C    0.987
    83   1 H    0.998 --    47 C    0.984
    84   1 H    0.998 --    47 C    0.981
    85   1 H    0.999 --    48 C    0.984
    86   1 H    0.999 --    48 C    0.985
    87   1 H    0.998 --    48 C    0.984
    88   1 H    0.997 --    49 C    0.965
    89   1 H    0.998 --    50 C    0.969
    90   1 H    0.997 --    51 C    0.968
 ---------------------------------------------------------------------------

molecular dipole:
                 x           y           z       tot (Debye)
 q only:       -0.164       1.908      -0.529
   full:       -0.259       2.052      -0.730       5.575

           -------------------------------------------------
          | TOTAL ENERGY             -155.642110745018 Eh   |
          | GRADIENT NORM               0.000247184446 Eh/Î± |
          | HOMO-LUMO GAP               3.187900090772 eV   |
           -------------------------------------------------

 * finished run on 2022/03/16 at 22:26:15.759
