   * xtb version 6.3.3 (4ae9cef) compiled by 'conda@95abc7406d43' on 2020-10-14
          program call               : xtb acid_466.xyz --opt --chrg 0 --uhf 0 --gfn 2
          number of atoms            :                    66
          number of electrons        :                   190
          charge                     :                     0
          spin                       :                   0.0

   ID    Z sym.   atoms
    1    8 O      1, 13, 14, 24
    2    6 C      2-9, 11, 12, 16-23, 25-38
    3    7 N      10, 15
    4    1 H      39-66

          :  Hamiltonian                  GFN2-xTB          :
 * total energy  :  -104.9253982 Eh     change       -0.9074483E-09 Eh
 * total energy  :  -104.9385018 Eh     change       -0.1310363E-01 Eh
 * total energy  :  -104.9415037 Eh     change       -0.3001871E-02 Eh
 * total energy  :  -104.9423452 Eh     change       -0.8414648E-03 Eh
 * total energy  :  -104.9428224 Eh     change       -0.4772015E-03 Eh
 * total energy  :  -104.9430890 Eh     change       -0.2666323E-03 Eh
 * total energy  :  -104.9433414 Eh     change       -0.2524326E-03 Eh
 * total energy  :  -104.9436407 Eh     change       -0.2992571E-03 Eh
 * total energy  :  -104.9439228 Eh     change       -0.2820687E-03 Eh
 * total energy  :  -104.9441363 Eh     change       -0.2135492E-03 Eh
 * total energy  :  -104.9445603 Eh     change        0.1754500E-04 Eh
 * total energy  :  -104.9445840 Eh     change       -0.2370288E-04 Eh
 * total energy  :  -104.9445957 Eh     change       -0.1162448E-04 Eh
 * total energy  :  -104.9446030 Eh     change       -0.7303958E-05 Eh
 * total energy  :  -104.9446116 Eh     change       -0.8647749E-05 Eh
 * total energy  :  -104.9446216 Eh     change       -0.1002648E-04 Eh
 * total energy  :  -104.9446361 Eh     change       -0.1443809E-04 Eh
 * total energy  :  -104.9446426 Eh     change       -0.6507667E-05 Eh
 * total energy  :  -104.9446465 Eh     change       -0.3926429E-05 Eh
   *** GEOMETRY OPTIMIZATION CONVERGED AFTER 29 ITERATIONS ***

 final structure:
================
66
 xtb: 6.3.3 (4ae9cef)
O        -2.85351195879335    0.24190804134691   -1.66053865811333
C        -2.11823466150196   -0.40205850719463   -0.94654374202775
C        -2.16300133106783   -1.89812643672178   -0.85174318927661
C        -2.95578731301881   -2.50295668264858    0.11534390930312
C        -3.02657696982383   -3.88494344096933    0.19249016524555
C        -2.30454322447437   -4.65900073744631   -0.70001517133251
C        -1.52975386726127   -4.05487981480329   -1.67583389929274
C        -1.45386613325631   -2.67164724849085   -1.77418986601545
C        -0.66159369960255   -2.01210292673687   -2.86102505799390
N        -1.17931809048930    0.18880353735086   -0.15736609800731
C        -0.12126651587015   -0.48447497210930    0.55839095684702
C        -0.55547459816097   -0.84695908688812    2.00846943803801
O        -0.92026607846244   -2.11166363536674    2.21597298078368
O        -0.55522565309070   -0.03935056368586    2.88915347794866
N         0.93935351192360    0.48837630534881    0.59269367363195
C         2.18598955907648    0.25354966138355    1.09342197801957
C         2.45106046025067   -1.19904553595975    1.36004829997337
C         2.89909882709822   -2.03714073207024    0.33801169491579
C         3.14409158519549   -1.50028713129262   -1.04048758070716
C         3.11212173644721   -3.37874396824833    0.62788434445411
C         2.89917304196336   -3.87554617706787    1.90192347403028
C         2.48694289530952   -3.02922565616457    2.91675129121621
C         2.26672115504677   -1.69005667032447    2.64616098303744
O         2.99351288133975    1.13529883933781    1.27366348689241
C         0.43029119298650    1.84249298542713    0.39815068665817
C         1.36398734689928    2.66293251924542   -0.45077768893661
C         1.84775640373446    2.15102388085948   -1.64819742660260
C         2.70189046853547    2.89963420287311   -2.43581267187298
C         3.07099915888676    4.17379653776059   -2.03911404804962
C         2.58179643395233    4.69370798635333   -0.85355473504410
C         1.73247330916469    3.94144802830480   -0.06155769372306
C        -0.93463616083717    1.62678514269758   -0.28451615193863
C        -2.04334727209757    2.46064435981382    0.30308113692895
C        -2.68943002899272    3.39962623910980   -0.48897531972078
C        -3.70534051934025    4.17795473375659    0.03598936634647
C        -4.08727470460375    4.02223137659654    1.35727729697179
C        -3.44675040080304    3.08667561150541    2.15146814620749
C        -2.42785982832000    2.30960980128992    1.62965105451750
H        -3.52282079424133   -1.88691618155645    0.79764917076939
H        -3.64654051069013   -4.35065184111472    0.94239769663569
H        -2.35534713563310   -5.73583149567936   -0.64595985220119
H        -0.98454962551969   -4.66475542563354   -2.38121347420360
H        -0.03878812430621   -1.20861862573617   -2.46871706050768
H        -1.34253407868345   -1.56514935428506   -3.58530319203771
H        -0.03060603443665   -2.73243883783453   -3.37616765599913
H         0.19598235611855   -1.40353389376587    0.03786958316031
H        -0.96928517181013   -2.65471873432048    1.41424823745617
H         3.49728496972698   -0.47253717822657   -0.99317919942511
H         3.88470827983928   -2.10489971969131   -1.55862681332755
H         2.22627950665641   -1.51979885331591   -1.63072364747234
H         3.45821914908178   -4.03828448856147   -0.15509070126868
H         3.07066495965857   -4.92202035494767    2.10559470685363
H         2.33917463302091   -3.40680898514507    3.91651646845247
H         1.95591654085480   -1.01812833269365    3.43175318347441
H         0.29772590157028    2.32417170633220    1.37496511669559
H         1.56173088563728    1.15608388500073   -1.96046242642549
H         3.08122326688801    2.48808939758651   -3.35985023029023
H         3.74107204907283    4.75780720434864   -2.65234099763481
H         2.86818131849192    5.68644539418450   -0.53992362518626
H         1.35938987950489    4.34387883782028    0.86831533917419
H        -0.86602782822093    1.85347702408539   -1.35723649921384
H        -2.39964805278514    3.51621408378161   -1.52261823672813
H        -4.20223606643561    4.90445846109940   -0.58954987508475
H        -4.88251244950277    4.62737758291143    1.76696516984294
H        -3.73878705081869    2.96005446783141    3.18341107265650
H        -1.93207173098069    1.58874239134785    2.26152889852145

          :  Hamiltonian                  GFN2-xTB          :
         :: total energy            -104.944646504554 Eh    ::
         :: gradient norm              0.000270469522 Eh/a0 ::
         :: HOMO-LUMO gap              3.289041483895 eV    ::
         :: SCC energy              -106.600586981246 Eh    ::
         :: -> dispersion             -0.092270178715 Eh    ::
         :: repulsion energy           1.652034806685 Eh    ::

    * Orbital Energies and Occupations

         #    Occupation            Energy/Eh            Energy/eV
      -------------------------------------------------------------
         1        2.0000           -0.7752512             -21.0957
       ...           ...                  ...                  ...
        83        2.0000           -0.4270157             -11.6197
        84        2.0000           -0.4230679             -11.5123
        85        2.0000           -0.4217788             -11.4772
        86        2.0000           -0.4190596             -11.4032
        87        2.0000           -0.4144811             -11.2786
        88        2.0000           -0.4116507             -11.2016
        89        2.0000           -0.4109381             -11.1822
        90        2.0000           -0.4096328             -11.1467
        91        2.0000           -0.4079723             -11.1015
        92        2.0000           -0.4049715             -11.0198
        93        2.0000           -0.4016378             -10.9291
        94        2.0000           -0.3974868             -10.8162
        95        2.0000           -0.3917157             -10.6591 (HOMO)
        96                         -0.2708456              -7.3701 (LUMO)
        97                         -0.2530356              -6.8854
        98                         -0.2495957              -6.7918
        99                         -0.2406764              -6.5491
       100                         -0.2359704              -6.4211
       101                         -0.2328844              -6.3371
       102                         -0.2292629              -6.2386
       103                         -0.2262504              -6.1566
       104                         -0.2243096              -6.1038
       105                         -0.2231721              -6.0728
       106                         -0.2206728              -6.0048
       ...                                ...                  ...
       180                          0.6665612              18.1381
      -------------------------------------------------------------
                  HL-Gap            0.1208701 Eh            3.2890 eV

     #   Z          covCN         q      C6AA      Î±(0)
     1   8 O        0.859    -0.411    21.894     6.273
     2   6 C        2.763     0.272    22.403     7.751
     3   6 C        2.980    -0.036    28.892     8.817
     4   6 C        2.921    -0.036    28.890     8.814
     5   6 C        2.919    -0.036    28.904     8.816
     6   6 C        2.918    -0.032    28.805     8.801
     7   6 C        2.924    -0.040    29.005     8.832
     8   6 C        2.968     0.015    27.674     8.629
     9   6 C        3.757    -0.105    22.555     6.771
    10   7 N        2.763    -0.124    23.688     7.229
    11   6 C        3.751     0.084    19.247     6.257
    12   6 C        2.686     0.346    21.124     7.522
    13   8 O        1.659    -0.355    20.003     6.038
    14   8 O        0.856    -0.342    20.549     6.078
    15   7 N        2.768    -0.118    23.574     7.211
    16   6 C        2.762     0.276    22.326     7.738
    17   6 C        2.982    -0.034    28.845     8.810
    18   6 C        2.967     0.014    27.692     8.632
    19   6 C        3.757    -0.107    22.605     6.779
    20   6 C        2.925    -0.041    29.018     8.834
    21   6 C        2.918    -0.032    28.788     8.799
    22   6 C        2.919    -0.031    28.770     8.796
    23   6 C        2.922    -0.029    28.733     8.790
    24   8 O        0.858    -0.408    21.835     6.265
    25   6 C        3.822     0.044    19.817     6.335
    26   6 C        2.974     0.014    27.702     8.633
    27   6 C        2.925    -0.030    28.752     8.793
    28   6 C        2.919    -0.028    28.689     8.783
    29   6 C        2.921    -0.028    28.698     8.785
    30   6 C        2.920    -0.024    28.600     8.770
    31   6 C        2.924    -0.026    28.663     8.780
    32   6 C        3.823     0.044    19.813     6.334
    33   6 C        2.972     0.005    27.901     8.664
    34   6 C        2.924    -0.028    28.694     8.785
    35   6 C        2.920    -0.026    28.660     8.779
    36   6 C        2.920    -0.028    28.711     8.787
    37   6 C        2.920    -0.027    28.680     8.782
    38   6 C        2.923    -0.037    28.931     8.821
    39   1 H        0.926     0.043     2.410     2.427
    40   1 H        0.926     0.045     2.378     2.412
    41   1 H        0.926     0.042     2.423     2.434
    42   1 H        0.926     0.041     2.431     2.438
    43   1 H        0.925     0.034     2.526     2.485
    44   1 H        0.925     0.066     2.133     2.284
    45   1 H        0.925     0.047     2.362     2.403
    46   1 H        0.923     0.038     2.470     2.458
    47   1 H        0.804     0.327     0.646     1.262
    48   1 H        0.925     0.055     2.261     2.351
    49   1 H        0.925     0.050     2.322     2.383
    50   1 H        0.924     0.038     2.482     2.464
    51   1 H        0.926     0.037     2.491     2.468
    52   1 H        0.926     0.038     2.481     2.463
    53   1 H        0.926     0.043     2.409     2.427
    54   1 H        0.926     0.046     2.367     2.406
    55   1 H        0.924     0.063     2.163     2.300
    56   1 H        0.925     0.023     2.686     2.563
    57   1 H        0.926     0.034     2.527     2.486
    58   1 H        0.926     0.037     2.494     2.470
    59   1 H        0.926     0.039     2.456     2.450
    60   1 H        0.926     0.039     2.461     2.453
    61   1 H        0.923     0.061     2.192     2.315
    62   1 H        0.926     0.038     2.474     2.460
    63   1 H        0.926     0.037     2.485     2.465
    64   1 H        0.926     0.036     2.509     2.477
    65   1 H        0.926     0.038     2.475     2.460
    66   1 H        0.926     0.051     2.306     2.375

Wiberg/Mayer (AO) data.
largest (>0.10) Wiberg bond orders for each atom

     #   Z sym  total        # sym  WBO       # sym  WBO       # sym  WBO
 ---------------------------------------------------------------------------
     1   8 O    2.035 --     2 C    1.706    10 N    0.192
     2   6 C    3.945 --     1 O    1.706    10 N    1.202     3 C    0.952
     3   6 C    3.986 --     4 C    1.412     8 C    1.373     2 C    0.952
                             6 C    0.109
     4   6 C    3.991 --     5 C    1.430     3 C    1.412    39 H    0.969
                             7 C    0.108
     5   6 C    3.991 --     6 C    1.439     4 C    1.430    40 H    0.969
                             8 C    0.108
     6   6 C    3.991 --     7 C    1.441     5 C    1.439    41 H    0.970
                             3 C    0.109
     7   6 C    3.991 --     6 C    1.441     8 C    1.415    42 H    0.967
                             4 C    0.108
     8   6 C    3.988 --     7 C    1.415     3 C    1.373     9 C    1.028
                             5 C    0.108
     9   6 C    3.995 --     8 C    1.028    45 H    0.984    43 H    0.972
                            44 H    0.964
    10   7 N    3.458 --     2 C    1.202    11 C    0.985    32 C    0.946
                             1 O    0.192
    11   6 C    3.974 --    15 N    0.994    10 N    0.985    46 H    0.943
                            12 C    0.894
    12   6 C    3.920 --    14 O    1.802    13 O    1.147    11 C    0.894
    13   8 O    2.230 --    12 C    1.147    47 H    0.853    14 O    0.170
    14   8 O    2.097 --    12 C    1.802    13 O    0.170
    15   7 N    3.448 --    16 C    1.190    11 C    0.994    25 C    0.951
                            24 O    0.187
    16   6 C    3.943 --    24 O    1.716    15 N    1.190    17 C    0.951
    17   6 C    3.986 --    23 C    1.412    18 C    1.378    16 C    0.951
                            21 C    0.108
    18   6 C    3.988 --    20 C    1.414    17 C    1.378    19 C    1.025
                            22 C    0.108
    19   6 C    3.995 --    18 C    1.025    49 H    0.981    48 H    0.977
                            50 H    0.965
    20   6 C    3.990 --    21 C    1.443    18 C    1.414    51 H    0.968
                            23 C    0.109
    21   6 C    3.992 --    20 C    1.443    22 C    1.438    52 H    0.971
                            17 C    0.108
    22   6 C    3.991 --    21 C    1.438    23 C    1.437    53 H    0.970
                            18 C    0.108
    23   6 C    3.990 --    22 C    1.437    17 C    1.412    54 H    0.969
                            20 C    0.109
    24   8 O    2.038 --    16 C    1.716    15 N    0.187
    25   6 C    3.960 --    26 C    0.991    32 C    0.958    55 H    0.953
                            15 N    0.951
    26   6 C    3.985 --    31 C    1.416    27 C    1.408    25 C    0.991
                            29 C    0.110
    27   6 C    3.992 --    28 C    1.449    26 C    1.408    56 H    0.968
                            30 C    0.111
    28   6 C    3.992 --    27 C    1.449    29 C    1.435    57 H    0.971
                            31 C    0.111
    29   6 C    3.991 --    30 C    1.442    28 C    1.435    58 H    0.971
                            26 C    0.110
    30   6 C    3.992 --    31 C    1.442    29 C    1.442    59 H    0.971
                            27 C    0.111
    31   6 C    3.990 --    30 C    1.442    26 C    1.416    60 H    0.968
                            28 C    0.111
    32   6 C    3.957 --    33 C    0.989    25 C    0.958    61 H    0.953
                            10 N    0.946
    33   6 C    3.985 --    34 C    1.414    38 C    1.413    32 C    0.989
                            36 C    0.109
    34   6 C    3.990 --    35 C    1.443    33 C    1.414    62 H    0.968
                            37 C    0.111
    35   6 C    3.992 --    34 C    1.443    36 C    1.440    63 H    0.971
                            38 C    0.112
    36   6 C    3.991 --    35 C    1.440    37 C    1.438    64 H    0.971
                            33 C    0.109
    37   6 C    3.992 --    38 C    1.445    36 C    1.438    65 H    0.971
                            34 C    0.111
    38   6 C    3.990 --    37 C    1.445    33 C    1.413    66 H    0.961
                            35 C    0.112
    39   1 H    0.998 --     4 C    0.969
    40   1 H    0.997 --     5 C    0.969
    41   1 H    0.998 --     6 C    0.970
    42   1 H    0.997 --     7 C    0.967
    43   1 H    0.999 --     9 C    0.972
    44   1 H    0.996 --     9 C    0.964
    45   1 H    0.997 --     9 C    0.984
    46   1 H    0.998 --    11 C    0.943
    47   1 H    0.893 --    13 O    0.853
    48   1 H    0.997 --    19 C    0.977
    49   1 H    0.997 --    19 C    0.981
    50   1 H    0.999 --    19 C    0.965
    51   1 H    0.998 --    20 C    0.968
    52   1 H    0.998 --    21 C    0.971
    53   1 H    0.997 --    22 C    0.970
    54   1 H    0.998 --    23 C    0.969
    55   1 H    0.995 --    25 C    0.953
    56   1 H    0.999 --    27 C    0.968
    57   1 H    0.998 --    28 C    0.971
    58   1 H    0.998 --    29 C    0.971
    59   1 H    0.998 --    30 C    0.971
    60   1 H    0.998 --    31 C    0.968
    61   1 H    0.996 --    32 C    0.953
    62   1 H    0.999 --    34 C    0.968
    63   1 H    0.998 --    35 C    0.971
    64   1 H    0.998 --    36 C    0.971
    65   1 H    0.998 --    37 C    0.971
    66   1 H    0.997 --    38 C    0.961
 ---------------------------------------------------------------------------

molecular dipole:
                 x           y           z       tot (Debye)
 q only:       -0.012      -1.247      -0.949
   full:       -0.020      -1.776      -1.161       5.393

           -------------------------------------------------
          | TOTAL ENERGY             -104.944646504554 Eh   |
          | GRADIENT NORM               0.000270469522 Eh/Î± |
          | HOMO-LUMO GAP               3.289041483895 eV   |
           -------------------------------------------------

 * finished run on 2022/03/17 at 01:31:17.845
