   * xtb version 6.3.3 (4ae9cef) compiled by 'conda@95abc7406d43' on 2020-10-14
          program call               : xtb acid_1.xyz --opt --chrg 0 --uhf 0 --gfn 2
          number of atoms            :                    86
          number of electrons        :                   262
          charge                     :                     0
          spin                       :                   0.0

   ID    Z sym.   atoms
    1    6 C      1-22, 24-34, 37, 38, 42-52
    2    7 N      23, 41
    3    8 O      35, 36, 39, 40, 53, 54
    4    1 H      55-86

          :  Hamiltonian                  GFN2-xTB          :
 * total energy  :  -145.0827311 Eh     change       -0.8238004E-08 Eh
 * total energy  :  -145.0988238 Eh     change       -0.1609266E-01 Eh
 * total energy  :  -145.1041051 Eh     change       -0.5281301E-02 Eh
 * total energy  :  -145.1057272 Eh     change       -0.1622121E-02 Eh
 * total energy  :  -145.1066072 Eh     change       -0.8800204E-03 Eh
 * total energy  :  -145.1069098 Eh     change       -0.3025443E-03 Eh
 * total energy  :  -145.1071734 Eh     change       -0.2636595E-03 Eh
 * total energy  :  -145.1074705 Eh     change       -0.2970861E-03 Eh
 * total energy  :  -145.1077861 Eh     change       -0.3156203E-03 Eh
 * total energy  :  -145.1081074 Eh     change       -0.3212552E-03 Eh
 * total energy  :  -145.1099128 Eh     change       -0.2677324E-04 Eh
 * total energy  :  -145.1099310 Eh     change       -0.1819576E-04 Eh
 * total energy  :  -145.1099130 Eh     change        0.1803306E-04 Eh
 * total energy  :  -145.1099400 Eh     change       -0.2702183E-04 Eh
 * total energy  :  -145.1099462 Eh     change       -0.6151913E-05 Eh
 * total energy  :  -145.1099560 Eh     change       -0.9861839E-05 Eh
 * total energy  :  -145.1099674 Eh     change       -0.1141601E-04 Eh
 * total energy  :  -145.1099758 Eh     change       -0.8357994E-05 Eh
 * total energy  :  -145.1099802 Eh     change       -0.4397801E-05 Eh
   *** GEOMETRY OPTIMIZATION CONVERGED AFTER 44 ITERATIONS ***

 final structure:
================
86
 xtb: 6.3.3 (4ae9cef)
C        -0.95781221710180    2.93306785259910    2.57479657124168
C        -0.69632921427408    3.87059484280480    3.53341098632934
C         0.10385091652311    4.99577644009711    3.24932960185628
C         0.39805599039002    5.97796952423692    4.21766275222510
C         1.16755710469160    7.06159424365419    3.89932457695142
C         1.67733528992966    7.21212756493090    2.59949679569063
C         1.40901851684505    6.27799133092466    1.63909321680252
C         0.61903852466987    5.14710047661984    1.93562050556151
C         0.33001760827866    4.16372506907241    0.96916861149231
C        -0.42608454292500    3.06214969929815    1.27718476624189
C        -0.71556692471727    2.01867487168227    0.22219082109878
C         0.53822955829815    1.54734173404155   -0.54695902773257
C         0.31103789809600    1.49372682018281   -2.03564649447174
C         0.99535204360375    2.32552727556855   -2.87989207176861
C         0.76986088207447    2.29830838129289   -4.27057846425419
C         1.46622651622498    3.14437859746149   -5.15860873331198
C         1.22346576095952    3.09699066181295   -6.50263714884988
C         0.27300852362550    2.20320794459094   -7.02068057613960
C        -0.41596699081590    1.36831104224899   -6.18620611859754
C        -0.18706731843046    1.39122940241401   -4.79513202049566
C        -0.87409617523837    0.54029337556488   -3.90431492402692
C        -0.63161220325716    0.58892287354962   -2.56227668712619
N         0.79481556509342    0.21363953664691   -0.00457208937715
C         1.99911929207404   -0.36366877093479   -0.28465094026270
C         2.34324176929966   -1.64831354535981    0.35260268552203
C         1.85208318074326   -2.45213533628052    1.35974506791521
C         2.74395412684848   -3.52995781716194    1.48187316522749
C         3.73421024174276   -3.32522186917813    0.54486000872310
C         4.92263398170119   -4.08832943218217    0.21442655045390
C         5.22379318786827   -5.27911489458487    0.87676804307590
C         6.36670718617662   -5.98400297236004    0.55302247778082
C         7.22260141296625   -5.51532849014162   -0.43105487564329
C         6.92940975628953   -4.33452832467541   -1.09442120034228
C         5.78901168784940   -3.62348527351457   -0.77719305271482
O         3.48339339479210   -2.19280524650817   -0.12509035694442
O         2.76566284294997    0.16522678507193   -1.06711986604195
C        -0.15718944297955   -0.11961294416898    1.02200805406801
C         0.42266953590882    0.14177834343810    2.43393249562583
O         1.47656960831100    0.94111442115929    2.39725753163716
O        -0.04049616588895   -0.31267581653811    3.44416073673274
N        -1.24912114008061    0.78931066228623    0.78926148462647
C        -2.57154995668066    0.47484402291076    0.58873913817171
C        -3.03682949703309   -0.81609762284677    1.11683429408718
C        -2.67884917357460   -1.59088126620326    2.19790960884962
C        -3.60668146370424   -2.64361177428346    2.25065387521315
C        -4.48152915951796   -2.44888855541531    1.20268925719801
C        -5.63715309745215   -3.20625449990277    0.76229298714842
C        -6.41469510538741   -2.73414093532618   -0.29711378841866
C        -7.52201192522781   -3.44316999738222   -0.71891425121504
C        -7.87079305611514   -4.62936268115701   -0.09335174814480
C        -7.10425894376386   -5.10472869907032    0.95885719930415
C        -5.99470380340219   -4.40220458074705    1.38657637789380
O        -4.13490757838627   -1.33934417800663    0.52932834135709
O        -3.32300540166222    1.25654056874297    0.04237880960517
H        -1.58635385921960    2.08608814386639    2.80733953095578
H        -1.10850359786342    3.76135326068576    4.52638127849025
H         0.00176022139611    5.85743730033766    5.21594047549728
H         1.38864910690988    7.81152212353333    4.64457198479330
H         2.28206552335788    8.07598461859882    2.36576889951438
H         1.79783774744454    6.39059807330493    0.63725176354993
H         0.71213147627766    4.30045990054820   -0.03231656382086
H        -1.47192905069266    2.41568354441773   -0.46708453524644
H         1.40649785701974    2.17956615072452   -0.33366683068300
H         1.73347270868238    3.01022393329971   -2.48780206961306
H         2.19810207819829    3.82956753625106   -4.75538505247489
H         1.76104162271937    3.74703199042636   -7.17758248210714
H         0.09270270750217    2.18096369733459   -8.08562073630426
H        -1.14748679618718    0.67720914555186   -6.58053598138488
H        -1.59959024613092   -0.15394518999247   -4.30355379605898
H        -1.16440342350788   -0.06984613761310   -1.89181155968932
H         0.98245336976084   -2.31343351058036    1.96634485410805
H         2.66052405271960   -4.34185690117888    2.17432972208888
H         4.56165289022686   -5.64923911947934    1.64384789173045
H         6.59330439233071   -6.90440832882234    1.07083440775839
H         8.11543576564855   -6.06948962949411   -0.67957726586434
H         7.59419418912695   -3.96681986595543   -1.86196544638905
H         5.55492465650717   -2.70221064237123   -1.28806318032054
H        -0.50275471003166   -1.15784350907237    0.95438276350426
H         1.80573458938383    1.13608225384149    3.29000580045050
H        -1.88413359052327   -1.40703021483563    2.89150376129152
H        -3.62802018755460   -3.43145294512466    2.97470662302703
H        -6.14071729550712   -1.80725499367252   -0.77720654700866
H        -8.11800756321919   -3.06915034238155   -1.53821205292069
H        -8.73785514308153   -5.18181586706167   -0.42346380328743
H        -7.37468313819412   -6.02882094973132    1.44831992957135
H        -5.40166576069455   -4.77875036633617    2.20527525701308

          :  Hamiltonian                  GFN2-xTB          :
         :: total energy            -145.109980203317 Eh    ::
         :: gradient norm              0.000459797861 Eh/a0 ::
         :: HOMO-LUMO gap              2.726960218718 eV    ::
         :: SCC energy              -147.426000448619 Eh    ::
         :: -> dispersion             -0.118068109810 Eh    ::
         :: repulsion energy           2.315385647470 Eh    ::

    * Orbital Energies and Occupations

         #    Occupation            Energy/Eh            Energy/eV
      -------------------------------------------------------------
         1        2.0000           -0.7795831             -21.2135
       ...           ...                  ...                  ...
       119        2.0000           -0.4134545             -11.2507
       120        2.0000           -0.4123938             -11.2218
       121        2.0000           -0.4122115             -11.2168
       122        2.0000           -0.4121412             -11.2149
       123        2.0000           -0.4094124             -11.1407
       124        2.0000           -0.4040702             -10.9953
       125        2.0000           -0.4003181             -10.8932
       126        2.0000           -0.3997495             -10.8777
       127        2.0000           -0.3938884             -10.7182
       128        2.0000           -0.3861480             -10.5076
       129        2.0000           -0.3849111             -10.4740
       130        2.0000           -0.3840681             -10.4510
       131        2.0000           -0.3756403             -10.2217 (HOMO)
       132                         -0.2754264              -7.4947 (LUMO)
       133                         -0.2739104              -7.4535
       134                         -0.2703296              -7.3560
       135                         -0.2657588              -7.2317
       136                         -0.2570303              -6.9941
       137                         -0.2358963              -6.4191
       138                         -0.2350551              -6.3962
       139                         -0.2343035              -6.3757
       140                         -0.2294629              -6.2440
       141                         -0.2292753              -6.2389
       142                         -0.2270153              -6.1774
       ...                                ...                  ...
       248                          0.7116223              19.3642
      -------------------------------------------------------------
                  HL-Gap            0.1002139 Eh            2.7270 eV

     #   Z          covCN         q      C6AA      Î±(0)
     1   6 C        2.919    -0.035    28.877     8.812
     2   6 C        2.917    -0.036    28.889     8.814
     3   6 C        2.987     0.011    27.755     8.642
     4   6 C        2.918    -0.035    28.863     8.810
     5   6 C        2.916    -0.029    28.734     8.790
     6   6 C        2.916    -0.029    28.715     8.787
     7   6 C        2.918    -0.034    28.857     8.809
     8   6 C        2.987     0.015    27.668     8.628
     9   6 C        2.923    -0.044    29.095     8.846
    10   6 C        2.967     0.002    27.974     8.675
    11   6 C        3.839     0.036    19.948     6.354
    12   6 C        3.831     0.042    19.853     6.340
    13   6 C        2.970     0.008    27.839     8.655
    14   6 C        2.923    -0.034    28.852     8.809
    15   6 C        2.987     0.017    27.625     8.622
    16   6 C        2.918    -0.033    28.823     8.804
    17   6 C        2.916    -0.029    28.730     8.789
    18   6 C        2.916    -0.029    28.736     8.790
    19   6 C        2.918    -0.034    28.838     8.806
    20   6 C        2.988     0.014    27.688     8.632
    21   6 C        2.917    -0.033    28.813     8.802
    22   6 C        2.919    -0.030    28.749     8.793
    23   7 N        2.764    -0.121    23.629     7.220
    24   6 C        2.760     0.263    22.572     7.780
    25   6 C        3.082     0.072    26.298     8.407
    26   6 C        3.009    -0.065    29.612     8.926
    27   6 C        3.009    -0.068    29.668     8.935
    28   6 C        3.093     0.119    25.283     8.241
    29   6 C        2.971     0.005    27.907     8.665
    30   6 C        2.923    -0.035    28.861     8.810
    31   6 C        2.918    -0.027    28.683     8.782
    32   6 C        2.920    -0.028    28.688     8.783
    33   6 C        2.918    -0.026    28.658     8.779
    34   6 C        2.925    -0.028    28.696     8.785
    35   8 O        1.734    -0.156    16.653     5.510
    36   8 O        0.860    -0.415    21.981     6.286
    37   6 C        3.768     0.086    19.193     6.244
    38   6 C        2.689     0.354    20.982     7.496
    39   8 O        1.659    -0.349    19.884     6.020
    40   8 O        0.856    -0.393    21.543     6.223
    41   7 N        2.767    -0.120    23.603     7.216
    42   6 C        2.757     0.265    22.527     7.772
    43   6 C        3.096     0.074    26.245     8.396
    44   6 C        3.007    -0.068    29.680     8.937
    45   6 C        3.014    -0.066    29.632     8.929
    46   6 C        3.098     0.119    25.278     8.239
    47   6 C        2.971     0.005    27.905     8.665
    48   6 C        2.925    -0.028    28.696     8.785
    49   6 C        2.918    -0.026    28.663     8.779
    50   6 C        2.920    -0.028    28.689     8.784
    51   6 C        2.918    -0.027    28.679     8.782
    52   6 C        2.924    -0.035    28.860     8.810
    53   8 O        1.731    -0.165    16.787     5.532
    54   8 O        0.859    -0.407    21.820     6.263
    55   1 H        0.926     0.032     2.553     2.498
    56   1 H        0.926     0.038     2.480     2.463
    57   1 H        0.926     0.033     2.539     2.492
    58   1 H        0.926     0.033     2.547     2.496
    59   1 H        0.926     0.034     2.536     2.490
    60   1 H        0.926     0.035     2.518     2.481
    61   1 H        0.926     0.037     2.495     2.470
    62   1 H        0.924     0.091     1.866     2.136
    63   1 H        0.924     0.070     2.083     2.257
    64   1 H        0.926     0.039     2.462     2.454
    65   1 H        0.926     0.034     2.527     2.486
    66   1 H        0.926     0.031     2.567     2.505
    67   1 H        0.926     0.031     2.573     2.508
    68   1 H        0.926     0.033     2.550     2.497
    69   1 H        0.926     0.037     2.494     2.470
    70   1 H        0.926     0.026     2.644     2.543
    71   1 H        0.927     0.034     2.530     2.488
    72   1 H        0.926     0.044     2.398     2.422
    73   1 H        0.926     0.036     2.500     2.472
    74   1 H        0.926     0.036     2.502     2.474
    75   1 H        0.926     0.036     2.501     2.473
    76   1 H        0.926     0.038     2.470     2.458
    77   1 H        0.926     0.056     2.241     2.341
    78   1 H        0.924     0.072     2.062     2.246
    79   1 H        0.804     0.345     0.599     1.216
    80   1 H        0.926     0.063     2.162     2.299
    81   1 H        0.927     0.044     2.395     2.420
    82   1 H        0.926     0.053     2.277     2.360
    83   1 H        0.926     0.038     2.480     2.463
    84   1 H        0.926     0.036     2.506     2.475
    85   1 H        0.926     0.036     2.504     2.475
    86   1 H        0.926     0.037     2.494     2.470

Wiberg/Mayer (AO) data.
largest (>0.10) Wiberg bond orders for each atom

     #   Z sym  total        # sym  WBO       # sym  WBO       # sym  WBO
 ---------------------------------------------------------------------------
     1   6 C    3.991 --     2 C    1.558    10 C    1.299    55 H    0.966
     2   6 C    3.991 --     1 C    1.558     3 C    1.280    56 H    0.968
                             9 C    0.116
     3   6 C    3.990 --     2 C    1.280     4 C    1.280     8 C    1.249
     4   6 C    3.992 --     5 C    1.558     3 C    1.280    57 H    0.968
                             7 C    0.118
     5   6 C    3.990 --     4 C    1.558     6 C    1.319    58 H    0.971
     6   6 C    3.992 --     7 C    1.560     5 C    1.319    59 H    0.971
     7   6 C    3.991 --     6 C    1.560     8 C    1.277    60 H    0.968
                             4 C    0.118
     8   6 C    3.990 --     9 C    1.286     7 C    1.277     3 C    1.249
     9   6 C    3.990 --    10 C    1.521     8 C    1.286    61 H    0.964
                             2 C    0.116
    10   6 C    3.985 --     9 C    1.521     1 C    1.299    11 C    0.987
    11   6 C    3.956 --    10 C    0.987    41 N    0.966    12 C    0.956
                            62 H    0.936
    12   6 C    3.957 --    13 C    0.988    11 C    0.956    23 N    0.952
                            63 H    0.950
    13   6 C    3.984 --    14 C    1.528    22 C    1.293    12 C    0.988
    14   6 C    3.988 --    13 C    1.528    15 C    1.281    64 H    0.965
                            21 C    0.114
    15   6 C    3.990 --    14 C    1.281    16 C    1.279    20 C    1.251
    16   6 C    3.990 --    17 C    1.557    15 C    1.279    65 H    0.968
                            19 C    0.118
    17   6 C    3.992 --    16 C    1.557    18 C    1.321    66 H    0.971
    18   6 C    3.990 --    19 C    1.556    17 C    1.321    67 H    0.971
    19   6 C    3.992 --    18 C    1.556    20 C    1.282    68 H    0.968
                            16 C    0.118
    20   6 C    3.990 --    19 C    1.282    21 C    1.276    15 C    1.251
    21   6 C    3.992 --    22 C    1.565    20 C    1.276    69 H    0.968
                            14 C    0.114
    22   6 C    3.992 --    21 C    1.565    13 C    1.293    70 H    0.969
    23   7 N    3.444 --    24 C    1.182    37 C    0.989    12 C    0.952
                            36 O    0.184
    24   6 C    3.957 --    36 O    1.662    23 N    1.182    25 C    1.021
    25   6 C    3.894 --    26 C    1.489    35 O    1.118    24 C    1.021
                            28 C    0.118
    26   6 C    3.984 --    25 C    1.489    27 C    1.357    71 H    0.969
    27   6 C    3.982 --    28 C    1.471    26 C    1.357    72 H    0.973
    28   6 C    3.912 --    27 C    1.471    35 O    1.141    29 C    1.086
                            25 C    0.118
    29   6 C    3.988 --    30 C    1.370    34 C    1.369    28 C    1.086
    30   6 C    3.987 --    31 C    1.460    29 C    1.370    73 H    0.968
                            33 C    0.105
    31   6 C    3.992 --    30 C    1.460    32 C    1.429    74 H    0.971
                            34 C    0.105
    32   6 C    3.977 --    33 C    1.431    31 C    1.429    75 H    0.971
    33   6 C    3.992 --    34 C    1.459    32 C    1.431    76 H    0.970
                            30 C    0.105
    34   6 C    3.989 --    33 C    1.459    29 C    1.369    77 H    0.967
                            31 C    0.105
    35   8 O    2.470 --    28 C    1.141    25 C    1.118
    36   8 O    2.009 --    24 C    1.662    23 N    0.184
    37   6 C    3.974 --    23 N    0.989    41 N    0.988    78 H    0.937
                            38 C    0.904
    38   6 C    3.916 --    40 O    1.762    39 O    1.174    37 C    0.904
    39   8 O    2.239 --    38 C    1.174    79 H    0.854    40 O    0.184
    40   8 O    2.056 --    38 C    1.762    39 O    0.184
    41   7 N    3.442 --    42 C    1.160    37 C    0.988    11 C    0.966
                            54 O    0.179
    42   6 C    3.953 --    54 O    1.677    41 N    1.160    43 C    1.022
    43   6 C    3.895 --    44 C    1.489    53 O    1.114    42 C    1.022
                            46 C    0.119
    44   6 C    3.983 --    43 C    1.489    45 C    1.353    80 H    0.964
    45   6 C    3.983 --    46 C    1.476    44 C    1.353    81 H    0.973
    46   6 C    3.910 --    45 C    1.476    53 O    1.133    47 C    1.088
                            43 C    0.119
    47   6 C    3.988 --    48 C    1.369    52 C    1.369    46 C    1.088
    48   6 C    3.989 --    49 C    1.459    47 C    1.369    82 H    0.968
                            51 C    0.105
    49   6 C    3.992 --    48 C    1.459    50 C    1.431    83 H    0.970
                            52 C    0.105
    50   6 C    3.977 --    49 C    1.431    51 C    1.429    84 H    0.971
    51   6 C    3.992 --    52 C    1.461    50 C    1.429    85 H    0.971
                            48 C    0.105
    52   6 C    3.987 --    51 C    1.461    47 C    1.369    86 H    0.968
                            49 C    0.105
    53   8 O    2.460 --    46 C    1.133    43 C    1.114
    54   8 O    2.027 --    42 C    1.677    41 N    0.179
    55   1 H    0.999 --     1 C    0.966
    56   1 H    0.998 --     2 C    0.968
    57   1 H    0.998 --     4 C    0.968
    58   1 H    0.998 --     5 C    0.971
    59   1 H    0.998 --     6 C    0.971
    60   1 H    0.998 --     7 C    0.968
    61   1 H    0.998 --     9 C    0.964
    62   1 H    0.990 --    11 C    0.936
    63   1 H    0.994 --    12 C    0.950
    64   1 H    0.998 --    14 C    0.965
    65   1 H    0.998 --    16 C    0.968
    66   1 H    0.999 --    17 C    0.971
    67   1 H    0.999 --    18 C    0.971
    68   1 H    0.998 --    19 C    0.968
    69   1 H    0.998 --    21 C    0.968
    70   1 H    0.999 --    22 C    0.969
    71   1 H    0.998 --    26 C    0.969
    72   1 H    0.998 --    27 C    0.973
    73   1 H    0.999 --    30 C    0.968
    74   1 H    0.998 --    31 C    0.971
    75   1 H    0.998 --    32 C    0.971
    76   1 H    0.998 --    33 C    0.970
    77   1 H    0.997 --    34 C    0.967
    78   1 H    0.994 --    37 C    0.937
    79   1 H    0.880 --    39 O    0.854
    80   1 H    0.996 --    44 C    0.964
    81   1 H    0.997 --    45 C    0.973
    82   1 H    0.997 --    48 C    0.968
    83   1 H    0.998 --    49 C    0.970
    84   1 H    0.998 --    50 C    0.971
    85   1 H    0.998 --    51 C    0.971
    86   1 H    0.999 --    52 C    0.968
 ---------------------------------------------------------------------------

molecular dipole:
                 x           y           z       tot (Debye)
 q only:        0.576      -0.681       0.622
   full:        0.583      -0.957       1.070       3.939

           -------------------------------------------------
          | TOTAL ENERGY             -145.109980203317 Eh   |
          | GRADIENT NORM               0.000459797861 Eh/Î± |
          | HOMO-LUMO GAP               2.726960218718 eV   |
           -------------------------------------------------

 * finished run on 2022/03/16 at 21:18:03.942
