   * xtb version 6.3.3 (4ae9cef) compiled by 'conda@95abc7406d43' on 2020-10-14
          program call               : xtb acid_180.xyz --opt --chrg 0 --uhf 0 --gfn 2
          number of atoms            :                    70
          number of electrons        :                   258
          charge                     :                     0
          spin                       :                   0.0

   ID    Z sym.   atoms
    1    6 C      1, 2, 6-15, 19-22, 24-29, 33, 35, 36, 40-43, 47-49
    2    9 F      3-5, 16-18
    3    7 N      23, 30, 39, 44
    4    8 O      31, 32, 34, 37, 38, 45, 46, 50
    5    1 H      51-70

          :  Hamiltonian                  GFN2-xTB          :
 * total energy  :  -151.1730003 Eh     change       -0.3731117E-08 Eh
 * total energy  :  -151.1947884 Eh     change       -0.2178810E-01 Eh
 * total energy  :  -151.2012794 Eh     change       -0.6490949E-02 Eh
 * total energy  :  -151.2031114 Eh     change       -0.1832069E-02 Eh
 * total energy  :  -151.2048115 Eh     change       -0.1700089E-02 Eh
 * total energy  :  -151.2059627 Eh     change       -0.1151146E-02 Eh
 * total energy  :  -151.2072159 Eh     change       -0.1253245E-02 Eh
 * total energy  :  -151.2080989 Eh     change       -0.8829846E-03 Eh
 * total energy  :  -151.2090242 Eh     change       -0.9253033E-03 Eh
 * total energy  :  -151.2097433 Eh     change       -0.7190606E-03 Eh
 * total energy  :  -151.2288355 Eh     change       -0.2204060E-04 Eh
 * total energy  :  -151.2288451 Eh     change       -0.9581039E-05 Eh
 * total energy  :  -151.2288527 Eh     change       -0.7582249E-05 Eh
 * total energy  :  -151.2288604 Eh     change       -0.7708065E-05 Eh
 * total energy  :  -151.2288657 Eh     change       -0.5269656E-05 Eh
 * total energy  :  -151.2288729 Eh     change       -0.7178338E-05 Eh
 * total energy  :  -151.2288788 Eh     change       -0.5986005E-05 Eh
 * total energy  :  -151.2288841 Eh     change       -0.5228148E-05 Eh
 * total energy  :  -151.2288867 Eh     change       -0.2671668E-05 Eh
   *** GEOMETRY OPTIMIZATION CONVERGED AFTER 89 ITERATIONS ***

 final structure:
================
70
 xtb: 6.3.3 (4ae9cef)
C        -2.18206803819579   -0.12322657428944   -1.95958555868104
C        -1.45177962150601    1.10135891257589   -2.44770771672204
F        -1.86727759132875    1.50993003436210   -3.64812927067990
F        -1.61685770206380    2.15711405078526   -1.62197433286077
F        -0.12097593641474    0.93269823068029   -2.56372901648788
C        -3.28770497484462   -0.52856898631780   -2.70072605268290
C        -4.04055670302313   -1.61979524653079   -2.31208876734338
C        -3.69646440790433   -2.30953807656077   -1.16438254939563
C        -2.60752397830820   -1.89943297913180   -0.41863942918537
C        -1.82723153850118   -0.80839665129167   -0.79127933140874
C        -0.64163656549452   -0.50467475068498    0.10102720729214
C         0.70766680268999   -0.93711220559782   -0.52142050918785
C         1.28609660005857   -2.13416403764261    0.20156795258202
C         1.14699971480187   -3.45122246542163   -0.24001514145062
C         0.30311041238168   -3.90523837008473   -1.40371766107519
F         0.02460906208266   -3.00396597535631   -2.35456655984160
F        -0.90655811796059   -4.33053732021304   -0.95625606366909
F         0.84080137819631   -4.95253196105969   -2.04156618574909
C         1.73003197105175   -4.49372289350988    0.47942622507272
C         2.44745065813971   -4.24434430687722    1.63190579507414
C         2.55725956897566   -2.94484473739155    2.09567146455759
C         1.97731292786622   -1.90906427854902    1.38976057987376
N         1.56294420641546    0.23417733064285   -0.38630212244005
C         2.85524403178297    0.17074620699853   -0.79640287998231
C         3.61749290267865    1.45102816003069   -0.64115536847560
C         4.62172724011343    1.52868253258929    0.31874534514188
C         5.35027622124046    2.69683306347256    0.47853157662509
C         5.09074393264327    3.79117325518498   -0.32554407623370
C         4.10335024356435    3.69571597411962   -1.29771187426295
N         3.83112390927671    4.83565948228983   -2.14563656312072
O         4.50019800199347    5.83060010673319   -1.97459142599540
O         2.95049228659814    4.72408290426809   -2.96781640469168
C         3.36386769037200    2.53411036748752   -1.46842149896769
O         3.34839869510388   -0.85047004053752   -1.21884754334307
C         0.87274604568327    1.39116429580150    0.12061837617553
C         1.55750633608318    1.96563154473560    1.38531988546055
O         1.91264250290812    3.22880030336741    1.21950872843117
O         1.83300444584677    1.29108232294804    2.34094177271809
N        -0.44270352287589    0.88800436300101    0.46469288425058
C        -1.12301256509087    1.53278654345903    1.44475807929986
C        -2.42694577379402    0.90071853545206    1.81185880544742
C        -3.49437965946397    0.93285117616624    0.92893908188604
C        -4.67206083114443    0.28580598707459    1.27517137859586
N        -5.75641251031173    0.25122950594705    0.32094886031560
O        -5.54897861428179    0.72028420560904   -0.77690838517841
O        -6.79294298443337   -0.26777855472929    0.66844687349921
C        -4.81268306808172   -0.36085318506069    2.49641911242329
C        -3.75384558740007   -0.35198030002895    3.38616824680517
C        -2.56300721424119    0.27075025676001    3.04541629863351
O        -0.67998395349791    2.53669843574407    1.96322573154494
H        -3.56125557305621    0.01821223866316   -3.58861246662757
H        -4.89324196161626   -1.91839729788291   -2.89972295740736
H        -4.27162294531663   -3.16372607823768   -0.84342295252108
H        -2.35088962025553   -2.44283395879988    0.47876457041345
H        -0.79407536998596   -1.07614361040090    1.02851093699705
H         0.60757465877054   -1.14888638117073   -1.58749433566791
H         1.61898152823785   -5.50598039932037    0.12184162506651
H         2.90625683553865   -5.06073798168776    2.16687188169161
H         3.09516428308702   -2.73410448269934    3.00713441511812
H         2.06358313960384   -0.90033796670003    1.76599871988831
H         4.82280914526193    0.66915695105399    0.94002083595268
H         6.12215787989379    2.75140927433000    1.23029041841106
H         5.63979479247992    4.71451091606291   -0.22158303510764
H         2.61699781712619    2.48816887802606   -2.24698135094541
H         0.79631234727021    2.20611894532710   -0.61447682218575
H         2.26146838112853    3.60483207082211    2.04360639773923
H        -3.43319642057738    1.45944820687928   -0.01008719949404
H        -5.74394872622215   -0.85466939775917    2.72798276109329
H        -3.85213620421567   -0.83727246468046    4.34465991061419
H        -1.73024031555144    0.27297834673885    3.73275167435148

          :  Hamiltonian                  GFN2-xTB          :
         :: total energy            -151.228886738249 Eh    ::
         :: gradient norm              0.000701442780 Eh/a0 ::
         :: HOMO-LUMO gap              2.129588993437 eV    ::
         :: SCC energy              -152.897873253805 Eh    ::
         :: -> dispersion             -0.109766586146 Eh    ::
         :: repulsion energy           1.664694399471 Eh    ::

    * Orbital Energies and Occupations

         #    Occupation            Energy/Eh            Energy/eV
      -------------------------------------------------------------
         1        2.0000           -0.8937589             -24.3204
       ...           ...                  ...                  ...
       117        2.0000           -0.4598952             -12.5144
       118        2.0000           -0.4585759             -12.4785
       119        2.0000           -0.4576538             -12.4534
       120        2.0000           -0.4563502             -12.4179
       121        2.0000           -0.4537990             -12.3485
       122        2.0000           -0.4526281             -12.3166
       123        2.0000           -0.4498443             -12.2409
       124        2.0000           -0.4470630             -12.1652
       125        2.0000           -0.4450377             -12.1101
       126        2.0000           -0.4407575             -11.9936
       127        2.0000           -0.4372577             -11.8984
       128        2.0000           -0.4222510             -11.4900
       129        2.0000           -0.4209726             -11.4552 (HOMO)
       130                         -0.3427116              -9.3257 (LUMO)
       131                         -0.3290836              -8.9548
       132                         -0.2918765              -7.9424
       133                         -0.2859740              -7.7817
       134                         -0.2811197              -7.6497
       135                         -0.2775669              -7.5530
       136                         -0.2740815              -7.4581
       137                         -0.2701079              -7.3500
       138                         -0.2666513              -7.2560
       139                         -0.2639812              -7.1833
       140                         -0.2529139              -6.8821
       ...                                ...                  ...
       220                          0.6278819              17.0855
      -------------------------------------------------------------
                  HL-Gap            0.0782610 Eh            2.1296 eV

     #   Z          covCN         q      C6AA      Î±(0)
     1   6 C        2.974    -0.027    28.659     8.781
     2   6 C        3.336     0.488    17.261     6.580
     3   9 F        0.792    -0.193    11.160     3.946
     4   9 F        0.791    -0.215    11.386     3.986
     5   9 F        0.791    -0.214    11.384     3.986
     6   6 C        2.925    -0.014    28.373     8.735
     7   6 C        2.919    -0.014    28.358     8.733
     8   6 C        2.918    -0.017    28.430     8.744
     9   6 C        2.931    -0.033    28.814     8.803
    10   6 C        2.965     0.001    27.993     8.678
    11   6 C        3.814     0.040    19.892     6.348
    12   6 C        3.820     0.043    19.845     6.340
    13   6 C        2.968     0.019    27.584     8.615
    14   6 C        2.974    -0.029    28.719     8.790
    15   6 C        3.339     0.484    17.273     6.575
    16   9 F        0.791    -0.208    11.321     3.975
    17   9 F        0.792    -0.221    11.453     3.998
    18   9 F        0.792    -0.196    11.194     3.952
    19   6 C        2.930    -0.021    28.526     8.759
    20   6 C        2.918    -0.022    28.553     8.763
    21   6 C        2.919    -0.017    28.441     8.745
    22   6 C        2.927    -0.030    28.747     8.793
    23   7 N        2.763    -0.105    23.307     7.170
    24   6 C        2.765     0.273    22.383     7.748
    25   6 C        2.978    -0.009    28.243     8.717
    26   6 C        2.923    -0.013    28.329     8.728
    27   6 C        2.920    -0.021    28.541     8.761
    28   6 C        2.918    -0.020    28.509     8.756
    29   6 C        2.917     0.009    27.817     8.649
    30   7 N        2.759     0.550    13.479     5.453
    31   8 O        0.930    -0.380    21.242     6.181
    32   8 O        0.930    -0.375    21.148     6.167
    33   6 C        2.920    -0.021    28.522     8.758
    34   8 O        0.859    -0.404    21.754     6.253
    35   6 C        3.757     0.089    19.147     6.239
    36   6 C        2.688     0.368    20.768     7.458
    37   8 O        1.660    -0.355    20.004     6.038
    38   8 O        0.856    -0.404    21.761     6.254
    39   7 N        2.763    -0.107    23.338     7.175
    40   6 C        2.772     0.277    22.313     7.736
    41   6 C        2.978    -0.002    28.073     8.691
    42   6 C        2.921    -0.021    28.543     8.761
    43   6 C        2.917     0.005    27.909     8.663
    44   7 N        2.760     0.547    13.510     5.459
    45   8 O        0.930    -0.384    21.334     6.194
    46   8 O        0.930    -0.373    21.120     6.163
    47   6 C        2.918    -0.019    28.485     8.752
    48   6 C        2.920    -0.020    28.507     8.756
    49   6 C        2.922    -0.014    28.351     8.732
    50   8 O        0.860    -0.398    21.641     6.237
    51   1 H        0.926     0.082     1.954     2.186
    52   1 H        0.926     0.072     2.062     2.246
    53   1 H        0.926     0.065     2.139     2.287
    54   1 H        0.926     0.047     2.361     2.403
    55   1 H        0.923     0.053     2.281     2.362
    56   1 H        0.924     0.089     1.884     2.147
    57   1 H        0.926     0.066     2.126     2.280
    58   1 H        0.926     0.059     2.206     2.322
    59   1 H        0.926     0.059     2.207     2.323
    60   1 H        0.926     0.073     2.055     2.242
    61   1 H        0.926     0.064     2.149     2.292
    62   1 H        0.926     0.064     2.154     2.295
    63   1 H        0.926     0.087     1.904     2.158
    64   1 H        0.926     0.088     1.903     2.157
    65   1 H        0.923     0.088     1.902     2.157
    66   1 H        0.804     0.351     0.586     1.202
    67   1 H        0.926     0.087     1.913     2.163
    68   1 H        0.926     0.090     1.882     2.145
    69   1 H        0.926     0.068     2.102     2.267
    70   1 H        0.926     0.069     2.097     2.265

Wiberg/Mayer (AO) data.
largest (>0.10) Wiberg bond orders for each atom

     #   Z sym  total        # sym  WBO       # sym  WBO       # sym  WBO
 ---------------------------------------------------------------------------
     1   6 C    3.971 --     6 C    1.416    10 C    1.381     2 C    0.950
                             8 C    0.105
     2   6 C    3.823 --     3 F    0.964     1 C    0.950     5 F    0.938
                             4 F    0.934
     3   9 F    1.088 --     2 C    0.964
     4   9 F    1.065 --     2 C    0.934
     5   9 F    1.066 --     2 C    0.938
     6   6 C    3.984 --     7 C    1.438     1 C    1.416    51 H    0.963
                             9 C    0.107
     7   6 C    3.986 --     6 C    1.438     8 C    1.437    52 H    0.967
                            10 C    0.109
     8   6 C    3.989 --     9 C    1.443     7 C    1.437    53 H    0.967
                             1 C    0.105
     9   6 C    3.989 --     8 C    1.443    10 C    1.412    54 H    0.966
                             6 C    0.107
    10   6 C    3.986 --     9 C    1.412     1 C    1.381    11 C    0.989
                             7 C    0.109
    11   6 C    3.967 --    10 C    0.989    39 N    0.964    55 H    0.953
                            12 C    0.949
    12   6 C    3.963 --    13 C    0.989    23 N    0.961    11 C    0.949
                            56 H    0.947
    13   6 C    3.986 --    22 C    1.405    14 C    1.393    12 C    0.989
                            20 C    0.107
    14   6 C    3.968 --    19 C    1.403    13 C    1.393    15 C    0.950
                            21 C    0.106
    15   6 C    3.820 --    18 F    0.958    14 C    0.950    16 F    0.948
                            17 F    0.925
    16   9 F    1.078 --    15 C    0.948
    17   9 F    1.055 --    15 C    0.925
    18   9 F    1.083 --    15 C    0.958
    19   6 C    3.987 --    20 C    1.450    14 C    1.403    57 H    0.966
                            22 C    0.110
    20   6 C    3.988 --    19 C    1.450    21 C    1.428    58 H    0.968
                            13 C    0.107
    21   6 C    3.990 --    22 C    1.452    20 C    1.428    59 H    0.968
                            14 C    0.106
    22   6 C    3.986 --    21 C    1.452    13 C    1.405    60 H    0.957
                            19 C    0.110
    23   7 N    3.469 --    24 C    1.207    35 C    0.988    12 C    0.961
                            34 O    0.196
    24   6 C    3.949 --    34 O    1.704    23 N    1.207    25 C    0.955
    25   6 C    3.988 --    33 C    1.418    26 C    1.399    24 C    0.955
                            28 C    0.104
    26   6 C    3.988 --    27 C    1.434    25 C    1.399    61 H    0.967
    27   6 C    3.989 --    28 C    1.449    26 C    1.434    62 H    0.967
                            33 C    0.106
    28   6 C    3.984 --    27 C    1.449    29 C    1.384    63 H    0.960
                            25 C    0.104
    29   6 C    3.966 --    33 C    1.390    28 C    1.384    30 N    0.956
    30   7 N    3.914 --    32 O    1.461    31 O    1.455    29 C    0.956
    31   8 O    1.940 --    30 N    1.455    32 O    0.368
    32   8 O    1.946 --    30 N    1.461    31 O    0.368
    33   6 C    3.985 --    25 C    1.418    29 C    1.390    64 H    0.957
                            27 C    0.106
    34   8 O    2.039 --    24 C    1.704    23 N    0.196
    35   6 C    3.959 --    23 N    0.988    39 N    0.974    65 H    0.939
                            36 C    0.905
    36   6 C    3.923 --    38 O    1.745    37 O    1.166    35 C    0.905
    37   8 O    2.224 --    36 C    1.166    66 H    0.851    38 O    0.173
    38   8 O    2.046 --    36 C    1.745    37 O    0.173
    39   7 N    3.464 --    40 C    1.219    35 C    0.974    11 C    0.964
                            50 O    0.189
    40   6 C    3.946 --    50 O    1.681    39 N    1.219    41 C    0.961
    41   6 C    3.989 --    42 C    1.417    49 C    1.398    40 C    0.961
                            47 C    0.104
    42   6 C    3.985 --    41 C    1.417    43 C    1.387    67 H    0.957
                            48 C    0.107
    43   6 C    3.964 --    42 C    1.387    47 C    1.384    44 N    0.957
    44   7 N    3.913 --    46 O    1.459    45 O    1.453    43 C    0.957
    45   8 O    1.938 --    44 N    1.453    46 O    0.366
    46   8 O    1.944 --    44 N    1.459    45 O    0.366
    47   6 C    3.983 --    48 C    1.448    43 C    1.384    68 H    0.959
                            41 C    0.104
    48   6 C    3.988 --    47 C    1.448    49 C    1.434    69 H    0.966
                            42 C    0.107
    49   6 C    3.987 --    48 C    1.434    41 C    1.398    70 H    0.967
    50   8 O    2.074 --    40 C    1.681    39 N    0.189
    51   1 H    0.993 --     6 C    0.963
    52   1 H    0.994 --     7 C    0.967
    53   1 H    0.995 --     8 C    0.967
    54   1 H    0.997 --     9 C    0.966
    55   1 H    0.997 --    11 C    0.953
    56   1 H    0.991 --    12 C    0.947
    57   1 H    0.995 --    19 C    0.966
    58   1 H    0.996 --    20 C    0.968
    59   1 H    0.996 --    21 C    0.968
    60   1 H    0.994 --    22 C    0.957
    61   1 H    0.996 --    26 C    0.967
    62   1 H    0.995 --    27 C    0.967
    63   1 H    0.992 --    28 C    0.960
    64   1 H    0.992 --    33 C    0.957
    65   1 H    0.992 --    35 C    0.939
    66   1 H    0.876 --    37 O    0.851
    67   1 H    0.992 --    42 C    0.957
    68   1 H    0.991 --    47 C    0.959
    69   1 H    0.994 --    48 C    0.966
    70   1 H    0.995 --    49 C    0.967
 ---------------------------------------------------------------------------

molecular dipole:
                 x           y           z       tot (Debye)
 q only:        0.419      -2.291       3.461
   full:        0.420      -2.113       3.538      10.527

           -------------------------------------------------
          | TOTAL ENERGY             -151.228886738249 Eh   |
          | GRADIENT NORM               0.000701442780 Eh/Î± |
          | HOMO-LUMO GAP               2.129588993437 eV   |
           -------------------------------------------------

 * finished run on 2022/03/16 at 22:11:15.781
