   * xtb version 6.3.3 (4ae9cef) compiled by 'conda@95abc7406d43' on 2020-10-14
          program call               : xtb acid_439.xyz --opt --chrg 0 --uhf 0 --gfn 2
          number of atoms            :                    66
          number of electrons        :                   230
          charge                     :                     0
          spin                       :                   0.0

   ID    Z sym.   atoms
    1    6 C      1-22, 24-26, 29, 31, 33, 34, 38-40, 43, 45
    2    7 N      23, 37
    3   17 Cl     27, 30, 41, 44
    4   16 S      28, 42
    5    8 O      32, 35, 36, 46
    6    1 H      47-66

          :  Hamiltonian                  GFN2-xTB          :
 * total energy  :  -129.8211309 Eh     change       -0.1269368E-07 Eh
 * total energy  :  -129.8385605 Eh     change       -0.1742961E-01 Eh
 * total energy  :  -129.8438407 Eh     change       -0.5280156E-02 Eh
 * total energy  :  -129.8451610 Eh     change       -0.1320278E-02 Eh
 * total energy  :  -129.8458516 Eh     change       -0.6906427E-03 Eh
 * total energy  :  -129.8461469 Eh     change       -0.2952848E-03 Eh
 * total energy  :  -129.8464315 Eh     change       -0.2845629E-03 Eh
 * total energy  :  -129.8467347 Eh     change       -0.3032182E-03 Eh
 * total energy  :  -129.8469691 Eh     change       -0.2344234E-03 Eh
 * total energy  :  -129.8471738 Eh     change       -0.2047440E-03 Eh
 * total energy  :  -129.8502059 Eh     change       -0.8796091E-05 Eh
 * total energy  :  -129.8502155 Eh     change       -0.9615541E-05 Eh
 * total energy  :  -129.8502267 Eh     change       -0.1123767E-04 Eh
 * total energy  :  -129.8502389 Eh     change       -0.1214101E-04 Eh
 * total energy  :  -129.8502476 Eh     change       -0.8694441E-05 Eh
 * total energy  :  -129.8502541 Eh     change       -0.6556667E-05 Eh
 * total energy  :  -129.8502603 Eh     change       -0.6204228E-05 Eh
 * total energy  :  -129.8502659 Eh     change       -0.5548501E-05 Eh
 * total energy  :  -129.8502698 Eh     change       -0.3899201E-05 Eh
   *** GEOMETRY OPTIMIZATION CONVERGED AFTER 82 ITERATIONS ***

 final structure:
================
66
 xtb: 6.3.3 (4ae9cef)
C         1.16844222141970    3.02171789532144   -0.85185980693212
C         1.18585790227597    4.31022572450900   -0.39993164163143
C         0.29290156300345    4.73719325516413    0.60453033201832
C         0.26979881872278    6.06435296726979    1.08118391056730
C        -0.61771572915105    6.44180658802949    2.04958606096009
C        -1.52152606647252    5.51105635662402    2.58744367448040
C        -1.52209574912727    4.21665900017616    2.14967823825730
C        -0.61924488082132    3.79701336523992    1.15016284096805
C        -0.60553372238498    2.47196285560303    0.67358932951944
C         0.26141010363522    2.08968224801173   -0.31678669008357
C         0.25721050850633    0.67289331397329   -0.83583002168745
C         0.84589743835469   -0.32972445163062    0.17127241577350
C         2.00564381145602   -1.11283016325364   -0.38860282088579
C         3.26268052398033   -0.96965353172423    0.13363150129266
C         4.35500245988926   -1.68981514623550   -0.39061015725960
C         5.65874136954623   -1.55414274526795    0.13036258870285
C         6.69800573525411   -2.26762924856691   -0.39750419932184
C         6.48246605170915   -3.14856568114992   -1.46919766429511
C         5.23042563432966   -3.30288606823120   -1.99545058049763
C         4.13737487033815   -2.58121239751475   -1.47343522738239
C         2.83154345184677   -2.71336895431072   -1.99049840132148
C         1.79527678845175   -1.99670875151949   -1.46572150264600
N        -0.26840236447901   -1.21350886067980    0.50321096150188
C        -0.19543345321752   -1.96664907127168    1.62849368531551
C        -1.38437827967025   -2.83490398819773    1.89356777014469
C        -1.79316253778688   -3.86977587599887    1.10348908761088
Cl       -1.09121571902672   -4.36554910596492   -0.37847702474899
S        -3.15830338896437   -4.72014456806524    1.76382478031564
C        -3.15685736334440   -3.65056770127633    3.13529602584550
Cl       -4.31649793536515   -3.82750897130599    4.36549204081083
C        -2.16421043634441   -2.72606056725107    3.07393120008211
O         0.76837220948292   -1.95393311131540    2.35789961684656
C        -1.43075906142770   -0.99993945896297   -0.32212667501634
C        -2.69295504220667   -0.79899655032912    0.56355777223169
O        -3.71478881769350   -1.62757636214566    0.33786968338863
O        -2.74122596938108    0.03993352358839    1.41189359919643
N        -1.10294142761688    0.19379314998363   -1.06398785476640
C        -1.93188935420222    0.89080936919870   -1.87920351333710
C        -3.33749754609573    0.37284078301310   -1.91527887217563
C        -4.37085057860837    1.04396413912209   -1.32542915696209
Cl       -4.24155743457527    2.46825744774417   -0.40795759778931
S        -5.89563532029241    0.24703824520288   -1.56020424776203
C        -5.11011388576047   -0.98770731832650   -2.49738281297476
Cl       -5.99867984052741   -2.27998549835135   -3.16896418781178
C        -3.76678864951168   -0.79325842906856   -2.59894769481749
O        -1.56786770362607    1.85147291100985   -2.51393872641191
H         1.84612136637480    2.70622576749383   -1.63155089275442
H         1.88011727819934    5.02575092631661   -0.81633832923489
H         0.96581740986699    6.77809927157792    0.66365965862896
H        -0.63168510385088    7.46056224468810    2.40887126402541
H        -2.21650422479675    5.82954613830280    3.35078644409368
H        -2.21404482481726    3.49330059169201    2.55697553935888
H        -1.30664242329214    1.76777359074398    1.09774713718575
H         0.80485700977865    0.63629630264960   -1.78615110339477
H         1.16392497389313    0.17743285256544    1.08947207873193
H         3.43069477310221   -0.30093471484025    0.96502281994451
H         5.81827337589647   -0.87587909230772    0.95593629753659
H         7.69408879347776   -2.15958441467907    0.00583334697059
H         7.31593194131585   -3.70389010522455   -1.87368428686109
H         5.05985040467625   -3.98053211081910   -2.81997387304621
H         2.66489844448993   -3.39340743070112   -2.81386115096580
H         0.80097239414958   -2.10500947541683   -1.87502801923585
H        -1.98911332083244   -1.97566875278082    3.82179185664519
H        -1.59172448480337   -1.85173154135076   -1.01273489120541
H        -3.57201250913121   -2.25655301637698   -0.38491614336047
H        -3.11274347817561   -1.43186859240503   -3.16449679040143

          :  Hamiltonian                  GFN2-xTB          :
         :: total energy            -129.850269780772 Eh    ::
         :: gradient norm              0.000525227962 Eh/a0 ::
         :: HOMO-LUMO gap              2.259553538601 eV    ::
         :: SCC energy              -131.532658409614 Eh    ::
         :: -> dispersion             -0.113728601686 Eh    ::
         :: repulsion energy           1.679562016690 Eh    ::

    * Orbital Energies and Occupations

         #    Occupation            Energy/Eh            Energy/eV
      -------------------------------------------------------------
         1        2.0000           -1.0996587             -29.9232
       ...           ...                  ...                  ...
       103        2.0000           -0.4270375             -11.6203
       104        2.0000           -0.4258455             -11.5878
       105        2.0000           -0.4245565             -11.5528
       106        2.0000           -0.4210660             -11.4578
       107        2.0000           -0.4176089             -11.3637
       108        2.0000           -0.4160070             -11.3201
       109        2.0000           -0.4133244             -11.2471
       110        2.0000           -0.4126888             -11.2298
       111        2.0000           -0.4079438             -11.1007
       112        2.0000           -0.4069267             -11.0730
       113        2.0000           -0.3991699             -10.8620
       114        2.0000           -0.3892665             -10.5925
       115        2.0000           -0.3788545             -10.3092 (HOMO)
       116                         -0.2958175              -8.0496 (LUMO)
       117                         -0.2875059              -7.8234
       118                         -0.2799654              -7.6182
       119                         -0.2705224              -7.3613
       120                         -0.2613917              -7.1128
       121                         -0.2606701              -7.0932
       122                         -0.2557624              -6.9597
       123                         -0.2448876              -6.6637
       124                         -0.2412673              -6.5652
       125                         -0.2378990              -6.4736
       126                         -0.2300540              -6.2601
       ...                                ...                  ...
       234                          0.6972342              18.9727
      -------------------------------------------------------------
                  HL-Gap            0.0830371 Eh            2.2596 eV

     #   Z          covCN         q      C6AA      Î±(0)
     1   6 C        2.919    -0.031    28.783     8.798
     2   6 C        2.918    -0.032    28.798     8.800
     3   6 C        2.987     0.014    27.684     8.631
     4   6 C        2.918    -0.034    28.845     8.807
     5   6 C        2.916    -0.029    28.718     8.788
     6   6 C        2.916    -0.029    28.719     8.788
     7   6 C        2.918    -0.033    28.818     8.803
     8   6 C        2.988     0.017    27.626     8.622
     9   6 C        2.923    -0.042    29.048     8.838
    10   6 C        2.970     0.004    27.926     8.668
    11   6 C        3.820     0.044    19.826     6.337
    12   6 C        3.824     0.041    19.871     6.343
    13   6 C        2.969     0.002    27.986     8.677
    14   6 C        2.923    -0.035    28.863     8.810
    15   6 C        2.987     0.017    27.613     8.620
    16   6 C        2.918    -0.032    28.802     8.801
    17   6 C        2.916    -0.027    28.686     8.783
    18   6 C        2.916    -0.028    28.693     8.784
    19   6 C        2.918    -0.034    28.837     8.806
    20   6 C        2.988     0.014    27.689     8.632
    21   6 C        2.917    -0.034    28.844     8.807
    22   6 C        2.919    -0.035    28.872     8.811
    23   7 N        2.765    -0.103    23.252     7.162
    24   6 C        2.762     0.280    22.269     7.728
    25   6 C        3.157    -0.042    28.715     8.761
    26   6 C        2.905     0.070    26.432     8.430
    27  17 Cl       1.006    -0.131   103.256    15.546
    28  16 S        2.441     0.054   138.876    19.834
    29   6 C        2.901     0.097    25.854     8.337
    30  17 Cl       1.018    -0.100   102.275    15.472
    31   6 C        3.115    -0.050    29.066     8.831
    32   8 O        0.859    -0.393    21.542     6.223
    33   6 C        3.741     0.077    19.375     6.280
    34   6 C        2.686     0.345    21.148     7.526
    35   8 O        1.659    -0.361    20.099     6.052
    36   8 O        0.856    -0.338    20.481     6.068
    37   7 N        2.766    -0.107    23.332     7.174
    38   6 C        2.761     0.280    22.256     7.726
    39   6 C        3.171    -0.052    28.899     8.782
    40   6 C        2.903     0.092    25.947     8.352
    41  17 Cl       1.010    -0.088   101.920    15.445
    42  16 S        2.436     0.076   137.989    19.771
    43   6 C        2.903     0.085    26.109     8.378
    44  17 Cl       1.009    -0.114   102.717    15.505
    45   6 C        3.108    -0.073    29.661     8.923
    46   8 O        0.859    -0.392    21.526     6.221
    47   1 H        0.926     0.034     2.536     2.490
    48   1 H        0.926     0.038     2.470     2.458
    49   1 H        0.926     0.033     2.545     2.495
    50   1 H        0.926     0.032     2.561     2.502
    51   1 H        0.926     0.032     2.553     2.498
    52   1 H        0.926     0.039     2.460     2.453
    53   1 H        0.926     0.051     2.307     2.375
    54   1 H        0.924     0.065     2.145     2.291
    55   1 H        0.924     0.075     2.028     2.227
    56   1 H        0.926     0.044     2.393     2.419
    57   1 H        0.926     0.038     2.472     2.459
    58   1 H        0.926     0.036     2.509     2.477
    59   1 H        0.926     0.035     2.521     2.483
    60   1 H        0.926     0.034     2.526     2.485
    61   1 H        0.926     0.036     2.496     2.471
    62   1 H        0.926     0.024     2.674     2.557
    63   1 H        0.926     0.094     1.842     2.122
    64   1 H        0.922     0.045     2.388     2.417
    65   1 H        0.804     0.334     0.628     1.245
    66   1 H        0.926     0.070     2.083     2.257

Wiberg/Mayer (AO) data.
largest (>0.10) Wiberg bond orders for each atom

     #   Z sym  total        # sym  WBO       # sym  WBO       # sym  WBO
 ---------------------------------------------------------------------------
     1   6 C    3.990 --     2 C    1.560    10 C    1.298    47 H    0.968
     2   6 C    3.991 --     1 C    1.560     3 C    1.279    48 H    0.968
                             9 C    0.116
     3   6 C    3.990 --     4 C    1.280     2 C    1.279     8 C    1.250
     4   6 C    3.992 --     5 C    1.558     3 C    1.280    49 H    0.968
                             7 C    0.118
     5   6 C    3.990 --     4 C    1.558     6 C    1.319    50 H    0.971
     6   6 C    3.992 --     7 C    1.559     5 C    1.319    51 H    0.971
     7   6 C    3.990 --     6 C    1.559     8 C    1.277    52 H    0.968
                             4 C    0.118
     8   6 C    3.991 --     9 C    1.284     7 C    1.277     3 C    1.250
     9   6 C    3.989 --    10 C    1.524     8 C    1.284    53 H    0.959
                             2 C    0.116
    10   6 C    3.983 --     9 C    1.524     1 C    1.298    11 C    0.985
    11   6 C    3.952 --    10 C    0.985    12 C    0.959    54 H    0.953
                            37 N    0.948
    12   6 C    3.952 --    13 C    0.986    11 C    0.959    55 H    0.953
                            23 N    0.947
    13   6 C    3.984 --    14 C    1.528    22 C    1.293    12 C    0.986
    14   6 C    3.988 --    13 C    1.528    15 C    1.281    56 H    0.965
                            21 C    0.114
    15   6 C    3.990 --    14 C    1.281    16 C    1.279    20 C    1.251
    16   6 C    3.989 --    17 C    1.558    15 C    1.279    57 H    0.968
                            19 C    0.118
    17   6 C    3.992 --    16 C    1.558    18 C    1.321    58 H    0.971
    18   6 C    3.990 --    19 C    1.556    17 C    1.321    59 H    0.971
    19   6 C    3.992 --    18 C    1.556    20 C    1.282    60 H    0.968
                            16 C    0.118
    20   6 C    3.990 --    19 C    1.282    21 C    1.275    15 C    1.251
    21   6 C    3.992 --    22 C    1.565    20 C    1.275    61 H    0.968
                            14 C    0.114
    22   6 C    3.992 --    21 C    1.565    13 C    1.293    62 H    0.968
    23   7 N    3.472 --    24 C    1.214    33 C    0.990    12 C    0.947
                            32 O    0.197
    24   6 C    3.957 --    32 O    1.703    23 N    1.214    25 C    0.953
    25   6 C    3.978 --    26 C    1.533    31 C    1.227    24 C    0.953
    26   6 C    3.878 --    25 C    1.533    28 S    1.149    27 Cl   1.002
    27  17 Cl   1.164 --    26 C    1.002
    28  16 S    2.620 --    26 C    1.149    29 C    1.140
    29   6 C    3.895 --    31 C    1.585    28 S    1.140    30 Cl   1.029
    30  17 Cl   1.195 --    29 C    1.029
    31   6 C    3.977 --    29 C    1.585    25 C    1.227    63 H    0.955
    32   8 O    2.050 --    24 C    1.703    23 N    0.197
    33   6 C    3.971 --    23 N    0.990    37 N    0.987    64 H    0.936
                            34 C    0.899
    34   6 C    3.924 --    36 O    1.802    35 O    1.140    33 C    0.899
    35   8 O    2.220 --    34 C    1.140    65 H    0.856    36 O    0.167
    36   8 O    2.103 --    34 C    1.802    35 O    0.167
    37   7 N    3.471 --    38 C    1.214    33 C    0.987    11 C    0.948
                            46 O    0.199
    38   6 C    3.954 --    46 O    1.710    37 N    1.214    39 C    0.944
    39   6 C    3.974 --    40 C    1.526    45 C    1.233    38 C    0.944
    40   6 C    3.898 --    39 C    1.526    42 S    1.152    41 Cl   1.040
    41  17 Cl   1.214 --    40 C    1.040
    42  16 S    2.631 --    43 C    1.155    40 C    1.152
    43   6 C    3.891 --    45 C    1.566    42 S    1.155    44 Cl   1.017
    44  17 Cl   1.172 --    43 C    1.017
    45   6 C    3.974 --    43 C    1.566    39 C    1.233    66 H    0.960
    46   8 O    2.052 --    38 C    1.710    37 N    0.199
    47   1 H    0.998 --     1 C    0.968
    48   1 H    0.998 --     2 C    0.968
    49   1 H    0.998 --     4 C    0.968
    50   1 H    0.999 --     5 C    0.971
    51   1 H    0.998 --     6 C    0.971
    52   1 H    0.998 --     7 C    0.968
    53   1 H    0.997 --     9 C    0.959
    54   1 H    0.995 --    11 C    0.953
    55   1 H    0.994 --    12 C    0.953
    56   1 H    0.998 --    14 C    0.965
    57   1 H    0.998 --    16 C    0.968
    58   1 H    0.998 --    17 C    0.971
    59   1 H    0.998 --    18 C    0.971
    60   1 H    0.998 --    19 C    0.968
    61   1 H    0.998 --    21 C    0.968
    62   1 H    0.999 --    22 C    0.968
    63   1 H    0.991 --    31 C    0.955
    64   1 H    0.998 --    33 C    0.936
    65   1 H    0.889 --    35 O    0.856
    66   1 H    0.995 --    45 C    0.960
 ---------------------------------------------------------------------------

molecular dipole:
                 x           y           z       tot (Debye)
 q only:        0.514      -0.740      -0.650
   full:        0.534      -1.077      -0.719       3.560

           -------------------------------------------------
          | TOTAL ENERGY             -129.850269780772 Eh   |
          | GRADIENT NORM               0.000525227962 Eh/Î± |
          | HOMO-LUMO GAP               2.259553538601 eV   |
           -------------------------------------------------

 * finished run on 2022/03/17 at 01:12:48.119
