   * xtb version 6.3.3 (4ae9cef) compiled by 'conda@95abc7406d43' on 2020-10-14
          program call               : xtb acid_206.xyz --opt --chrg 0 --uhf 0 --gfn 2
          number of atoms            :                    78
          number of electrons        :                   250
          charge                     :                     0
          spin                       :                   0.0

   ID    Z sym.   atoms
    1    6 C      1, 2, 6-15, 19-22, 24-32, 34, 35, 39-47
    2    9 F      3-5, 16-18
    3    7 N      23, 38
    4    8 O      33, 36, 37, 48
    5    1 H      49-78

          :  Hamiltonian                  GFN2-xTB          :
 * total energy  :  -142.9634469 Eh     change       -0.2048267E-08 Eh
 * total energy  :  -142.9803146 Eh     change       -0.1686768E-01 Eh
 * total energy  :  -142.9851778 Eh     change       -0.4863178E-02 Eh
 * total energy  :  -142.9864452 Eh     change       -0.1267411E-02 Eh
 * total energy  :  -142.9873697 Eh     change       -0.9245167E-03 Eh
 * total energy  :  -142.9879323 Eh     change       -0.5625880E-03 Eh
 * total energy  :  -142.9884381 Eh     change       -0.5058486E-03 Eh
 * total energy  :  -142.9889595 Eh     change       -0.5213579E-03 Eh
 * total energy  :  -142.9894648 Eh     change       -0.5052862E-03 Eh
 * total energy  :  -142.9898877 Eh     change       -0.4228920E-03 Eh
 * total energy  :  -142.9930316 Eh     change       -0.5179198E-05 Eh
 * total energy  :  -142.9930371 Eh     change       -0.5553702E-05 Eh
 * total energy  :  -142.9930459 Eh     change       -0.8762180E-05 Eh
 * total energy  :  -142.9930563 Eh     change       -0.1036085E-04 Eh
 * total energy  :  -142.9930646 Eh     change       -0.8305504E-05 Eh
 * total energy  :  -142.9930735 Eh     change       -0.8883386E-05 Eh
 * total energy  :  -142.9930828 Eh     change       -0.9383281E-05 Eh
 * total energy  :  -142.9930885 Eh     change       -0.5632531E-05 Eh
 * total energy  :  -142.9930921 Eh     change       -0.3623192E-05 Eh
   *** GEOMETRY OPTIMIZATION CONVERGED AFTER 53 ITERATIONS ***

 final structure:
================
78
 xtb: 6.3.3 (4ae9cef)
C         0.55873737335946   -3.42560079150832   -1.90366462019709
C        -0.24103586860726   -2.98229390447283   -3.09872323256684
F        -0.54165180439735   -3.99371552287401   -3.92583759917454
F         0.35914882119493   -2.05351363951589   -3.85050503039378
F        -1.43736508180260   -2.45182601575089   -2.73957584856482
C         0.94860185508769   -4.75804758203909   -1.83198426082274
C         1.67646894013068   -5.21663803350958   -0.75069138839780
C         2.01384801292112   -4.34235920186534    0.26752674067912
C         1.62560309424568   -3.01855483160702    0.19630452519477
C         0.90225796200800   -2.53192506882023   -0.88715830800921
C         0.53540158267598   -1.06713196460238   -0.91821222254054
C        -0.59545711818839   -0.71002049238865    0.08519780249328
C        -1.94406873847723   -0.56908456285784   -0.57618136767455
C        -2.29346031707301    0.39621465971359   -1.52165832264886
C        -1.42647212009084    1.49765694633397   -2.07808903528320
F        -2.01424230122651    2.69983940100615   -1.90871825705094
F        -1.27303657821082    1.35291548523756   -3.40853079671874
F        -0.19302081826306    1.63231183215994   -1.58637931296304
C        -3.57278182835432    0.40433704571846   -2.07539188163517
C        -4.51344359566142   -0.53608370913675   -1.71281236833314
C        -4.17214715394940   -1.50924259613903   -0.79141885390017
C        -2.90767824765543   -1.51784487494608   -0.24044986558965
N        -0.10604052713381    0.48026379483764    0.75428021094999
C        -0.79353769919208    1.45230059871089    1.42076652345550
C        -2.24531114138063    1.18972513299208    1.61907439646253
C        -2.65633424364598    0.09844653238177    2.37353786465322
C        -4.00090862352128   -0.16058615632681    2.58534846525957
C        -4.41999874284727   -1.34682779198298    3.39817203075560
C        -4.95761882486167    0.69031953412778    2.02202092349297
C        -6.41838360922932    0.41694324729826    2.20119290821313
C        -4.53658497839476    1.79822402392747    1.30002723601760
C        -3.19403309339865    2.06364482917416    1.10850004431439
O        -0.22707260285409    2.44261526417726    1.83283773847431
C         1.32674131490739    0.55797074925847    0.65566198413185
C         2.01452761490775    0.00739024154237    1.92274723114871
O         1.14044735801565   -0.27127475127568    2.89028670678267
O         3.19639102533871   -0.15536276834918    2.03410351641976
N         1.64998705063755   -0.22473553306671   -0.50747938024389
C         2.83731611561709   -0.29534327337513   -1.18126943655955
C         3.83872327428056    0.74460722433815   -0.83368132932142
C         5.11201929823179    0.37195619138245   -0.43003312396970
C         6.04634895925950    1.34686685646949   -0.13677765963529
C         5.74452408318133    2.69601445291544   -0.25952329042985
C         6.77318332744598    3.73385650202154    0.06788004487191
C         4.47177999058067    3.07362137117727   -0.70137666076193
C         4.11592305017643    4.51910484346597   -0.86570060385550
C         3.53370609899433    2.09274217815332   -0.98202324968238
O         3.01687901604287   -1.15751981171943   -2.01618421937028
H         0.68586427233975   -5.43363000263085   -2.63093889667571
H         1.98327040897396   -6.24988082909555   -0.70918522644593
H         2.58787217515705   -4.68782937532014    1.11377677336518
H         1.91401701488271   -2.33817481828166    0.98237890609916
H         0.25902741302619   -0.77958319349328   -1.93712965501502
H        -0.66885092250185   -1.52719685443650    0.81936938487889
H        -3.81883414598262    1.16219323545269   -2.80393480329168
H        -5.49747494814698   -0.51281132837954   -2.15299829185926
H        -4.88760219397983   -2.26407156417257   -0.50421549858673
H        -2.65074324284318   -2.28469952050105    0.47449471613540
H        -1.91076704953237   -0.54970108417629    2.81254547981703
H        -5.01127383147565   -1.03289895413765    4.25745558762894
H        -3.55284285711991   -1.89411303067480    3.75869284876338
H        -5.03512190699331   -2.02096097087071    2.80303209185143
H        -7.01563201528429    1.17420167784646    1.70061551691063
H        -6.68221093434991    0.41028155636692    3.25819270125005
H        -6.67781786570713   -0.55803436882266    1.78962150141482
H        -5.27315684768557    2.46856650398910    0.88178141831323
H        -2.87951742856580    2.93373038346477    0.55391925219401
H         1.64015339143470    1.60826222858244    0.56765253481465
H         1.60203381543531   -0.53343913960794    3.70415123506047
H         5.35547989915963   -0.67448836327835   -0.33514818630171
H         7.03294371033027    1.05425011654142    0.19281932792293
H         7.69782228939517    3.26893072431108    0.39980774304794
H         6.41335861158940    4.39370632193929    0.85665349779973
H         6.98829167337135    4.34964872734073   -0.80496528645170
H         4.78990358551079    5.00368558243799   -1.57123065687774
H         3.09758134003343    4.62520085269778   -1.22967174345993
H         4.19928842976076    5.04348524700250    0.08580142867514
H         2.55806159895038    2.38101617952520   -1.34877906844891

          :  Hamiltonian                  GFN2-xTB          :
         :: total energy            -142.993092100427 Eh    ::
         :: gradient norm              0.000417861197 Eh/a0 ::
         :: HOMO-LUMO gap              2.949617921359 eV    ::
         :: SCC energy              -144.801586520500 Eh    ::
         :: -> dispersion             -0.114859476372 Eh    ::
         :: repulsion energy           1.804040610793 Eh    ::

    * Orbital Energies and Occupations

         #    Occupation            Energy/Eh            Energy/eV
      -------------------------------------------------------------
         1        2.0000           -0.8805509             -23.9610
       ...           ...                  ...                  ...
       113        2.0000           -0.4409315             -11.9984
       114        2.0000           -0.4349240             -11.8349
       115        2.0000           -0.4336630             -11.8006
       116        2.0000           -0.4299710             -11.7001
       117        2.0000           -0.4159538             -11.3187
       118        2.0000           -0.4121124             -11.2141
       119        2.0000           -0.4103282             -11.1656
       120        2.0000           -0.4045861             -11.0093
       121        2.0000           -0.3993262             -10.8662
       122        2.0000           -0.3976773             -10.8214
       123        2.0000           -0.3923461             -10.6763
       124        2.0000           -0.3891195             -10.5885
       125        2.0000           -0.3825910             -10.4108 (HOMO)
       126                         -0.2741945              -7.4612 (LUMO)
       127                         -0.2668588              -7.2616
       128                         -0.2637228              -7.1763
       129                         -0.2629223              -7.1545
       130                         -0.2562973              -6.9742
       131                         -0.2463288              -6.7029
       132                         -0.2357509              -6.4151
       133                         -0.2317126              -6.3052
       134                         -0.2135230              -5.8103
       135                         -0.2063339              -5.6146
       136                         -0.1910578              -5.1989
       ...                                ...                  ...
       222                          0.6749321              18.3658
      -------------------------------------------------------------
                  HL-Gap            0.1083965 Eh            2.9496 eV

     #   Z          covCN         q      C6AA      Î±(0)
     1   6 C        2.976    -0.026    28.635     8.778
     2   6 C        3.335     0.486    17.298     6.588
     3   9 F        0.792    -0.202    11.259     3.964
     4   9 F        0.791    -0.194    11.177     3.949
     5   9 F        0.791    -0.229    11.536     4.012
     6   6 C        2.923    -0.021    28.530     8.759
     7   6 C        2.920    -0.023    28.580     8.767
     8   6 C        2.918    -0.018    28.466     8.749
     9   6 C        2.927    -0.023    28.582     8.767
    10   6 C        2.969     0.022    27.519     8.605
    11   6 C        3.823     0.050    19.725     6.320
    12   6 C        3.822     0.041    19.878     6.345
    13   6 C        2.965     0.013    27.723     8.636
    14   6 C        2.976    -0.026    28.654     8.781
    15   6 C        3.343     0.488    17.156     6.543
    16   9 F        0.792    -0.210    11.337     3.977
    17   9 F        0.792    -0.206    11.293     3.970
    18   9 F        0.792    -0.204    11.275     3.967
    19   6 C        2.935    -0.019    28.472     8.751
    20   6 C        2.919    -0.020    28.510     8.756
    21   6 C        2.919    -0.016    28.419     8.742
    22   6 C        2.932    -0.026    28.663     8.780
    23   7 N        2.763    -0.109    23.390     7.183
    24   6 C        2.765     0.273    22.386     7.749
    25   6 C        2.976    -0.023    28.582     8.769
    26   6 C        2.928    -0.043    29.079     8.843
    27   6 C        2.970     0.009    27.815     8.651
    28   6 C        3.758    -0.110    22.653     6.786
    29   6 C        2.970     0.010    27.787     8.647
    30   6 C        3.758    -0.111    22.673     6.789
    31   6 C        2.924    -0.040    29.001     8.831
    32   6 C        2.921    -0.031    28.784     8.798
    33   8 O        0.859    -0.422    22.119     6.306
    34   6 C        3.769     0.089    19.133     6.234
    35   6 C        2.687     0.352    21.028     7.504
    36   8 O        1.659    -0.362    20.127     6.056
    37   8 O        0.856    -0.386    21.400     6.202
    38   7 N        2.763    -0.118    23.570     7.211
    39   6 C        2.764     0.276    22.336     7.740
    40   6 C        2.976    -0.020    28.496     8.756
    41   6 C        2.922    -0.020    28.507     8.756
    42   6 C        2.924    -0.037    28.909     8.817
    43   6 C        2.970     0.013    27.722     8.636
    44   6 C        3.758    -0.110    22.646     6.785
    45   6 C        2.970     0.013    27.726     8.637
    46   6 C        3.758    -0.110    22.658     6.786
    47   6 C        2.927    -0.045    29.108     8.848
    48   8 O        0.860    -0.421    22.098     6.303
    49   1 H        0.926     0.068     2.107     2.270
    50   1 H        0.926     0.057     2.233     2.337
    51   1 H        0.926     0.055     2.255     2.348
    52   1 H        0.926     0.046     2.375     2.410
    53   1 H        0.924     0.067     2.117     2.275
    54   1 H        0.923     0.052     2.295     2.369
    55   1 H        0.926     0.067     2.114     2.274
    56   1 H        0.926     0.061     2.187     2.313
    57   1 H        0.926     0.056     2.243     2.342
    58   1 H        0.926     0.051     2.313     2.378
    59   1 H        0.926     0.032     2.554     2.499
    60   1 H        0.925     0.052     2.290     2.367
    61   1 H        0.925     0.041     2.430     2.438
    62   1 H        0.925     0.047     2.355     2.400
    63   1 H        0.925     0.045     2.378     2.411
    64   1 H        0.925     0.052     2.290     2.366
    65   1 H        0.925     0.047     2.356     2.401
    66   1 H        0.926     0.040     2.443     2.444
    67   1 H        0.926     0.050     2.321     2.382
    68   1 H        0.923     0.111     1.690     2.033
    69   1 H        0.804     0.342     0.608     1.225
    70   1 H        0.926     0.045     2.383     2.414
    71   1 H        0.926     0.038     2.475     2.460
    72   1 H        0.925     0.043     2.414     2.429
    73   1 H        0.925     0.049     2.333     2.389
    74   1 H        0.925     0.049     2.335     2.390
    75   1 H        0.925     0.049     2.334     2.389
    76   1 H        0.925     0.046     2.369     2.407
    77   1 H        0.925     0.050     2.324     2.384
    78   1 H        0.925     0.039     2.464     2.454

Wiberg/Mayer (AO) data.
largest (>0.10) Wiberg bond orders for each atom

     #   Z sym  total        # sym  WBO       # sym  WBO       # sym  WBO
 ---------------------------------------------------------------------------
     1   6 C    3.970 --     6 C    1.414    10 C    1.385     2 C    0.950
                             8 C    0.105
     2   6 C    3.821 --     4 F    0.957     3 F    0.953     1 C    0.950
                             5 F    0.923
     3   9 F    1.076 --     2 C    0.953
     4   9 F    1.089 --     2 C    0.957
     5   9 F    1.049 --     2 C    0.923
     6   6 C    3.987 --     7 C    1.443     1 C    1.414    49 H    0.965
                             9 C    0.109
     7   6 C    3.988 --     6 C    1.443     8 C    1.432    50 H    0.969
                            10 C    0.108
     8   6 C    3.990 --     9 C    1.449     7 C    1.432    51 H    0.969
                             1 C    0.105
     9   6 C    3.990 --     8 C    1.449    10 C    1.408    52 H    0.964
                             6 C    0.109
    10   6 C    3.986 --     9 C    1.408     1 C    1.385    11 C    0.992
                             7 C    0.108
    11   6 C    3.972 --    10 C    0.992    38 N    0.966    53 H    0.954
                            12 C    0.946
    12   6 C    3.974 --    13 C    0.997    23 N    0.971    54 H    0.950
                            11 C    0.946
    13   6 C    3.987 --    22 C    1.400    14 C    1.395    12 C    0.997
                            20 C    0.107
    14   6 C    3.972 --    19 C    1.404    13 C    1.395    15 C    0.950
                            21 C    0.105
    15   6 C    3.825 --    18 F    0.954    14 C    0.950    17 F    0.943
                            16 F    0.939
    16   9 F    1.067 --    15 C    0.939
    17   9 F    1.071 --    15 C    0.943
    18   9 F    1.079 --    15 C    0.954
    19   6 C    3.987 --    20 C    1.451    14 C    1.404    55 H    0.966
                            22 C    0.109
    20   6 C    3.988 --    19 C    1.451    21 C    1.427    56 H    0.968
                            13 C    0.107
    21   6 C    3.990 --    22 C    1.454    20 C    1.427    57 H    0.969
                            14 C    0.105
    22   6 C    3.989 --    21 C    1.454    13 C    1.400    58 H    0.965
                            19 C    0.109
    23   7 N    3.456 --    24 C    1.188    34 C    0.991    12 C    0.971
                            33 O    0.186
    24   6 C    3.941 --    33 O    1.694    23 N    1.188    25 C    0.973
    25   6 C    3.987 --    32 C    1.403    26 C    1.393    24 C    0.973
                            29 C    0.103
    26   6 C    3.990 --    27 C    1.428    25 C    1.393    59 H    0.966
                            31 C    0.104
    27   6 C    3.989 --    26 C    1.428    29 C    1.367    28 C    1.028
                            32 C    0.103
    28   6 C    3.995 --    27 C    1.028    61 H    0.985    62 H    0.970
                            60 H    0.969
    29   6 C    3.988 --    31 C    1.419    27 C    1.367    30 C    1.030
                            25 C    0.103
    30   6 C    3.996 --    29 C    1.030    63 H    0.985    65 H    0.969
                            64 H    0.969
    31   6 C    3.991 --    32 C    1.441    29 C    1.419    66 H    0.967
                            26 C    0.104
    32   6 C    3.990 --    31 C    1.441    25 C    1.403    67 H    0.968
                            27 C    0.103
    33   8 O    2.020 --    24 C    1.694    23 N    0.186
    34   6 C    3.965 --    23 N    0.991    38 N    0.986    68 H    0.916
                            35 C    0.913
    35   6 C    3.917 --    37 O    1.782    36 O    1.150    34 C    0.913
    36   8 O    2.216 --    35 C    1.150    69 H    0.857    37 O    0.181
    37   8 O    2.065 --    35 C    1.782    36 O    0.181
    38   7 N    3.440 --    39 C    1.176    34 C    0.986    11 C    0.966
                            48 O    0.180
    39   6 C    3.937 --    48 O    1.696    38 N    1.176    40 C    0.978
    40   6 C    3.985 --    41 C    1.402    47 C    1.391    39 C    0.978
                            43 C    0.103
    41   6 C    3.990 --    42 C    1.441    40 C    1.402    70 H    0.969
                            45 C    0.103
    42   6 C    3.991 --    41 C    1.441    43 C    1.420    71 H    0.967
                            47 C    0.104
    43   6 C    3.989 --    42 C    1.420    45 C    1.367    44 C    1.030
                            40 C    0.103
    44   6 C    3.996 --    43 C    1.030    72 H    0.985    73 H    0.969
                            74 H    0.969
    45   6 C    3.989 --    47 C    1.429    43 C    1.367    46 C    1.029
                            41 C    0.103
    46   6 C    3.995 --    45 C    1.029    76 H    0.985    75 H    0.970
                            77 H    0.969
    47   6 C    3.990 --    45 C    1.429    40 C    1.391    78 H    0.964
                            42 C    0.104
    48   8 O    2.023 --    39 C    1.696    38 N    0.180
    49   1 H    0.995 --     6 C    0.965
    50   1 H    0.996 --     7 C    0.969
    51   1 H    0.996 --     8 C    0.969
    52   1 H    0.998 --     9 C    0.964
    53   1 H    0.995 --    11 C    0.954
    54   1 H    0.997 --    12 C    0.950
    55   1 H    0.995 --    19 C    0.966
    56   1 H    0.995 --    20 C    0.968
    57   1 H    0.996 --    21 C    0.969
    58   1 H    0.997 --    22 C    0.965
    59   1 H    0.999 --    26 C    0.966
    60   1 H    0.997 --    28 C    0.969
    61   1 H    0.998 --    28 C    0.985
    62   1 H    0.997 --    28 C    0.970
    63   1 H    0.998 --    30 C    0.985
    64   1 H    0.997 --    30 C    0.969
    65   1 H    0.997 --    30 C    0.969
    66   1 H    0.998 --    31 C    0.967
    67   1 H    0.997 --    32 C    0.968
    68   1 H    0.987 --    34 C    0.916
    69   1 H    0.883 --    36 O    0.857
    70   1 H    0.997 --    41 C    0.969
    71   1 H    0.998 --    42 C    0.967
    72   1 H    0.998 --    44 C    0.985
    73   1 H    0.997 --    44 C    0.969
    74   1 H    0.997 --    44 C    0.969
    75   1 H    0.997 --    46 C    0.970
    76   1 H    0.998 --    46 C    0.985
    77   1 H    0.997 --    46 C    0.969
    78   1 H    0.998 --    47 C    0.964
 ---------------------------------------------------------------------------

molecular dipole:
                 x           y           z       tot (Debye)
 q only:       -1.794      -1.622       2.323
   full:       -1.825      -1.602       2.528       8.910

           -------------------------------------------------
          | TOTAL ENERGY             -142.993092100427 Eh   |
          | GRADIENT NORM               0.000417861197 Eh/Î± |
          | HOMO-LUMO GAP               2.949617921359 eV   |
           -------------------------------------------------

 * finished run on 2022/03/16 at 22:30:19.423
