   * xtb version 6.3.3 (4ae9cef) compiled by 'conda@95abc7406d43' on 2020-10-14
          program call               : xtb acid_256.xyz --opt --chrg 0 --uhf 0 --gfn 2
          number of atoms            :                    92
          number of electrons        :                   270
          charge                     :                     0
          spin                       :                   0.0

   ID    Z sym.   atoms
    1    6 C      1-22, 24-36, 38, 39, 43-55
    2    7 N      23, 42
    3    8 O      37, 40, 41, 56
    4    1 H      57-92

          :  Hamiltonian                  GFN2-xTB          :
 * total energy  :  -147.5351192 Eh     change       -0.5397936E-08 Eh
 * total energy  :  -147.5557313 Eh     change       -0.2061219E-01 Eh
 * total energy  :  -147.5624603 Eh     change       -0.6728994E-02 Eh
 * total energy  :  -147.5647390 Eh     change       -0.2278655E-02 Eh
 * total energy  :  -147.5664916 Eh     change       -0.1752601E-02 Eh
 * total energy  :  -147.5676805 Eh     change       -0.1188858E-02 Eh
 * total energy  :  -147.5688102 Eh     change       -0.1129770E-02 Eh
 * total energy  :  -147.5700024 Eh     change       -0.1192130E-02 Eh
 * total energy  :  -147.5710508 Eh     change       -0.1048495E-02 Eh
 * total energy  :  -147.5716640 Eh     change       -0.6131504E-03 Eh
 * total energy  :  -147.5916894 Eh     change       -0.1302936E-04 Eh
 * total energy  :  -147.5916952 Eh     change       -0.5809056E-05 Eh
 * total energy  :  -147.5917057 Eh     change       -0.1057872E-04 Eh
 * total energy  :  -147.5917151 Eh     change       -0.9323455E-05 Eh
 * total energy  :  -147.5917222 Eh     change       -0.7165937E-05 Eh
 * total energy  :  -147.5917285 Eh     change       -0.6261356E-05 Eh
 * total energy  :  -147.5917341 Eh     change       -0.5576761E-05 Eh
 * total energy  :  -147.5917406 Eh     change       -0.6493817E-05 Eh
 * total energy  :  -147.5917436 Eh     change       -0.3066465E-05 Eh
   *** GEOMETRY OPTIMIZATION CONVERGED AFTER 94 ITERATIONS ***

 final structure:
================
92
 xtb: 6.3.3 (4ae9cef)
C         3.90643969416046   -2.81162217087448    1.85962452026591
C         4.09646819597907   -3.48234450382519    0.68612028515123
C         3.32964439442036   -3.14672595049806   -0.43833674652436
C         2.40301899712938   -2.14404643098209   -0.37750012609254
C         2.17240249278082   -1.43180202761344    0.82110559753964
C         2.93778062664018   -1.79107593152462    1.96515846101691
C         2.69489560684733   -1.15416317150740    3.19878209158613
C         1.69589930920032   -0.23166730830484    3.31818823558752
C         0.93209868384200    0.11959106404888    2.19997465654248
C         1.18543614416592   -0.41967121010390    0.96292505025406
C         0.30856220238827   -0.02601735121117   -0.19307077860750
C        -1.03086753383487   -0.80680598443746   -0.10320495832158
C        -0.97483583005425   -2.08194130841527   -0.90355318011357
C        -1.25887100655649   -2.04929411697168   -2.24495186779351
C        -1.14437924137629   -3.19359328288112   -3.04377473067370
C        -0.70913237218918   -4.36619097674609   -2.49829587936811
C        -0.38772625777510   -4.44271519877224   -1.12770078220632
C        -0.53967870528122   -3.29501161436480   -0.30073719048353
C        -0.21993437578559   -3.42792243147694    1.06887349775215
C         0.25556002308231   -4.60361742569478    1.57804936072879
C         0.42782642874578   -5.72291373039521    0.75288688112336
C         0.09986643372894   -5.64318788365225   -0.56957179202781
N        -2.02881344684298    0.15640151139986   -0.54762261060608
C        -3.35220691699138   -0.13319535053509   -0.43159486726794
C        -4.29622716529779    1.00544291574888   -0.65361839363191
C        -4.39559983229937    2.06139506534668    0.25973356292600
C        -3.52100120546263    2.13103750875314    1.44538054335966
C        -2.86765363253731    3.32338478235743    1.75605781197449
C        -1.99860626722667    3.38912439373342    2.82873550942760
C        -1.77627457480629    2.26921043898650    3.61275540425114
C        -2.43770118526533    1.08597934719455    3.32529015896846
C        -3.30453383948912    1.01457123303870    2.24953209227606
C        -5.32685640163083    3.06698394912295    0.01779299406705
C        -6.14416685945573    3.02581020891543   -1.09609089108928
C        -6.04616201878657    1.97325117389854   -1.99055232045448
C        -5.12932881571079    0.96310673844173   -1.76278115879877
O        -3.73187596943123   -1.25981834300925   -0.18504148782918
C        -1.43577671682328    1.44165383948461   -0.81430564363140
C        -1.34967444097660    1.66605047908002   -2.33505925412682
O        -2.24694587254187    2.55948097778096   -2.73538956318409
O        -0.59810426573566    1.09359667902010   -3.07485041048422
N        -0.12350823882467    1.36174609942776   -0.21704348081536
C         0.51866203535697    2.52049993139679    0.08879367592258
C         1.88564305435771    2.41969833360759    0.67637533070119
C         2.04588869958392    2.90805985177463    1.96817826214914
C         3.26591034155350    2.81574700866407    2.60921534328767
C         4.34194023366704    2.24300630594601    1.95136675765430
C         4.20232616760106    1.80517627500660    0.64896259112744
C         2.98166496078712    1.89832784835250   -0.01681770731022
C         2.88987917588045    1.51455228344911   -1.43305151877634
C         3.53124638564966    0.37061006557991   -1.90302188457136
C         3.45328194226800    0.02102311904852   -3.23803548054918
C         2.75733501031576    0.82131197849484   -4.12830486203335
C         2.14269094271554    1.97634706715454   -3.67656792879487
C         2.20324200748318    2.32017280768507   -2.33896318323405
O        -0.04810438346948    3.59033799297418   -0.05177595015151
H         4.48477543004354   -3.06331414756161    2.73718222072089
H         4.82907847926167   -4.27269156475789    0.61673868558064
H         3.47363653921405   -3.68878494714482   -1.36109985269339
H         1.82953252732283   -1.91717306978217   -1.26163097721813
H         3.29526154151727   -1.43199462835790    4.05291667884741
H         1.48337133460839    0.23140613337594    4.26993722563731
H         0.13018660343626    0.83469959396704    2.31397640374099
H         0.78990493798500   -0.24272520435388   -1.15397250326820
H        -1.26265878028549   -1.03582836885383    0.94376778802550
H        -1.56657902822846   -1.12311466700293   -2.70456897920412
H        -1.38882599282181   -3.13082452748923   -4.09369769230293
H        -0.59770389540457   -5.25194277747296   -3.10729881531337
H        -0.34389431959637   -2.59248382186458    1.73913586200561
H         0.50127509860286   -4.67405621866737    2.62751861884446
H         0.80916484982954   -6.64253977305861    1.17159921999528
H         0.21188375358514   -6.50172725409203   -1.21665478469560
H        -3.01555199102576    4.19290361160086    1.13275685039627
H        -1.48925543470758    4.31626480074072    3.04557516166962
H        -1.09349929588946    2.31819556973265    4.44905068657724
H        -2.27597593125211    0.21268142386369    3.94104186379058
H        -3.82966098149884    0.09437056462168    2.04208098394559
H        -5.41896578008039    3.87776025699527    0.72562572937773
H        -6.86390286938774    3.81339090271377   -1.26352999761481
H        -6.68653615983909    1.93574134014288   -2.85898657316787
H        -5.04878754488963    0.12960067250015   -2.44517900138385
H        -1.98918730879026    2.28304411053318   -0.38425024744097
H        -2.19853379808349    2.70445162317066   -3.69529217091024
H         1.19419135691413    3.34730896400435    2.46617882302850
H         3.37842427127661    3.18860451319665    3.61605318610518
H         5.29757115838771    2.15831377707817    2.44725794593809
H         5.05677430990641    1.40670179593655    0.12220689076376
H         4.07131401954149   -0.25915231650500   -1.21138174974673
H         3.94024916918840   -0.87929900556958   -3.58396635110586
H         2.69941056041874    0.54887372989561   -5.17144256096250
H         1.61542847516862    2.61391233200130   -4.37009767229458
H         1.73702087774753    3.23208100535024   -1.99622394164361

          :  Hamiltonian                  GFN2-xTB          :
         :: total energy            -147.591743630633 Eh    ::
         :: gradient norm              0.000478039166 Eh/a0 ::
         :: HOMO-LUMO gap              2.846601658559 eV    ::
         :: SCC energy              -150.129283351662 Eh    ::
         :: -> dispersion             -0.160208032320 Eh    ::
         :: repulsion energy           2.526725226760 Eh    ::

    * Orbital Energies and Occupations

         #    Occupation            Energy/Eh            Energy/eV
      -------------------------------------------------------------
         1        2.0000           -0.7684186             -20.9097
       ...           ...                  ...                  ...
       123        2.0000           -0.4115206             -11.1980
       124        2.0000           -0.4078976             -11.0995
       125        2.0000           -0.4057878             -11.0420
       126        2.0000           -0.4035039             -10.9799
       127        2.0000           -0.4016937             -10.9306
       128        2.0000           -0.3993746             -10.8675
       129        2.0000           -0.3981081             -10.8331
       130        2.0000           -0.3960860             -10.7780
       131        2.0000           -0.3927267             -10.6866
       132        2.0000           -0.3906225             -10.6294
       133        2.0000           -0.3871271             -10.5343
       134        2.0000           -0.3819307             -10.3929
       135        2.0000           -0.3746063             -10.1936 (HOMO)
       136                         -0.2699957              -7.3470 (LUMO)
       137                         -0.2614112              -7.1134
       138                         -0.2590189              -7.0483
       139                         -0.2533869              -6.8950
       140                         -0.2515972              -6.8463
       141                         -0.2390145              -6.5039
       142                         -0.2380092              -6.4766
       143                         -0.2358621              -6.4181
       144                         -0.2273990              -6.1878
       145                         -0.2262084              -6.1554
       146                         -0.2220571              -6.0425
       ...                                ...                  ...
       260                          0.6952273              18.9181
      -------------------------------------------------------------
                  HL-Gap            0.1046107 Eh            2.8466 eV

     #   Z          covCN         q      C6AA      Î±(0)
     1   6 C        2.921    -0.035    28.859     8.810
     2   6 C        2.915    -0.029    28.720     8.788
     3   6 C        2.917    -0.028    28.694     8.784
     4   6 C        2.917    -0.032    28.794     8.799
     5   6 C        2.984     0.009    27.814     8.651
     6   6 C        2.989     0.015    27.675     8.630
     7   6 C        2.921    -0.036    28.907     8.817
     8   6 C        2.914    -0.030    28.745     8.792
     9   6 C        2.923    -0.036    28.898     8.816
    10   6 C        2.969    -0.005    28.143     8.702
    11   6 C        3.827     0.042    19.857     6.341
    12   6 C        3.831     0.052    19.680     6.312
    13   6 C        2.967     0.006    27.892     8.663
    14   6 C        2.922    -0.028    28.691     8.784
    15   6 C        2.914    -0.028    28.691     8.783
    16   6 C        2.920    -0.036    28.888     8.814
    17   6 C        2.989     0.016    27.645     8.625
    18   6 C        2.983     0.012    27.745     8.640
    19   6 C        2.917    -0.033    28.812     8.802
    20   6 C        2.917    -0.029    28.725     8.789
    21   6 C        2.915    -0.030    28.744     8.792
    22   6 C        2.922    -0.034    28.855     8.809
    23   7 N        2.761    -0.123    23.671     7.226
    24   6 C        2.764     0.274    22.368     7.745
    25   6 C        2.978    -0.023    28.571     8.768
    26   6 C        2.978     0.010    27.797     8.648
    27   6 C        2.977     0.005    27.916     8.667
    28   6 C        2.925    -0.030    28.758     8.794
    29   6 C        2.918    -0.025    28.637     8.775
    30   6 C        2.920    -0.031    28.762     8.795
    31   6 C        2.918    -0.029    28.730     8.790
    32   6 C        2.923    -0.036    28.890     8.814
    33   6 C        2.925    -0.031    28.764     8.795
    34   6 C        2.918    -0.027    28.677     8.782
    35   6 C        2.919    -0.029    28.714     8.787
    36   6 C        2.923    -0.022    28.565     8.765
    37   8 O        0.859    -0.424    22.171     6.313
    38   6 C        3.778     0.091    19.093     6.225
    39   6 C        2.689     0.355    20.975     7.495
    40   8 O        1.660    -0.358    20.061     6.046
    41   8 O        0.856    -0.387    21.427     6.206
    42   7 N        2.762    -0.119    23.581     7.212
    43   6 C        2.769     0.273    22.379     7.748
    44   6 C        2.978    -0.017    28.417     8.744
    45   6 C        2.927    -0.021    28.542     8.761
    46   6 C        2.919    -0.030    28.739     8.791
    47   6 C        2.918    -0.028    28.704     8.786
    48   6 C        2.927    -0.032    28.808     8.802
    49   6 C        2.977     0.011    27.773     8.645
    50   6 C        2.977     0.006    27.873     8.660
    51   6 C        2.925    -0.034    28.852     8.809
    52   6 C        2.919    -0.029    28.720     8.788
    53   6 C        2.920    -0.026    28.640     8.776
    54   6 C        2.919    -0.019    28.489     8.753
    55   6 C        2.925    -0.031    28.773     8.797
    56   8 O        0.860    -0.447    22.649     6.381
    57   1 H        0.926     0.036     2.502     2.473
    58   1 H        0.926     0.035     2.513     2.479
    59   1 H        0.926     0.034     2.530     2.487
    60   1 H        0.926     0.032     2.563     2.504
    61   1 H        0.926     0.038     2.476     2.461
    62   1 H        0.926     0.036     2.505     2.475
    63   1 H        0.926     0.033     2.540     2.492
    64   1 H        0.924     0.060     2.204     2.322
    65   1 H        0.924     0.056     2.247     2.344
    66   1 H        0.926     0.037     2.490     2.468
    67   1 H        0.926     0.036     2.499     2.472
    68   1 H        0.926     0.036     2.504     2.475
    69   1 H        0.926     0.025     2.658     2.550
    70   1 H        0.926     0.030     2.588     2.516
    71   1 H        0.926     0.032     2.553     2.499
    72   1 H        0.926     0.035     2.521     2.483
    73   1 H        0.926     0.041     2.433     2.439
    74   1 H        0.926     0.036     2.500     2.473
    75   1 H        0.926     0.029     2.607     2.525
    76   1 H        0.926     0.030     2.584     2.514
    77   1 H        0.926     0.040     2.448     2.447
    78   1 H        0.926     0.041     2.433     2.439
    79   1 H        0.926     0.038     2.474     2.460
    80   1 H        0.926     0.038     2.474     2.459
    81   1 H        0.926     0.039     2.458     2.452
    82   1 H        0.924     0.093     1.851     2.128
    83   1 H        0.804     0.342     0.606     1.223
    84   1 H        0.926     0.044     2.400     2.423
    85   1 H        0.926     0.039     2.467     2.456
    86   1 H        0.926     0.037     2.489     2.467
    87   1 H        0.926     0.039     2.463     2.454
    88   1 H        0.926     0.030     2.587     2.515
    89   1 H        0.926     0.031     2.577     2.510
    90   1 H        0.926     0.035     2.522     2.483
    91   1 H        0.926     0.034     2.530     2.487
    92   1 H        0.926     0.034     2.534     2.490

Wiberg/Mayer (AO) data.
largest (>0.10) Wiberg bond orders for each atom

     #   Z sym  total        # sym  WBO       # sym  WBO       # sym  WBO
 ---------------------------------------------------------------------------
     1   6 C    3.990 --     2 C    1.558     6 C    1.278    57 H    0.968
                             4 C    0.118
     2   6 C    3.992 --     1 C    1.558     3 C    1.321    58 H    0.971
     3   6 C    3.991 --     4 C    1.554     2 C    1.321    59 H    0.971
     4   6 C    3.992 --     3 C    1.554     5 C    1.279    60 H    0.960
                             1 C    0.118
     5   6 C    3.988 --     4 C    1.279    10 C    1.254     6 C    1.252
     6   6 C    3.990 --     7 C    1.281     1 C    1.278     5 C    1.252
     7   6 C    3.989 --     8 C    1.549     6 C    1.281    61 H    0.968
                            10 C    0.114
     8   6 C    3.991 --     7 C    1.549     9 C    1.330    62 H    0.970
     9   6 C    3.990 --    10 C    1.515     8 C    1.330    63 H    0.963
    10   6 C    3.984 --     9 C    1.515     5 C    1.254    11 C    0.997
                             7 C    0.114
    11   6 C    3.963 --    10 C    0.997    42 N    0.963    64 H    0.943
                            12 C    0.940
    12   6 C    3.962 --    13 C    0.992    23 N    0.956    65 H    0.946
                            11 C    0.940
    13   6 C    3.984 --    14 C    1.525    18 C    1.250    12 C    0.992
                            16 C    0.114
    14   6 C    3.990 --    13 C    1.525    15 C    1.325    66 H    0.966
    15   6 C    3.992 --    16 C    1.554    14 C    1.325    67 H    0.970
    16   6 C    3.990 --    15 C    1.554    17 C    1.279    68 H    0.968
                            13 C    0.114
    17   6 C    3.990 --    22 C    1.280    16 C    1.279    18 C    1.253
    18   6 C    3.989 --    19 C    1.283    17 C    1.253    13 C    1.250
    19   6 C    3.992 --    20 C    1.554    18 C    1.283    69 H    0.961
                            22 C    0.118
    20   6 C    3.992 --    19 C    1.554    21 C    1.322    70 H    0.971
    21   6 C    3.992 --    22 C    1.557    20 C    1.322    71 H    0.971
    22   6 C    3.991 --    21 C    1.557    17 C    1.280    72 H    0.968
                            19 C    0.118
    23   7 N    3.460 --    24 C    1.201    38 C    0.980    12 C    0.956
                            37 O    0.186
    24   6 C    3.943 --    37 O    1.687    23 N    1.201    25 C    0.963
    25   6 C    3.986 --    36 C    1.414    26 C    1.356    24 C    0.963
                            34 C    0.106
    26   6 C    3.988 --    33 C    1.395    25 C    1.356    27 C    1.038
                            35 C    0.105
    27   6 C    3.989 --    32 C    1.390    28 C    1.386    26 C    1.038
                            30 C    0.105
    28   6 C    3.991 --    29 C    1.449    27 C    1.386    73 H    0.968
                            31 C    0.109
    29   6 C    3.991 --    28 C    1.449    30 C    1.435    74 H    0.970
                            32 C    0.108
    30   6 C    3.988 --    29 C    1.435    31 C    1.433    75 H    0.971
                            27 C    0.105
    31   6 C    3.992 --    32 C    1.448    30 C    1.433    76 H    0.971
                            28 C    0.109
    32   6 C    3.991 --    31 C    1.448    27 C    1.390    77 H    0.966
                            29 C    0.108
    33   6 C    3.991 --    34 C    1.449    26 C    1.395    78 H    0.968
                            36 C    0.107
    34   6 C    3.991 --    33 C    1.449    35 C    1.432    79 H    0.970
                            25 C    0.106
    35   6 C    3.987 --    36 C    1.439    34 C    1.432    80 H    0.970
                            26 C    0.105
    36   6 C    3.990 --    35 C    1.439    25 C    1.414    81 H    0.969
                            33 C    0.107
    37   8 O    2.017 --    24 C    1.687    23 N    0.186
    38   6 C    3.962 --    42 N    0.983    23 N    0.980    82 H    0.933
                            39 C    0.908
    39   6 C    3.916 --    41 O    1.776    40 O    1.161    38 C    0.908
    40   8 O    2.227 --    39 C    1.161    83 H    0.856    41 O    0.184
    41   8 O    2.061 --    39 C    1.776    40 O    0.184
    42   7 N    3.466 --    43 C    1.208    38 C    0.983    11 C    0.963
                            56 O    0.185
    43   6 C    3.941 --    56 O    1.662    42 N    1.208    44 C    0.974
    44   6 C    3.986 --    45 C    1.403    49 C    1.358    43 C    0.974
                            47 C    0.104
    45   6 C    3.989 --    46 C    1.445    44 C    1.403    84 H    0.968
                            48 C    0.107
    46   6 C    3.986 --    45 C    1.445    47 C    1.425    85 H    0.970
                            49 C    0.102
    47   6 C    3.991 --    48 C    1.454    46 C    1.425    86 H    0.970
                            44 C    0.104
    48   6 C    3.991 --    47 C    1.454    49 C    1.386    87 H    0.967
                            45 C    0.107
    49   6 C    3.987 --    48 C    1.386    44 C    1.358    50 C    1.048
                            46 C    0.102
    50   6 C    3.989 --    55 C    1.388    51 C    1.386    49 C    1.048
                            53 C    0.105
    51   6 C    3.991 --    52 C    1.451    50 C    1.386    88 H    0.966
                            54 C    0.109
    52   6 C    3.992 --    51 C    1.451    53 C    1.434    89 H    0.971
                            55 C    0.108
    53   6 C    3.987 --    54 C    1.435    52 C    1.434    90 H    0.971
                            50 C    0.105
    54   6 C    3.991 --    55 C    1.448    53 C    1.435    91 H    0.970
                            51 C    0.109
    55   6 C    3.992 --    54 C    1.448    50 C    1.388    92 H    0.966
                            52 C    0.108
    56   8 O    1.989 --    43 C    1.662    42 N    0.185
    57   1 H    0.998 --     1 C    0.968
    58   1 H    0.998 --     2 C    0.971
    59   1 H    0.998 --     3 C    0.971
    60   1 H    0.999 --     4 C    0.960
    61   1 H    0.998 --     7 C    0.968
    62   1 H    0.998 --     8 C    0.970
    63   1 H    0.998 --     9 C    0.963
    64   1 H    0.996 --    11 C    0.943
    65   1 H    0.996 --    12 C    0.946
    66   1 H    0.998 --    14 C    0.966
    67   1 H    0.998 --    15 C    0.970
    68   1 H    0.998 --    16 C    0.968
    69   1 H    0.999 --    19 C    0.961
    70   1 H    0.999 --    20 C    0.971
    71   1 H    0.998 --    21 C    0.971
    72   1 H    0.998 --    22 C    0.968
    73   1 H    0.998 --    28 C    0.968
    74   1 H    0.998 --    29 C    0.970
    75   1 H    0.999 --    30 C    0.971
    76   1 H    0.999 --    31 C    0.971
    77   1 H    0.998 --    32 C    0.966
    78   1 H    0.998 --    33 C    0.968
    79   1 H    0.998 --    34 C    0.970
    80   1 H    0.998 --    35 C    0.970
    81   1 H    0.998 --    36 C    0.969
    82   1 H    0.991 --    38 C    0.933
    83   1 H    0.882 --    40 O    0.856
    84   1 H    0.998 --    45 C    0.968
    85   1 H    0.998 --    46 C    0.970
    86   1 H    0.998 --    47 C    0.970
    87   1 H    0.998 --    48 C    0.967
    88   1 H    0.999 --    51 C    0.966
    89   1 H    0.998 --    52 C    0.971
    90   1 H    0.998 --    53 C    0.971
    91   1 H    0.998 --    54 C    0.970
    92   1 H    0.999 --    55 C    0.966
 ---------------------------------------------------------------------------

molecular dipole:
                 x           y           z       tot (Debye)
 q only:        1.023      -0.222       0.012
   full:        0.954       0.035      -0.111       2.444

           -------------------------------------------------
          | TOTAL ENERGY             -147.591743630633 Eh   |
          | GRADIENT NORM               0.000478039166 Eh/Î± |
          | HOMO-LUMO GAP               2.846601658559 eV   |
           -------------------------------------------------

 * finished run on 2022/03/16 at 23:05:03.135
