   * xtb version 6.3.3 (4ae9cef) compiled by 'conda@95abc7406d43' on 2020-10-14
          program call               : xtb acid_179.xyz --opt --chrg 0 --uhf 0 --gfn 2
          number of atoms            :                    78
          number of electrons        :                   230
          charge                     :                     0
          spin                       :                   0.0

   ID    Z sym.   atoms
    1    6 C      1-22, 24-27, 29-31, 33, 34, 38-41, 43-45
    2    7 N      23, 37
    3    8 O      28, 32, 35, 36, 42, 46
    4    1 H      47-78

          :  Hamiltonian                  GFN2-xTB          :
 * total energy  :  -127.9814785 Eh     change       -0.7441827E-08 Eh
 * total energy  :  -127.9986503 Eh     change       -0.1717185E-01 Eh
 * total energy  :  -128.0043892 Eh     change       -0.5738860E-02 Eh
 * total energy  :  -128.0068011 Eh     change       -0.2411902E-02 Eh
 * total energy  :  -128.0088409 Eh     change       -0.2039828E-02 Eh
 * total energy  :  -128.0101035 Eh     change       -0.1262558E-02 Eh
 * total energy  :  -128.0110246 Eh     change       -0.9211045E-03 Eh
 * total energy  :  -128.0118154 Eh     change       -0.7908275E-03 Eh
 * total energy  :  -128.0124613 Eh     change       -0.6459207E-03 Eh
 * total energy  :  -128.0130814 Eh     change       -0.6200986E-03 Eh
 * total energy  :  -128.0288232 Eh     change       -0.1153861E-04 Eh
 * total energy  :  -128.0288333 Eh     change       -0.1009561E-04 Eh
 * total energy  :  -128.0288405 Eh     change       -0.7235654E-05 Eh
 * total energy  :  -128.0288470 Eh     change       -0.6519859E-05 Eh
 * total energy  :  -128.0288547 Eh     change       -0.7662705E-05 Eh
 * total energy  :  -128.0288638 Eh     change       -0.9106651E-05 Eh
 * total energy  :  -128.0288719 Eh     change       -0.8132785E-05 Eh
 * total energy  :  -128.0288782 Eh     change       -0.6222912E-05 Eh
 * total energy  :  -128.0288823 Eh     change       -0.4142108E-05 Eh
   *** GEOMETRY OPTIMIZATION CONVERGED AFTER 138 ITERATIONS ***

 final structure:
================
78
 xtb: 6.3.3 (4ae9cef)
C         4.53566608883372   -3.12078524694204    0.78525530868332
C         3.89580936723006   -4.04237504356017    0.00713761752039
C         2.58221764399820   -3.80131058981244   -0.41933441262997
C         1.94456487159992   -2.63787319705821   -0.09063759351899
C         2.58871392412500   -1.64350390655379    0.67818242956515
C         3.90365372420581   -1.91279531891892    1.14887417648784
C         4.55813035601189   -0.97435286892269    1.97223420668724
C         3.94058757978219    0.19110185585299    2.32450467690074
C         2.66601372284491    0.48350006094575    1.82544226383548
C         2.00272997118411   -0.39060773457658    1.00055046911850
C         0.67265693189350    0.02133358741309    0.42712941183818
C        -0.47162239262054   -0.03716896285450    1.45853485261069
C        -1.15829587648547   -1.37655496177815    1.46325967847458
C        -0.98261564150885   -2.17628791927003    2.56439000280657
C        -1.51940425927959   -3.46756695485944    2.62713351267859
C        -2.23205924609252   -3.96032542483051    1.57343883751427
C        -2.43474026614329   -3.17826544380378    0.41804079840498
C        -1.89321099234077   -1.86421505741920    0.34763425326081
C        -2.12183534138874   -1.11931714545275   -0.83094167592717
C        -2.83538106224021   -1.64390709993843   -1.87347911554254
C        -3.36493076831475   -2.93922228336928   -1.80045278585547
C        -3.16813039803637   -3.68675839956188   -0.67468003156673
N        -1.30584200391138    1.10289684006847    1.09828621460692
C        -2.60385896615280    1.21529040110951    1.48726171122953
C        -3.24539634458786    2.48409337865167    1.06717208388790
C        -4.12189721758684    2.64613968487050    0.02942903714650
C        -4.59254906359992    1.68510142894206   -0.99785868145780
O        -4.52676147479190    3.93268603194849   -0.02797062188465
C        -3.93448781825804    4.60301736839469    0.98960280640653
C        -4.23390199801082    6.04904183676533    1.15334304277988
C        -3.13583342821797    3.75830812120302    1.69595913648239
O        -3.17488392259992    0.34533047475018    2.10782653922611
C        -0.51548893343883    2.12677691302761    0.45965641831944
C        -1.19189481893920    2.75548840990709   -0.77485744257981
O        -1.32400028635859    4.06638944016385   -0.66780714152071
O        -1.54180698338536    2.10747129154312   -1.72660920436533
N         0.66511809293510    1.41383932848082    0.00623415236752
C         1.41945827948768    1.93036990377902   -0.99666786246905
C         2.44961535908056    1.00079564093789   -1.51401122261631
C         2.24215697479505   -0.00561928936907   -2.41540969776383
C         1.02071226005738   -0.41152190012177   -3.15959695697778
O         3.39768579620269   -0.67207694254127   -2.62895550564697
C         4.35578262333122   -0.09729047440766   -1.86635587060986
C         5.72509530252063   -0.67237701169090   -1.89564613853124
C         3.82992493380972    0.94512914041973   -1.16829290743554
O         1.22935766506811    3.06057608456009   -1.40356861183327
H         5.54000848569605   -3.30268095581838    1.14108949404939
H         4.38763658681059   -4.96203355726860   -0.27336267266660
H         2.07107972629195   -4.54632454195726   -1.01087612877900
H         0.92366410298173   -2.49879561197928   -0.41065331954995
H         5.55500183240525   -1.19892437820978    2.32294206630586
H         4.43405125896923    0.90337624066536    2.96887580941968
H         2.21003451375420    1.43177561909300    2.07147715752208
H         0.42200705773339   -0.60477248916205   -0.43240716946911
H        -0.05847999245720    0.14136924994635    2.46347952797599
H        -0.41962461197478   -1.80522998196330    3.40889690215245
H        -1.36337608207165   -4.06241525193903    3.51461223039249
H        -2.65407417416623   -4.95453722399852    1.60690784137998
H        -1.75091160230187   -0.11242302853581   -0.92281705010230
H        -2.99516864211810   -1.05106534862357   -2.76200858387563
H        -3.92873059021376   -3.33514599857485   -2.63246410582943
H        -3.57506148087123   -4.68532530468287   -0.59912545294729
H        -4.73127105917009    0.70440618775829   -0.54905925713075
H        -3.84833190810226    1.59436747453190   -1.79165106801288
H        -5.52747755424295    2.03217854183343   -1.42964558253222
H        -3.92239636724719    6.60576275800859    0.27035898061516
H        -5.30391849820467    6.20216432092421    1.28717644011165
H        -3.70635570750799    6.43402657120736    2.02014869274404
H        -2.54817334940517    3.99700563688588    2.55821482524810
H        -0.24364647073866    2.94260413605863    1.15170124354187
H        -1.64916960497022    4.44818507070836   -1.49888442966241
H         0.73347691731822   -1.43264210253853   -2.90746558765413
H         0.20383514079378    0.26499698238073   -2.92186686816297
H         1.20653772146967   -0.37474417549963   -4.23227440214756
H         6.13358644942118   -0.63992346280891   -2.90470780293439
H         5.69942892058247   -1.71285119683580   -1.57330168310422
H         6.36988242652346   -0.10770142220037   -1.22959677833479
H         4.34111759036642    1.59271919655925   -0.48709742656599

          :  Hamiltonian                  GFN2-xTB          :
         :: total energy            -128.028882313865 Eh    ::
         :: gradient norm              0.000211411661 Eh/a0 ::
         :: HOMO-LUMO gap              2.749201420581 eV    ::
         :: SCC energy              -129.955332411239 Eh    ::
         :: -> dispersion             -0.120747582028 Eh    ::
         :: repulsion energy           1.920634356361 Eh    ::

    * Orbital Energies and Occupations

         #    Occupation            Energy/Eh            Energy/eV
      -------------------------------------------------------------
         1        2.0000           -0.7564664             -20.5845
       ...           ...                  ...                  ...
       103        2.0000           -0.4212429             -11.4626
       104        2.0000           -0.4201242             -11.4322
       105        2.0000           -0.4153318             -11.3018
       106        2.0000           -0.4113390             -11.1931
       107        2.0000           -0.4047953             -11.0150
       108        2.0000           -0.4015546             -10.9269
       109        2.0000           -0.3988318             -10.8528
       110        2.0000           -0.3959208             -10.7736
       111        2.0000           -0.3925850             -10.6828
       112        2.0000           -0.3877175             -10.5503
       113        2.0000           -0.3782985             -10.2940
       114        2.0000           -0.3765181             -10.2456
       115        2.0000           -0.3736179             -10.1667 (HOMO)
       116                         -0.2725866              -7.4175 (LUMO)
       117                         -0.2592834              -7.0555
       118                         -0.2507517              -6.8233
       119                         -0.2392567              -6.5105
       120                         -0.2268569              -6.1731
       121                         -0.2217544              -6.0342
       122                         -0.2171646              -5.9093
       123                         -0.2096035              -5.7036
       124                         -0.2060265              -5.6063
       125                         -0.2009260              -5.4675
       126                         -0.1897383              -5.1630
       ...                                ...                  ...
       216                          0.6961418              18.9430
      -------------------------------------------------------------
                  HL-Gap            0.1010313 Eh            2.7492 eV

     #   Z          covCN         q      C6AA      Î±(0)
     1   6 C        2.921    -0.035    28.862     8.810
     2   6 C        2.915    -0.028    28.711     8.787
     3   6 C        2.917    -0.026    28.657     8.778
     4   6 C        2.917    -0.034    28.845     8.807
     5   6 C        2.984     0.008    27.833     8.654
     6   6 C        2.989     0.015    27.658     8.627
     7   6 C        2.921    -0.036    28.898     8.815
     8   6 C        2.914    -0.030    28.742     8.791
     9   6 C        2.923    -0.033    28.830     8.805
    10   6 C        2.968    -0.006    28.174     8.707
    11   6 C        3.821     0.036    19.962     6.358
    12   6 C        3.830     0.052    19.685     6.313
    13   6 C        2.966     0.009    27.821     8.652
    14   6 C        2.925    -0.031    28.762     8.795
    15   6 C        2.914    -0.028    28.692     8.784
    16   6 C        2.921    -0.034    28.857     8.809
    17   6 C        2.988     0.016    27.652     8.626
    18   6 C        2.983     0.015    27.675     8.629
    19   6 C        2.917    -0.041    29.009     8.832
    20   6 C        2.917    -0.031    28.766     8.795
    21   6 C        2.914    -0.031    28.762     8.794
    22   6 C        2.921    -0.034    28.856     8.809
    23   7 N        2.766    -0.119    23.583     7.213
    24   6 C        2.756     0.278    22.293     7.732
    25   6 C        3.069    -0.072    29.719     8.939
    26   6 C        3.077     0.117    25.341     8.253
    27   6 C        3.753    -0.120    22.850     6.816
    28   8 O        1.731    -0.201    17.347     5.624
    29   6 C        3.078     0.112    25.444     8.270
    30   6 C        3.753    -0.117    22.803     6.809
    31   6 C        3.006    -0.077    29.908     8.971
    32   8 O        0.859    -0.418    22.046     6.295
    33   6 C        3.761     0.099    18.994     6.213
    34   6 C        2.689     0.369    20.747     7.454
    35   8 O        1.660    -0.351    19.927     6.026
    36   8 O        0.856    -0.412    21.922     6.277
    37   7 N        2.772    -0.119    23.591     7.214
    38   6 C        2.761     0.278    22.296     7.733
    39   6 C        3.071    -0.062    29.454     8.899
    40   6 C        3.081     0.111    25.470     8.274
    41   6 C        3.753    -0.115    22.759     6.803
    42   8 O        1.731    -0.200    17.325     5.620
    43   6 C        3.082     0.111    25.459     8.272
    44   6 C        3.753    -0.116    22.779     6.806
    45   6 C        3.008    -0.075    29.846     8.962
    46   8 O        0.859    -0.432    22.327     6.335
    47   1 H        0.926     0.035     2.512     2.478
    48   1 H        0.926     0.035     2.515     2.480
    49   1 H        0.926     0.035     2.514     2.479
    50   1 H        0.926     0.029     2.605     2.524
    51   1 H        0.926     0.038     2.475     2.460
    52   1 H        0.926     0.038     2.480     2.463
    53   1 H        0.926     0.035     2.517     2.481
    54   1 H        0.924     0.060     2.194     2.316
    55   1 H        0.923     0.045     2.383     2.414
    56   1 H        0.926     0.030     2.585     2.514
    57   1 H        0.926     0.036     2.508     2.477
    58   1 H        0.926     0.036     2.506     2.475
    59   1 H        0.926     0.046     2.368     2.406
    60   1 H        0.926     0.034     2.530     2.487
    61   1 H        0.926     0.030     2.580     2.512
    62   1 H        0.926     0.032     2.556     2.500
    63   1 H        0.925     0.064     2.153     2.295
    64   1 H        0.924     0.076     2.016     2.221
    65   1 H        0.925     0.065     2.141     2.288
    66   1 H        0.925     0.062     2.179     2.308
    67   1 H        0.925     0.064     2.153     2.294
    68   1 H        0.925     0.058     2.224     2.332
    69   1 H        0.926     0.036     2.505     2.475
    70   1 H        0.923     0.061     2.187     2.313
    71   1 H        0.804     0.348     0.594     1.210
    72   1 H        0.924     0.058     2.228     2.334
    73   1 H        0.925     0.065     2.142     2.288
    74   1 H        0.925     0.066     2.127     2.281
    75   1 H        0.925     0.065     2.147     2.291
    76   1 H        0.925     0.061     2.188     2.313
    77   1 H        0.925     0.056     2.247     2.344
    78   1 H        0.927     0.038     2.477     2.461

Wiberg/Mayer (AO) data.
largest (>0.10) Wiberg bond orders for each atom

     #   Z sym  total        # sym  WBO       # sym  WBO       # sym  WBO
 ---------------------------------------------------------------------------
     1   6 C    3.991 --     2 C    1.557     6 C    1.278    47 H    0.968
                             4 C    0.118
     2   6 C    3.992 --     1 C    1.557     3 C    1.322    48 H    0.971
     3   6 C    3.991 --     4 C    1.555     2 C    1.322    49 H    0.971
     4   6 C    3.992 --     3 C    1.555     5 C    1.283    50 H    0.961
                             1 C    0.118
     5   6 C    3.989 --     4 C    1.283    10 C    1.253     6 C    1.252
     6   6 C    3.990 --     7 C    1.280     1 C    1.278     5 C    1.252
     7   6 C    3.990 --     8 C    1.551     6 C    1.280    51 H    0.968
                            10 C    0.115
     8   6 C    3.992 --     7 C    1.551     9 C    1.329    52 H    0.970
     9   6 C    3.990 --    10 C    1.520     8 C    1.329    53 H    0.968
    10   6 C    3.984 --     9 C    1.520     5 C    1.253    11 C    0.992
                             7 C    0.115
    11   6 C    3.962 --    10 C    0.992    37 N    0.958    12 C    0.950
                            54 H    0.943
    12   6 C    3.964 --    13 C    0.995    23 N    0.953    55 H    0.952
                            11 C    0.950
    13   6 C    3.983 --    14 C    1.522    18 C    1.249    12 C    0.995
                            16 C    0.114
    14   6 C    3.989 --    13 C    1.522    15 C    1.326    56 H    0.967
    15   6 C    3.992 --    16 C    1.554    14 C    1.326    57 H    0.970
    16   6 C    3.990 --    15 C    1.554    17 C    1.278    58 H    0.968
                            13 C    0.114
    17   6 C    3.990 --    22 C    1.281    16 C    1.278    18 C    1.253
    18   6 C    3.989 --    19 C    1.285    17 C    1.253    13 C    1.249
    19   6 C    3.991 --    20 C    1.550    18 C    1.285    59 H    0.959
                            22 C    0.118
    20   6 C    3.992 --    19 C    1.550    21 C    1.325    60 H    0.971
    21   6 C    3.992 --    22 C    1.555    20 C    1.325    61 H    0.971
    22   6 C    3.991 --    21 C    1.555    17 C    1.281    62 H    0.968
                            19 C    0.118
    23   7 N    3.457 --    24 C    1.201    33 C    0.987    12 C    0.953
                            32 O    0.191
    24   6 C    3.945 --    32 O    1.696    23 N    1.201    25 C    0.969
    25   6 C    3.972 --    26 C    1.534    31 C    1.238    24 C    0.969
    26   6 C    3.915 --    25 C    1.534    28 O    1.117    27 C    1.034
                            29 C    0.126
    27   6 C    3.991 --    26 C    1.034    65 H    0.979    63 H    0.975
                            64 H    0.953
    28   8 O    2.419 --    26 C    1.117    29 C    1.101
    29   6 C    3.910 --    31 C    1.594    28 O    1.101    30 C    1.029
                            26 C    0.126
    30   6 C    3.993 --    29 C    1.029    68 H    0.984    67 H    0.970
                            66 H    0.969
    31   6 C    3.977 --    29 C    1.594    25 C    1.238    69 H    0.975
    32   8 O    2.028 --    24 C    1.696    23 N    0.191
    33   6 C    3.967 --    23 N    0.987    37 N    0.972    70 H    0.945
                            34 C    0.914
    34   6 C    3.922 --    36 O    1.736    35 O    1.169    33 C    0.914
    35   8 O    2.230 --    34 C    1.169    71 H    0.853    36 O    0.174
    36   8 O    2.037 --    34 C    1.736    35 O    0.174
    37   7 N    3.457 --    38 C    1.215    33 C    0.972    11 C    0.958
                            46 O    0.188
    38   6 C    3.942 --    46 O    1.671    37 N    1.215    39 C    0.973
    39   6 C    3.974 --    40 C    1.546    45 C    1.239    38 C    0.973
    40   6 C    3.912 --    39 C    1.546    42 O    1.112    41 C    1.030
                            43 C    0.129
    41   6 C    3.992 --    40 C    1.030    73 H    0.980    74 H    0.968
                            72 H    0.968
    42   8 O    2.422 --    40 C    1.112    43 C    1.106
    43   6 C    3.911 --    45 C    1.592    42 O    1.106    44 C    1.029
                            40 C    0.129
    44   6 C    3.993 --    43 C    1.029    77 H    0.984    75 H    0.970
                            76 H    0.968
    45   6 C    3.977 --    43 C    1.592    39 C    1.239    78 H    0.974
    46   8 O    2.024 --    38 C    1.671    37 N    0.188
    47   1 H    0.998 --     1 C    0.968
    48   1 H    0.998 --     2 C    0.971
    49   1 H    0.998 --     3 C    0.971
    50   1 H    0.999 --     4 C    0.961
    51   1 H    0.998 --     7 C    0.968
    52   1 H    0.998 --     8 C    0.970
    53   1 H    0.998 --     9 C    0.968
    54   1 H    0.996 --    11 C    0.943
    55   1 H    0.997 --    12 C    0.952
    56   1 H    0.999 --    14 C    0.967
    57   1 H    0.998 --    15 C    0.970
    58   1 H    0.998 --    16 C    0.968
    59   1 H    0.997 --    19 C    0.959
    60   1 H    0.998 --    20 C    0.971
    61   1 H    0.998 --    21 C    0.971
    62   1 H    0.998 --    22 C    0.968
    63   1 H    0.995 --    27 C    0.975
    64   1 H    0.994 --    27 C    0.953
    65   1 H    0.995 --    27 C    0.979
    66   1 H    0.996 --    30 C    0.969
    67   1 H    0.995 --    30 C    0.970
    68   1 H    0.996 --    30 C    0.984
    69   1 H    0.998 --    31 C    0.975
    70   1 H    0.996 --    33 C    0.945
    71   1 H    0.878 --    35 O    0.853
    72   1 H    0.996 --    41 C    0.968
    73   1 H    0.995 --    41 C    0.980
    74   1 H    0.995 --    41 C    0.968
    75   1 H    0.995 --    44 C    0.970
    76   1 H    0.996 --    44 C    0.968
    77   1 H    0.996 --    44 C    0.984
    78   1 H    0.998 --    45 C    0.974
 ---------------------------------------------------------------------------

molecular dipole:
                 x           y           z       tot (Debye)
 q only:        1.075      -0.567       0.002
   full:        1.112      -0.304       0.009       2.930

           -------------------------------------------------
          | TOTAL ENERGY             -128.028882313865 Eh   |
          | GRADIENT NORM               0.000211411661 Eh/Î± |
          | HOMO-LUMO GAP               2.749201420581 eV   |
           -------------------------------------------------

 * finished run on 2022/03/16 at 22:09:23.898
