   * xtb version 6.3.3 (4ae9cef) compiled by 'conda@95abc7406d43' on 2020-10-14
          program call               : xtb acid_137.xyz --opt --chrg 0 --uhf 0 --gfn 2
          number of atoms            :                    78
          number of electrons        :                   262
          charge                     :                     0
          spin                       :                   0.0

   ID    Z sym.   atoms
    1    6 C      1-22, 24-30, 34, 36, 37, 41-45, 49-51
    2    7 N      23, 40
    3    9 F      31-33, 46-48
    4    8 O      35, 38, 39, 52
    5    1 H      53-78

          :  Hamiltonian                  GFN2-xTB          :
 * total energy  :  -149.4511975 Eh     change       -0.3023132E-08 Eh
 * total energy  :  -149.4682153 Eh     change       -0.1701784E-01 Eh
 * total energy  :  -149.4732239 Eh     change       -0.5008558E-02 Eh
 * total energy  :  -149.4745822 Eh     change       -0.1358259E-02 Eh
 * total energy  :  -149.4756650 Eh     change       -0.1082857E-02 Eh
 * total energy  :  -149.4762752 Eh     change       -0.6102147E-03 Eh
 * total energy  :  -149.4768723 Eh     change       -0.5970671E-03 Eh
 * total energy  :  -149.4775283 Eh     change       -0.6559934E-03 Eh
 * total energy  :  -149.4782321 Eh     change       -0.7038075E-03 Eh
 * total energy  :  -149.4789725 Eh     change       -0.7404314E-03 Eh
 * total energy  :  -149.5135582 Eh     change       -0.1991449E-04 Eh
 * total energy  :  -149.5135739 Eh     change       -0.1569215E-04 Eh
 * total energy  :  -149.5136019 Eh     change       -0.2803484E-04 Eh
 * total energy  :  -149.5136153 Eh     change       -0.1340441E-04 Eh
 * total energy  :  -149.5136238 Eh     change       -0.8506147E-05 Eh
 * total energy  :  -149.5136384 Eh     change       -0.1456414E-04 Eh
 * total energy  :  -149.5136476 Eh     change       -0.9241365E-05 Eh
 * total energy  :  -149.5136566 Eh     change       -0.8984545E-05 Eh
 * total energy  :  -149.5136614 Eh     change       -0.4773576E-05 Eh
   *** GEOMETRY OPTIMIZATION CONVERGED AFTER 106 ITERATIONS ***

 final structure:
================
78
 xtb: 6.3.3 (4ae9cef)
C         2.11854870583373    0.94300684401976   -1.22953178799877
C         3.07745962547293    1.84848622868543   -1.58043301531593
C         3.22359365124068    3.06212724244870   -0.87539361686933
C         4.23940116166565    3.99166578422175   -1.17732845345422
C         4.36343133306324    5.14717312237031   -0.45715549034593
C         3.47368855204424    5.43049795970300    0.59102899163639
C         2.47132417457020    4.55489623336703    0.90136886484962
C         2.32351331253353    3.35050980189687    0.18319850431188
C         1.33124754133836    2.40576745314058    0.51140443716865
C         1.24682688101503    1.21272989215276   -0.15496174417848
C         0.23555422163057    0.17990043491666    0.25557253786576
C        -0.82925981154123   -0.04508208239677   -0.84012843281304
C        -2.04046163174098    0.81983340604209   -0.62258592254022
C        -2.92839701549209    0.54393576421137    0.38424103152211
C        -4.05342210918083    1.36102985644736    0.60618533259166
C        -4.99117348423590    1.08578257514146    1.62353791179175
C        -6.07458798978964    1.89687165045418    1.81167417914561
C        -6.27008210133684    3.02073283577009    0.99320181586808
C        -5.37833903431374    3.31495729482655    0.00020745821442
C        -4.25041812845229    2.49780611741776   -0.22058913484135
C        -3.31144091384775    2.76865704314303   -1.23700558389242
C        -2.23599958699177    1.95111299729406   -1.43450373947724
N        -1.12882283565082   -1.46742247826682   -0.72740226824810
C        -2.13494105994446   -2.02510674060669   -1.45330688494319
C        -2.27243640906570   -3.50732804267175   -1.26611563804373
C        -2.76763735121953   -4.02859583724997   -0.07660704027369
C        -2.90644310062455   -5.39593336953832    0.08130782836151
C        -2.52939387665240   -6.25753329889423   -0.93454096604904
C        -2.04251109207809   -5.73228885453523   -2.12201151702811
C        -1.55726010947026   -6.63014038661867   -3.22399988140750
F        -1.82774860826597   -7.92466689778326   -3.02049322813498
F        -0.21440980781691   -6.54336165801174   -3.35963847136079
F        -2.06914091361167   -6.31319720076645   -4.42171275313295
C        -1.92960050585707   -4.36033060407003   -2.30290531071768
O        -2.87420112725898   -1.37758446557494   -2.15808848941931
C        -0.03271287996950   -2.18379816924801   -0.12492867999559
C         0.80025766682058   -2.95469850912287   -1.17928518357684
O         0.70409511775274   -4.26694006275447   -1.02939434192677
O         1.36022920457455   -2.40280674030758   -2.08663307498523
N         0.80330904859719   -1.14736180898481    0.45145286040561
C         2.07593435421497   -1.51061638938646    0.73703285128054
C         2.98781829497914   -0.48051246706519    1.30542962813071
C         2.60443903863173    0.34822036160102    2.35018536007773
C         3.49333114151336    1.30297284414148    2.82160144839338
C         3.06685753462694    2.20544892951097    3.94418764875374
F         3.28359298583597    1.65502743392011    5.15373068231250
F         1.75471849121093    2.49485321617710    3.90004983904757
F         3.71165081584538    3.37984975494670    3.94611364658442
C         4.76387894516058    1.42758361497621    2.27621129241022
C         5.15216438450260    0.57052829087905    1.26154416302880
C         4.27338399218830   -0.38385181850512    0.78302266908426
O         2.43579101747764   -2.66021099461619    0.53902449865996
H         2.03403932063367    0.00416613166054   -1.75828092887381
H         3.74954418156801    1.63984441609394   -2.39986733062808
H         4.92093459029780    3.77101095616773   -1.98625718449273
H         5.14759312685633    5.85240909045550   -0.68985255139368
H         3.58884302328325    6.34653241596889    1.15061595020582
H         1.78375501090784    4.76558321412363    1.70730180665931
H         0.65245109308580    2.62904156057167    1.32245194043254
H        -0.26785428127373    0.49694106109116    1.17997468955622
H        -0.40105437190944    0.16068256876537   -1.82998206746163
H        -2.78492048486477   -0.32258547401733    1.01590588641018
H        -4.83881437440757    0.21875650769108    2.25083567137936
H        -6.79010739327828    1.67919408348841    2.59105440706681
H        -7.13299116484371    3.64961394424163    1.15592590359230
H        -5.52515359805486    4.17792495576328   -0.63337675217189
H        -3.46165562456346    3.63456032334082   -1.86528376328716
H        -1.52544638368722    2.16144993594981   -2.22008747672074
H        -3.05385634224304   -3.35883499713983    0.72095905186442
H        -3.29833818445535   -5.79613861711376    1.00342273971310
H        -2.61292243671259   -7.32585550615402   -0.80963320763689
H        -1.56428262786251   -3.96090993682333   -3.23731842316651
H        -0.36727551159431   -2.89826619598839    0.64117224127266
H         1.25303820709277   -4.73427422177484   -1.68155735885069
H         1.62660645263041    0.25571328093827    2.79685900352083
H         5.43620649920446    2.18627860980960    2.64542813002356
H         6.14254140718415    0.65165204556119    0.84232304653643
H         4.56391915704267   -1.05708825950371   -0.00856825410590

          :  Hamiltonian                  GFN2-xTB          :
         :: total energy            -149.513661390821 Eh    ::
         :: gradient norm              0.000970331244 Eh/a0 ::
         :: HOMO-LUMO gap              2.616115475772 eV    ::
         :: SCC energy              -151.512631211400 Eh    ::
         :: -> dispersion             -0.118094025837 Eh    ::
         :: repulsion energy           1.995925835503 Eh    ::

    * Orbital Energies and Occupations

         #    Occupation            Energy/Eh            Energy/eV
      -------------------------------------------------------------
         1        2.0000           -0.8869498             -24.1351
       ...           ...                  ...                  ...
       119        2.0000           -0.4351725             -11.8416
       120        2.0000           -0.4340354             -11.8107
       121        2.0000           -0.4312402             -11.7346
       122        2.0000           -0.4295327             -11.6882
       123        2.0000           -0.4283420             -11.6558
       124        2.0000           -0.4232963             -11.5185
       125        2.0000           -0.4227522             -11.5037
       126        2.0000           -0.4167372             -11.3400
       127        2.0000           -0.4150677             -11.2946
       128        2.0000           -0.4084798             -11.1153
       129        2.0000           -0.4041175             -10.9966
       130        2.0000           -0.3951010             -10.7512
       131        2.0000           -0.3861249             -10.5070 (HOMO)
       132                         -0.2899845              -7.8909 (LUMO)
       133                         -0.2770370              -7.5386
       134                         -0.2758210              -7.5055
       135                         -0.2752546              -7.4901
       136                         -0.2689698              -7.3190
       137                         -0.2676387              -7.2828
       138                         -0.2563641              -6.9760
       139                         -0.2465475              -6.7089
       140                         -0.2374204              -6.4605
       141                         -0.2317711              -6.3068
       142                         -0.2245498              -6.1103
       ...                                ...                  ...
       234                          0.6897897              18.7701
      -------------------------------------------------------------
                  HL-Gap            0.0961405 Eh            2.6161 eV

     #   Z          covCN         q      C6AA      Î±(0)
     1   6 C        2.918    -0.042    29.036     8.836
     2   6 C        2.918    -0.035    28.874     8.812
     3   6 C        2.987     0.011    27.762     8.643
     4   6 C        2.918    -0.035    28.867     8.811
     5   6 C        2.916    -0.028    28.694     8.784
     6   6 C        2.916    -0.027    28.666     8.780
     7   6 C        2.918    -0.034    28.842     8.807
     8   6 C        2.988     0.012    27.740     8.640
     9   6 C        2.923    -0.046    29.134     8.852
    10   6 C        2.970    -0.006    28.173     8.706
    11   6 C        3.819     0.038    19.918     6.352
    12   6 C        3.829     0.048    19.743     6.322
    13   6 C        2.970     0.011    27.776     8.645
    14   6 C        2.923    -0.037    28.911     8.818
    15   6 C        2.987     0.017    27.630     8.622
    16   6 C        2.918    -0.034    28.839     8.806
    17   6 C        2.916    -0.028    28.703     8.785
    18   6 C        2.916    -0.028    28.707     8.786
    19   6 C        2.918    -0.033    28.810     8.802
    20   6 C        2.988     0.016    27.651     8.626
    21   6 C        2.918    -0.030    28.760     8.794
    22   6 C        2.919    -0.030    28.759     8.794
    23   7 N        2.763    -0.116    23.535     7.205
    24   6 C        2.763     0.274    22.376     7.747
    25   6 C        2.978    -0.008    28.203     8.711
    26   6 C        2.922    -0.020    28.501     8.755
    27   6 C        2.921    -0.019    28.490     8.753
    28   6 C        2.920    -0.021    28.520     8.757
    29   6 C        2.978    -0.020    28.489     8.755
    30   6 C        3.337     0.486    17.267     6.579
    31   9 F        0.791    -0.201    11.250     3.962
    32   9 F        0.791    -0.216    11.402     3.989
    33   9 F        0.791    -0.202    11.253     3.963
    34   6 C        2.926    -0.015    28.391     8.738
    35   8 O        0.859    -0.399    21.661     6.240
    36   6 C        3.773     0.093    19.071     6.223
    37   6 C        2.689     0.368    20.765     7.458
    38   8 O        1.659    -0.363    20.140     6.058
    39   8 O        0.856    -0.400    21.678     6.242
    40   7 N        2.763    -0.107    23.345     7.176
    41   6 C        2.777     0.273    22.379     7.748
    42   6 C        2.975    -0.000    28.034     8.685
    43   6 C        2.923    -0.022    28.548     8.762
    44   6 C        2.977    -0.022    28.548     8.764
    45   6 C        3.336     0.486    17.277     6.582
    46   9 F        0.791    -0.206    11.299     3.971
    47   9 F        0.791    -0.208    11.320     3.974
    48   9 F        0.791    -0.203    11.267     3.965
    49   6 C        2.921    -0.020    28.496     8.754
    50   6 C        2.920    -0.020    28.499     8.754
    51   6 C        2.925    -0.011    28.285     8.722
    52   8 O        0.861    -0.424    22.164     6.312
    53   1 H        0.926     0.054     2.265     2.353
    54   1 H        0.926     0.043     2.405     2.425
    55   1 H        0.926     0.037     2.488     2.467
    56   1 H        0.926     0.038     2.480     2.462
    57   1 H        0.926     0.040     2.444     2.444
    58   1 H        0.926     0.041     2.435     2.440
    59   1 H        0.926     0.039     2.467     2.456
    60   1 H        0.923     0.052     2.294     2.369
    61   1 H        0.923     0.063     2.166     2.302
    62   1 H        0.925     0.027     2.635     2.538
    63   1 H        0.926     0.031     2.573     2.508
    64   1 H        0.926     0.034     2.532     2.488
    65   1 H        0.926     0.034     2.524     2.484
    66   1 H        0.926     0.036     2.504     2.474
    67   1 H        0.926     0.042     2.426     2.436
    68   1 H        0.926     0.036     2.498     2.471
    69   1 H        0.926     0.052     2.301     2.372
    70   1 H        0.926     0.061     2.186     2.312
    71   1 H        0.926     0.069     2.098     2.265
    72   1 H        0.926     0.065     2.144     2.289
    73   1 H        0.923     0.069     2.097     2.265
    74   1 H        0.804     0.353     0.581     1.197
    75   1 H        0.926     0.060     2.203     2.321
    76   1 H        0.926     0.067     2.116     2.275
    77   1 H        0.926     0.064     2.154     2.295
    78   1 H        0.926     0.074     2.041     2.234

Wiberg/Mayer (AO) data.
largest (>0.10) Wiberg bond orders for each atom

     #   Z sym  total        # sym  WBO       # sym  WBO       # sym  WBO
 ---------------------------------------------------------------------------
     1   6 C    3.989 --     2 C    1.565    10 C    1.290    53 H    0.963
     2   6 C    3.991 --     1 C    1.565     3 C    1.274    54 H    0.967
                             9 C    0.112
     3   6 C    3.990 --     4 C    1.283     2 C    1.274     8 C    1.250
     4   6 C    3.991 --     5 C    1.554     3 C    1.283    55 H    0.968
                             7 C    0.118
     5   6 C    3.989 --     4 C    1.554     6 C    1.322    56 H    0.971
     6   6 C    3.992 --     7 C    1.556     5 C    1.322    57 H    0.970
     7   6 C    3.989 --     6 C    1.556     8 C    1.280    58 H    0.968
                             4 C    0.118
     8   6 C    3.990 --     9 C    1.280     7 C    1.280     3 C    1.250
     9   6 C    3.989 --    10 C    1.526     8 C    1.280    59 H    0.965
                             2 C    0.112
    10   6 C    3.984 --     9 C    1.526     1 C    1.290    11 C    0.992
    11   6 C    3.958 --    10 C    0.992    40 N    0.954    60 H    0.953
                            12 C    0.950
    12   6 C    3.956 --    13 C    0.991    23 N    0.953    61 H    0.951
                            11 C    0.950
    13   6 C    3.983 --    14 C    1.521    22 C    1.298    12 C    0.991
    14   6 C    3.990 --    13 C    1.521    15 C    1.285    62 H    0.966
                            21 C    0.116
    15   6 C    3.990 --    14 C    1.285    16 C    1.278    20 C    1.249
    16   6 C    3.990 --    17 C    1.559    15 C    1.278    63 H    0.968
                            19 C    0.118
    17   6 C    3.992 --    16 C    1.559    18 C    1.320    64 H    0.971
    18   6 C    3.990 --    19 C    1.557    17 C    1.320    65 H    0.971
    19   6 C    3.992 --    18 C    1.557    20 C    1.281    66 H    0.968
                            16 C    0.118
    20   6 C    3.990 --    19 C    1.281    21 C    1.279    15 C    1.249
    21   6 C    3.991 --    22 C    1.560    20 C    1.279    67 H    0.967
                            14 C    0.116
    22   6 C    3.990 --    21 C    1.560    13 C    1.298    68 H    0.968
    23   7 N    3.458 --    24 C    1.203    36 C    0.986    12 C    0.953
                            35 O    0.193
    24   6 C    3.951 --    35 O    1.712    23 N    1.203    25 C    0.953
    25   6 C    3.987 --    34 C    1.416    26 C    1.402    24 C    0.953
                            28 C    0.109
    26   6 C    3.990 --    27 C    1.447    25 C    1.402    69 H    0.968
                            29 C    0.107
    27   6 C    3.990 --    26 C    1.447    28 C    1.435    70 H    0.968
                            34 C    0.112
    28   6 C    3.987 --    27 C    1.435    29 C    1.418    71 H    0.966
                            25 C    0.109
    29   6 C    3.975 --    28 C    1.418    34 C    1.410    30 C    0.951
                            26 C    0.107
    30   6 C    3.825 --    31 F    0.955    33 F    0.951    29 C    0.951
                            32 F    0.932
    31   9 F    1.078 --    30 C    0.955
    32   9 F    1.060 --    30 C    0.932
    33   9 F    1.078 --    30 C    0.951
    34   6 C    3.989 --    25 C    1.416    29 C    1.410    72 H    0.966
                            27 C    0.112
    35   8 O    2.043 --    24 C    1.712    23 N    0.193
    36   6 C    3.964 --    23 N    0.986    40 N    0.977    73 H    0.947
                            37 C    0.901
    37   6 C    3.923 --    39 O    1.754    38 O    1.162    36 C    0.901
    38   8 O    2.219 --    37 C    1.162    74 H    0.849    39 O    0.175
    39   8 O    2.048 --    37 C    1.754    38 O    0.175
    40   7 N    3.472 --    41 C    1.231    36 C    0.977    11 C    0.954
                            52 O    0.189
    41   6 C    3.948 --    52 O    1.643    40 N    1.231    42 C    0.982
    42   6 C    3.989 --    43 C    1.403    51 C    1.397    41 C    0.982
                            49 C    0.106
    43   6 C    3.989 --    44 C    1.419    42 C    1.403    75 H    0.965
                            50 C    0.109
    44   6 C    3.975 --    43 C    1.419    49 C    1.409    45 C    0.951
                            51 C    0.104
    45   6 C    3.826 --    48 F    0.952    44 C    0.951    47 F    0.945
                            46 F    0.942
    46   9 F    1.072 --    45 C    0.942
    47   9 F    1.069 --    45 C    0.945
    48   9 F    1.076 --    45 C    0.952
    49   6 C    3.987 --    50 C    1.438    44 C    1.409    76 H    0.966
                            42 C    0.106
    50   6 C    3.989 --    51 C    1.445    49 C    1.438    77 H    0.967
                            43 C    0.109
    51   6 C    3.986 --    50 C    1.445    42 C    1.397    78 H    0.965
                            44 C    0.104
    52   8 O    2.042 --    41 C    1.643    40 N    0.189
    53   1 H    0.997 --     1 C    0.963
    54   1 H    0.997 --     2 C    0.967
    55   1 H    0.998 --     4 C    0.968
    56   1 H    0.998 --     5 C    0.971
    57   1 H    0.998 --     6 C    0.970
    58   1 H    0.998 --     7 C    0.968
    59   1 H    0.998 --     9 C    0.965
    60   1 H    0.997 --    11 C    0.953
    61   1 H    0.995 --    12 C    0.951
    62   1 H    0.999 --    14 C    0.966
    63   1 H    0.999 --    16 C    0.968
    64   1 H    0.998 --    17 C    0.971
    65   1 H    0.998 --    18 C    0.971
    66   1 H    0.998 --    19 C    0.968
    67   1 H    0.997 --    21 C    0.967
    68   1 H    0.998 --    22 C    0.968
    69   1 H    0.997 --    26 C    0.968
    70   1 H    0.995 --    27 C    0.968
    71   1 H    0.995 --    28 C    0.966
    72   1 H    0.996 --    34 C    0.966
    73   1 H    0.994 --    36 C    0.947
    74   1 H    0.875 --    38 O    0.849
    75   1 H    0.996 --    43 C    0.965
    76   1 H    0.995 --    49 C    0.966
    77   1 H    0.995 --    50 C    0.967
    78   1 H    0.994 --    51 C    0.965
 ---------------------------------------------------------------------------

molecular dipole:
                 x           y           z       tot (Debye)
 q only:        0.259       1.325       1.086
   full:        0.383       1.050       1.154       4.083

           -------------------------------------------------
          | TOTAL ENERGY             -149.513661390821 Eh   |
          | GRADIENT NORM               0.000970331244 Eh/Î± |
          | HOMO-LUMO GAP               2.616115475772 eV   |
           -------------------------------------------------

 * finished run on 2022/03/16 at 21:46:16.564
