   * xtb version 6.3.3 (4ae9cef) compiled by 'conda@95abc7406d43' on 2020-10-14
          program call               : xtb acid_458.xyz --opt --chrg 0 --uhf 0 --gfn 2
          number of atoms            :                    78
          number of electrons        :                   206
          charge                     :                     0
          spin                       :                   0.0

   ID    Z sym.   atoms
    1    6 C      1, 3-16, 18, 20-25, 27, 28, 32-37
    2    8 O      2, 17, 26, 29, 30, 38
    3    7 N      19, 31
    4    1 H      39-78

          :  Hamiltonian                  GFN2-xTB          :
 * total energy  :  -114.9518303 Eh     change       -0.8895995E-09 Eh
 * total energy  :  -114.9629267 Eh     change       -0.1109631E-01 Eh
 * total energy  :  -114.9668107 Eh     change       -0.3884078E-02 Eh
 * total energy  :  -114.9684051 Eh     change       -0.1594383E-02 Eh
 * total energy  :  -114.9693404 Eh     change       -0.9353122E-03 Eh
 * total energy  :  -114.9699286 Eh     change       -0.5881367E-03 Eh
 * total energy  :  -114.9704398 Eh     change       -0.5112596E-03 Eh
 * total energy  :  -114.9708760 Eh     change       -0.4361438E-03 Eh
 * total energy  :  -114.9711982 Eh     change       -0.3222062E-03 Eh
 * total energy  :  -114.9713939 Eh     change       -0.1956800E-03 Eh
 * total energy  :  -114.9722638 Eh     change       -0.1196400E-04 Eh
 * total energy  :  -114.9722755 Eh     change       -0.1172268E-04 Eh
 * total energy  :  -114.9722917 Eh     change       -0.1614858E-04 Eh
 * total energy  :  -114.9723095 Eh     change       -0.1781829E-04 Eh
 * total energy  :  -114.9723277 Eh     change       -0.1822896E-04 Eh
 * total energy  :  -114.9723451 Eh     change       -0.1741185E-04 Eh
 * total energy  :  -114.9723518 Eh     change       -0.6650805E-05 Eh
 * total energy  :  -114.9723631 Eh     change       -0.1129536E-04 Eh
 * total energy  :  -114.9723673 Eh     change       -0.4236170E-05 Eh
   *** GEOMETRY OPTIMIZATION CONVERGED AFTER 46 ITERATIONS ***

 final structure:
================
78
 xtb: 6.3.3 (4ae9cef)
C         1.82214994227019   -1.93194996390581    0.72803248439438
O         1.71683618460263   -0.89609403567328    1.61345810312628
C         2.36885066666837   -1.00300588960732    2.85407228770713
C         2.42133216852589   -3.14934409448191    1.02092991238645
C         2.45602502470692   -4.15798679972105    0.07253036528614
C         1.89850761425441   -3.96357285668608   -1.17538860311804
C         1.31445246364103   -2.74507861177530   -1.47691373139572
C         1.27357485293899   -1.72292305933674   -0.54633995117136
C         0.58872670206072   -0.42787488890665   -0.88245248396861
C        -0.74690028847024   -0.29676586556914   -0.11146617507618
C        -1.88634982997013   -0.76895864393243   -0.97425910616577
C        -2.34369197820365    0.00088040285354   -2.03160420939567
C        -3.36474951116908   -0.45573608022364   -2.84776858232031
C        -3.92293613166519   -1.69762055011840   -2.61022311296866
C        -3.46726569178028   -2.48729424980039   -1.56750557359028
C        -2.44516931021100   -2.03386518012151   -0.74215984337559
O        -1.93359804374076   -2.73755732056138    0.31068620281006
C        -2.38064306803066   -4.05437507174693    0.52265911213053
N        -0.79454445928968    1.10621444648911    0.24085697118723
C        -1.83452608914238    1.87240986864027    0.64156379708880
C        -3.11815088830817    1.15172052098918    0.98103451760869
C        -3.96036369371494    1.96321571319837    1.96441187697841
C        -5.37605548058476    1.41387382977523    2.12400933570491
C        -5.41678759360220    0.01254378061382    2.73118855037773
C        -6.84728837916496   -0.44183569599492    2.99600569941180
O        -1.68402728227396    3.07987761073142    0.72878567115962
C         0.46573740598530    1.78007981371749    0.00738307439627
C         0.20580063550051    2.91035193045155   -1.01192653562456
O         0.80613766127796    4.04475554702943   -0.67186515609500
O        -0.42812244505296    2.76412155974062   -2.02008558960501
N         1.33985496389013    0.75870967913592   -0.49481254093312
C         2.69496676308545    0.81297738369448   -0.59721696854246
C         3.34534515113309    2.04055333744797    0.01610270048344
C         4.82994541789494    2.12125454997255   -0.33580800352536
C         5.03644365726967    2.50497015504839   -1.79922448176309
C         6.50552335239771    2.70987384961476   -2.16745215516975
C         7.32892518717753    1.43083926894867   -2.07241954066264
O         3.32228515054184   -0.08385717332661   -1.11925307921586
H         3.44594706744831   -1.15204425307836    2.72929324506147
H         1.95599980940927   -1.81597883142028    3.46072480482092
H         2.19211376283545   -0.05590631926778    3.36271092614949
H         2.86613103502400   -3.32480026528557    1.98777176586152
H         2.92628829165779   -5.09841400808667    0.31948631374360
H         1.92572890556383   -4.74930244516725   -1.91464002152024
H         0.88760965507245   -2.57859060691144   -2.45495244085910
H         0.39478054113684   -0.39325980479006   -1.96336679036695
H        -0.70392176195096   -0.90464940901679    0.80011031728431
H        -1.89604711329146    0.96760161440731   -2.20946532467515
H        -3.71681549224195    0.15456611436144   -3.66461337570052
H        -4.71913387614173   -2.06538912709819   -3.24016803414901
H        -3.91567092692076   -3.45483142371341   -1.40724120576884
H        -1.79665405737908   -4.42866097328505    1.36192779230981
H        -3.44446994135071   -4.08398527855029    0.78020496675322
H        -2.19703159510155   -4.68450310289053   -0.35257529433619
H        -2.88223870994687    0.16710950976290    1.38335360224449
H        -3.67853600848488    1.01311295159165    0.05275352381229
H        -4.00791666809854    2.99135307692437    1.60164266574663
H        -3.46166785597534    1.98146317121334    2.93586324590317
H        -5.94040041219606    2.09140747136775    2.76916002147753
H        -5.87044123968133    1.39797476271971    1.14979073593845
H        -4.85697606659704    0.01065275041568    3.66938775411549
H        -4.93736818356374   -0.69651682036932    2.05358308489420
H        -6.86070199249899   -1.44197438661035    3.42347419747719
H        -7.41932969817061   -0.45617476425037    2.07073018897392
H        -7.34053294986664    0.23425278543184    3.69108327722685
H         0.83878626928737    2.23712530198542    0.93572236864438
H         0.56276225590070    4.75879447806089   -1.28365733501228
H         3.22200215798073    1.95931827796499    1.10009491407272
H         2.83522577426193    2.94555957546468   -0.31229719950068
H         5.28217268302025    1.14744749383406   -0.14899010817379
H         5.31236182395692    2.86078426679273    0.30775934444447
H         4.61337452803069    1.72088904266358   -2.42880919989101
H         4.49225950055665    3.43213584856009   -2.00238158527680
H         6.55425958234016    3.08534711835499   -3.19260969888488
H         6.94044330974201    3.47289688086492   -1.51652031763425
H         7.42396834904559    1.10382104193600   -1.04055250386005
H         8.32868677679541    1.59316934754457   -2.47009037299827
H         6.85470066893478    0.63467272097809   -2.64126248689644

          :  Hamiltonian                  GFN2-xTB          :
         :: total energy            -114.972367298917 Eh    ::
         :: gradient norm              0.000588647865 Eh/a0 ::
         :: HOMO-LUMO gap              3.451614173777 eV    ::
         :: SCC energy              -116.506636219120 Eh    ::
         :: -> dispersion             -0.091162399599 Eh    ::
         :: repulsion energy           1.531073055432 Eh    ::

    * Orbital Energies and Occupations

         #    Occupation            Energy/Eh            Energy/eV
      -------------------------------------------------------------
         1        2.0000           -0.7549551             -20.5434
       ...           ...                  ...                  ...
        91        2.0000           -0.4235151             -11.5244
        92        2.0000           -0.4212634             -11.4632
        93        2.0000           -0.4208252             -11.4512
        94        2.0000           -0.4146909             -11.2843
        95        2.0000           -0.4125210             -11.2253
        96        2.0000           -0.4100179             -11.1572
        97        2.0000           -0.4058118             -11.0427
        98        2.0000           -0.3972256             -10.8091
        99        2.0000           -0.3948280             -10.7438
       100        2.0000           -0.3883208             -10.5667
       101        2.0000           -0.3873311             -10.5398
       102        2.0000           -0.3832269             -10.4281
       103        2.0000           -0.3737624             -10.1706 (HOMO)
       104                         -0.2469179              -6.7190 (LUMO)
       105                         -0.2344999              -6.3811
       106                         -0.2234622              -6.0807
       107                         -0.2215258              -6.0280
       108                         -0.2135508              -5.8110
       109                         -0.2089226              -5.6851
       110                         -0.1999736              -5.4416
       111                         -0.1028724              -2.7993
       112                         -0.0933775              -2.5409
       113                         -0.0162852              -0.4431
       114                         -0.0092516              -0.2517
       ...                                ...                  ...
       192                          0.6669303              18.1481
      -------------------------------------------------------------
                  HL-Gap            0.1268445 Eh            3.4516 eV

     #   Z          covCN         q      C6AA      Î±(0)
     1   6 C        2.868     0.147    24.813     8.165
     2   8 O        1.705    -0.277    18.596     5.822
     3   6 C        3.643     0.041    20.220     6.464
     4   6 C        2.918    -0.064    29.586     8.920
     5   6 C        2.921    -0.031    28.774     8.797
     6   6 C        2.918    -0.038    28.949     8.823
     7   6 C        2.925    -0.029    28.721     8.789
     8   6 C        2.973    -0.002    28.063     8.689
     9   6 C        3.831     0.054    19.654     6.308
    10   6 C        3.817     0.038    19.925     6.353
    11   6 C        2.974    -0.023    28.573     8.768
    12   6 C        2.923    -0.040    28.992     8.830
    13   6 C        2.917    -0.040    28.992     8.830
    14   6 C        2.921    -0.032    28.805     8.801
    15   6 C        2.917    -0.066    29.655     8.930
    16   6 C        2.867     0.136    25.029     8.201
    17   8 O        1.705    -0.280    18.643     5.830
    18   6 C        3.643     0.038    20.271     6.472
    19   7 N        2.766    -0.107    23.338     7.175
    20   6 C        2.767     0.270    22.444     7.759
    21   6 C        3.805    -0.084    22.089     6.691
    22   6 C        3.804    -0.055    21.565     6.611
    23   6 C        3.803    -0.061    21.679     6.629
    24   6 C        3.800    -0.053    21.534     6.607
    25   6 C        3.752    -0.103    22.524     6.768
    26   8 O        0.861    -0.448    22.662     6.383
    27   6 C        3.772     0.093    19.076     6.224
    28   6 C        2.690     0.365    20.808     7.465
    29   8 O        1.659    -0.358    20.060     6.046
    30   8 O        0.856    -0.393    21.547     6.223
    31   7 N        2.758    -0.110    23.394     7.184
    32   6 C        2.755     0.274    22.369     7.745
    33   6 C        3.806    -0.090    22.209     6.709
    34   6 C        3.803    -0.053    21.522     6.605
    35   6 C        3.803    -0.059    21.637     6.622
    36   6 C        3.800    -0.052    21.505     6.603
    37   6 C        3.752    -0.103    22.536     6.770
    38   8 O        0.859    -0.426    22.199     6.317
    39   1 H        0.924     0.044     2.402     2.424
    40   1 H        0.924     0.039     2.460     2.453
    41   1 H        0.925     0.057     2.237     2.339
    42   1 H        0.926     0.038     2.474     2.460
    43   1 H        0.926     0.037     2.485     2.465
    44   1 H        0.926     0.038     2.474     2.460
    45   1 H        0.926     0.039     2.461     2.453
    46   1 H        0.923     0.057     2.237     2.339
    47   1 H        0.924     0.071     2.079     2.255
    48   1 H        0.926     0.068     2.104     2.268
    49   1 H        0.926     0.043     2.413     2.429
    50   1 H        0.926     0.039     2.460     2.453
    51   1 H        0.926     0.040     2.455     2.450
    52   1 H        0.925     0.062     2.177     2.307
    53   1 H        0.924     0.043     2.411     2.428
    54   1 H        0.924     0.043     2.405     2.425
    55   1 H        0.925     0.048     2.350     2.397
    56   1 H        0.924     0.062     2.171     2.304
    57   1 H        0.924     0.058     2.224     2.332
    58   1 H        0.924     0.037     2.490     2.468
    59   1 H        0.924     0.036     2.503     2.474
    60   1 H        0.924     0.032     2.554     2.499
    61   1 H        0.924     0.030     2.584     2.514
    62   1 H        0.924     0.028     2.622     2.532
    63   1 H        0.925     0.032     2.557     2.501
    64   1 H        0.925     0.033     2.539     2.492
    65   1 H        0.925     0.034     2.525     2.485
    66   1 H        0.923     0.073     2.049     2.238
    67   1 H        0.804     0.343     0.604     1.221
    68   1 H        0.924     0.050     2.322     2.383
    69   1 H        0.925     0.053     2.282     2.362
    70   1 H        0.925     0.056     2.246     2.344
    71   1 H        0.924     0.031     2.579     2.511
    72   1 H        0.924     0.047     2.362     2.404
    73   1 H        0.924     0.022     2.707     2.573
    74   1 H        0.924     0.028     2.616     2.529
    75   1 H        0.924     0.026     2.639     2.540
    76   1 H        0.925     0.034     2.526     2.486
    77   1 H        0.925     0.029     2.594     2.519
    78   1 H        0.925     0.041     2.434     2.440

Wiberg/Mayer (AO) data.
largest (>0.10) Wiberg bond orders for each atom

     #   Z sym  total        # sym  WBO       # sym  WBO       # sym  WBO
 ---------------------------------------------------------------------------
     1   6 C    3.934 --     4 C    1.388     8 C    1.322     2 O    1.053
     2   8 O    2.222 --     1 C    1.053     3 C    0.985
     3   6 C    3.947 --     2 O    0.985    41 H    0.980    39 H    0.977
                            40 H    0.976
     4   6 C    3.987 --     5 C    1.430     1 C    1.388    42 H    0.966
                             7 C    0.101
     5   6 C    3.990 --     6 C    1.447     4 C    1.430    43 H    0.971
                             8 C    0.107
     6   6 C    3.991 --     5 C    1.447     7 C    1.423    44 H    0.971
     7   6 C    3.989 --     8 C    1.438     6 C    1.423    45 H    0.968
                             4 C    0.101
     8   6 C    3.984 --     7 C    1.438     1 C    1.322     9 C    0.997
                             5 C    0.107
     9   6 C    3.967 --     8 C    0.997    31 N    0.958    46 H    0.953
                            10 C    0.945
    10   6 C    3.965 --    11 C    0.993    19 N    0.965    47 H    0.947
                             9 C    0.945
    11   6 C    3.982 --    12 C    1.432    16 C    1.328    10 C    0.993
                            14 C    0.106
    12   6 C    3.986 --    11 C    1.432    13 C    1.427    48 H    0.960
                            15 C    0.103
    13   6 C    3.991 --    14 C    1.443    12 C    1.427    49 H    0.970
    14   6 C    3.990 --    13 C    1.443    15 C    1.435    50 H    0.971
                            11 C    0.106
    15   6 C    3.987 --    14 C    1.435    16 C    1.381    51 H    0.965
                            12 C    0.103
    16   6 C    3.932 --    15 C    1.381    11 C    1.328    17 O    1.054
    17   8 O    2.223 --    16 C    1.054    18 C    0.983
    18   6 C    3.944 --    17 O    0.983    52 H    0.979    54 H    0.977
                            53 H    0.976
    19   7 N    3.473 --    20 C    1.232    27 C    0.976    10 C    0.965
                            26 O    0.183
    20   6 C    3.943 --    26 O    1.655    19 N    1.232    21 C    0.976
    21   6 C    3.995 --    22 C    1.003    20 C    0.976    55 H    0.966
                            56 H    0.947
    22   6 C    3.993 --    23 C    1.008    21 C    1.003    58 H    0.978
                            57 H    0.973
    23   6 C    3.996 --    24 C    1.008    22 C    1.008    60 H    0.977
                            59 H    0.976
    24   6 C    3.998 --    25 C    1.019    23 C    1.008    61 H    0.978
                            62 H    0.978
    25   6 C    3.997 --    24 C    1.019    64 H    0.988    65 H    0.988
                            63 H    0.988
    26   8 O    2.004 --    20 C    1.655    19 N    0.183
    27   6 C    3.968 --    31 N    0.992    19 N    0.976    66 H    0.945
                            28 C    0.906
    28   6 C    3.919 --    30 O    1.768    29 O    1.155    27 C    0.906
    29   8 O    2.222 --    28 C    1.155    67 H    0.855    30 O    0.176
    30   8 O    2.057 --    28 C    1.768    29 O    0.176
    31   7 N    3.462 --    32 C    1.205    27 C    0.992     9 C    0.958
                            38 O    0.182
    32   6 C    3.943 --    38 O    1.694    31 N    1.205    33 C    0.968
    33   6 C    3.994 --    34 C    1.006    32 C    0.968    69 H    0.959
                            68 H    0.953
    34   6 C    3.994 --    35 C    1.009    33 C    1.006    71 H    0.977
                            70 H    0.973
    35   6 C    3.997 --    34 C    1.009    36 C    1.008    73 H    0.977
                            72 H    0.975
    36   6 C    3.998 --    37 C    1.020    35 C    1.008    74 H    0.979
                            75 H    0.978
    37   6 C    3.997 --    36 C    1.020    77 H    0.988    78 H    0.987
                            76 H    0.987
    38   8 O    2.019 --    32 C    1.694    31 N    0.182
    39   1 H    0.998 --     3 C    0.977
    40   1 H    0.998 --     3 C    0.976
    41   1 H    0.996 --     3 C    0.980
    42   1 H    0.998 --     4 C    0.966
    43   1 H    0.998 --     5 C    0.971
    44   1 H    0.998 --     6 C    0.971
    45   1 H    0.998 --     7 C    0.968
    46   1 H    0.996 --     9 C    0.953
    47   1 H    0.995 --    10 C    0.947
    48   1 H    0.995 --    12 C    0.960
    49   1 H    0.998 --    13 C    0.970
    50   1 H    0.998 --    14 C    0.971
    51   1 H    0.998 --    15 C    0.965
    52   1 H    0.996 --    18 C    0.979
    53   1 H    0.998 --    18 C    0.976
    54   1 H    0.998 --    18 C    0.977
    55   1 H    0.998 --    21 C    0.966
    56   1 H    0.996 --    21 C    0.947
    57   1 H    0.996 --    22 C    0.973
    58   1 H    0.999 --    22 C    0.978
    59   1 H    0.998 --    23 C    0.976
    60   1 H    0.999 --    23 C    0.977
    61   1 H    0.999 --    24 C    0.978
    62   1 H    0.999 --    24 C    0.978
    63   1 H    0.999 --    25 C    0.988
    64   1 H    0.999 --    25 C    0.988
    65   1 H    0.999 --    25 C    0.988
    66   1 H    0.994 --    27 C    0.945
    67   1 H    0.882 --    29 O    0.855
    68   1 H    0.997 --    33 C    0.953
    69   1 H    0.997 --    33 C    0.959
    70   1 H    0.997 --    34 C    0.973
    71   1 H    0.998 --    34 C    0.977
    72   1 H    0.998 --    35 C    0.975
    73   1 H    1.000 --    35 C    0.977
    74   1 H    0.999 --    36 C    0.979
    75   1 H    0.999 --    36 C    0.978
    76   1 H    0.999 --    37 C    0.987
    77   1 H    0.999 --    37 C    0.988
    78   1 H    0.998 --    37 C    0.987
 ---------------------------------------------------------------------------

molecular dipole:
                 x           y           z       tot (Debye)
 q only:       -0.587      -1.239       0.907
   full:       -0.708      -1.254       1.101       4.608

           -------------------------------------------------
          | TOTAL ENERGY             -114.972367298917 Eh   |
          | GRADIENT NORM               0.000588647865 Eh/Î± |
          | HOMO-LUMO GAP               3.451614173777 eV   |
           -------------------------------------------------

 * finished run on 2022/03/17 at 01:26:38.177
