   * xtb version 6.3.3 (4ae9cef) compiled by 'conda@95abc7406d43' on 2020-10-14
          program call               : xtb acid_257.xyz --opt --chrg 0 --uhf 0 --gfn 2
          number of atoms            :                    68
          number of electrons        :                   206
          charge                     :                     0
          spin                       :                   0.0

   ID    Z sym.   atoms
    1    6 C      1, 3-16, 18, 20-25, 28, 29, 33-38
    2    8 O      2, 17, 27, 30, 31, 40
    3    7 N      19, 32
    4   16 S      26, 39
    5    1 H      41-68

          :  Hamiltonian                  GFN2-xTB          :
 * total energy  :  -115.2712343 Eh     change       -0.3411472E-08 Eh
 * total energy  :  -115.2865970 Eh     change       -0.1536268E-01 Eh
 * total energy  :  -115.2920095 Eh     change       -0.5412551E-02 Eh
 * total energy  :  -115.2939069 Eh     change       -0.1897385E-02 Eh
 * total energy  :  -115.2952065 Eh     change       -0.1299541E-02 Eh
 * total energy  :  -115.2960879 Eh     change       -0.8814753E-03 Eh
 * total energy  :  -115.2968722 Eh     change       -0.7842876E-03 Eh
 * total energy  :  -115.2975721 Eh     change       -0.6998415E-03 Eh
 * total energy  :  -115.2982184 Eh     change       -0.6463262E-03 Eh
 * total energy  :  -115.2988899 Eh     change       -0.6714511E-03 Eh
 * total energy  :  -115.3060918 Eh     change       -0.1653827E-04 Eh
 * total energy  :  -115.3060869 Eh     change        0.4942001E-05 Eh
 * total energy  :  -115.3061032 Eh     change       -0.1631144E-04 Eh
 * total energy  :  -115.3061152 Eh     change       -0.1199636E-04 Eh
 * total energy  :  -115.3061220 Eh     change       -0.6740773E-05 Eh
 * total energy  :  -115.3061361 Eh     change       -0.1416187E-04 Eh
 * total energy  :  -115.3061481 Eh     change       -0.1200071E-04 Eh
 * total energy  :  -115.3061568 Eh     change       -0.8670598E-05 Eh
 * total energy  :  -115.3061611 Eh     change       -0.4297456E-05 Eh
   *** GEOMETRY OPTIMIZATION CONVERGED AFTER 44 ITERATIONS ***

 final structure:
================
68
 xtb: 6.3.3 (4ae9cef)
C        -1.96526571462529   -1.27598600668927   -2.44315673935487
O        -1.14484019763523   -0.28024964534684   -2.87254473571301
C        -1.09054612698811    0.01904739613942   -4.24739692540654
C        -2.80773916453367   -1.99617840815587   -3.28534487129752
C        -3.59987559163404   -3.01600905152168   -2.79077402986821
C        -3.56361290804453   -3.33504927450857   -1.44698317563702
C        -2.73899845031291   -2.61319606607032   -0.60430663455620
C        -1.94301167049056   -1.57740740228500   -1.07336680616267
C        -1.03273372102140   -0.89393660771033   -0.07399889835319
C         0.38071891268071   -1.51189669776982   -0.13132321258978
C         0.98901399368263   -1.91568224468160    1.19335830064658
C         1.74726394448003   -3.07698688414058    1.22904577977301
C         2.41603684971454   -3.47062510773473    2.37392748658179
C         2.33139765728450   -2.68721176954520    3.50851613791423
C         1.57135367977644   -1.53193865280625    3.50166311142851
C         0.88942081506187   -1.13313185142767    2.35541203237722
O         0.08965515996405   -0.03229475256546    2.31085468394289
C         0.15780218272542    0.89360104905612    3.36887803231360
N         1.17973858232214   -0.48038928827879   -0.77977718968739
C         2.37601775981180   -0.77293283195157   -1.33539202394705
C         3.09341210938702    0.39639409198990   -1.90530824480177
C         4.15190861948205    1.03773081251338   -1.32907628832841
C         4.69363651954822    0.68438942635930    0.01518631490055
C         4.63061539116651    2.09847407337353   -2.14205356175850
C         3.94830756544493    2.22815873003294   -3.30522437041658
S         2.69085335914336    1.06444985103315   -3.44976621340589
O         2.84202736706295   -1.89531463453844   -1.33715767704692
C         0.50209316137879    0.78416265903060   -0.85653679193485
C         1.25456423696506    1.92318627236231   -0.12726775754068
O         1.51118490349644    2.92354744434774   -0.98046734922586
O         1.76711377847456    1.83367459284808    0.95719598631919
N        -0.79901590083355    0.52256725938641   -0.27584306461635
C        -1.36695114484223    1.57467449751758    0.35008361044065
C        -2.68455714225489    1.45410232944066    0.96802451233520
C        -3.23717208625410    2.31541853999544    1.89284929806568
C        -2.57784775064839    3.50584299556067    2.50262738635590
C        -4.55712550874308    1.94462723181556    2.24252409358401
C        -5.00143912542390    0.85028594379230    1.57469604957056
S        -3.81915442513224    0.21601787227720    0.51093235441249
O        -0.76450997231994    2.65136762846764    0.34228832934292
H        -2.05116683249497    0.39220770176867   -4.61593247539815
H        -0.78285954860784   -0.85099677974104   -4.83501185898229
H        -0.33767512764868    0.79997607874412   -4.34906117236570
H        -2.84696461687746   -1.76849597160872   -4.33835971482107
H        -4.24246478876420   -3.56184746052210   -3.46498213556577
H        -4.17204691795052   -4.13523690370041   -1.05603798964574
H        -2.70765211461371   -2.85452238886930    0.44807699440369
H        -1.45933884106207   -1.04229108645453    0.92180293964383
H         0.38815932585948   -2.39558872683151   -0.78199411691611
H         1.83417078343876   -3.66684586559194    0.32996210564537
H         3.00483168777895   -4.37456251586384    2.37351668177517
H         2.85468716835143   -2.97092872670261    4.40976021636610
H         1.51330692750094   -0.93887782127407    4.40019963140956
H        -0.28564032224700    0.48808361332282    4.28552457127677
H        -0.41569646386406    1.75610917298794    3.03774971486269
H         1.18796576926534    1.20538477739444    3.55296204062060
H         5.69921843508737    1.07890379161414    0.13787612930578
H         4.05222894550732    1.10288466989694    0.79258419262416
H         4.70960873349990   -0.39601732303800    0.14339797777319
H         5.45592808761215    2.72842877632303   -1.86079787167547
H         4.10362468401320    2.93175255142444   -4.09834809307524
H         0.38540508989768    1.11742722580149   -1.89838135811682
H         1.97336404463395    3.63877442927876   -0.51836321128123
H        -1.60938013769898    3.68735972461097    2.04897681187996
H        -2.46075808725880    3.35825671441816    3.57657838908526
H        -3.20502412681970    4.38380215218133    2.35337658448277
H        -5.14680888135842    2.48921216671907    2.95836632920043
H        -5.95876082250388    0.37234650409295    1.64156374883543

          :  Hamiltonian                  GFN2-xTB          :
         :: total energy            -115.306161085923 Eh    ::
         :: gradient norm              0.000374725457 Eh/a0 ::
         :: HOMO-LUMO gap              2.685164992613 eV    ::
         :: SCC energy              -116.851470306412 Eh    ::
         :: -> dispersion             -0.103679967799 Eh    ::
         :: repulsion energy           1.541023057188 Eh    ::

    * Orbital Energies and Occupations

         #    Occupation            Energy/Eh            Energy/eV
      -------------------------------------------------------------
         1        2.0000           -0.7409880             -20.1633
       ...           ...                  ...                  ...
        91        2.0000           -0.4212313             -11.4623
        92        2.0000           -0.4132683             -11.2456
        93        2.0000           -0.4078782             -11.0989
        94        2.0000           -0.4044303             -11.0051
        95        2.0000           -0.4031921             -10.9714
        96        2.0000           -0.4009529             -10.9105
        97        2.0000           -0.3966783             -10.7942
        98        2.0000           -0.3919013             -10.6642
        99        2.0000           -0.3893964             -10.5960
       100        2.0000           -0.3863039             -10.5119
       101        2.0000           -0.3796517             -10.3308
       102        2.0000           -0.3788369             -10.3087
       103        2.0000           -0.3746111             -10.1937 (HOMO)
       104                         -0.2759331              -7.5085 (LUMO)
       105                         -0.2416977              -6.5769
       106                         -0.2379123              -6.4739
       107                         -0.2249228              -6.1205
       108                         -0.2231580              -6.0724
       109                         -0.2199660              -5.9856
       110                         -0.2146380              -5.8406
       111                         -0.2129471              -5.7946
       112                         -0.2098870              -5.7113
       113                         -0.2022160              -5.5026
       114                         -0.1918247              -5.2198
       ...                                ...                  ...
       198                          0.6922682              18.8376
      -------------------------------------------------------------
                  HL-Gap            0.0986780 Eh            2.6852 eV

     #   Z          covCN         q      C6AA      Î±(0)
     1   6 C        2.865     0.144    24.865     8.174
     2   8 O        1.705    -0.271    18.489     5.805
     3   6 C        3.642     0.035    20.324     6.481
     4   6 C        2.918    -0.066    29.634     8.927
     5   6 C        2.921    -0.031    28.763     8.795
     6   6 C        2.917    -0.040    28.992     8.830
     7   6 C        2.928    -0.037    28.930     8.821
     8   6 C        2.970    -0.024    28.604     8.773
     9   6 C        3.818     0.039    19.913     6.351
    10   6 C        3.825     0.051    19.707     6.317
    11   6 C        2.968    -0.022    28.559     8.766
    12   6 C        2.927    -0.030    28.746     8.793
    13   6 C        2.917    -0.040    29.000     8.831
    14   6 C        2.920    -0.031    28.773     8.796
    15   6 C        2.918    -0.066    29.639     8.928
    16   6 C        2.866     0.146    24.830     8.168
    17   8 O        1.705    -0.275    18.566     5.818
    18   6 C        3.644     0.041    20.216     6.463
    19   7 N        2.767    -0.101    23.220     7.157
    20   6 C        2.779     0.273    22.384     7.749
    21   6 C        3.003    -0.027    28.671     8.784
    22   6 C        3.148     0.009    27.557     8.587
    23   6 C        3.755    -0.107    22.606     6.779
    24   6 C        3.122    -0.052    29.107     8.836
    25   6 C        2.935    -0.021    28.531     8.760
    26  16 S        2.313    -0.029   142.242    20.073
    27   8 O        0.859    -0.429    22.265     6.326
    28   6 C        3.775     0.094    19.059     6.220
    29   6 C        2.702     0.376    20.638     7.436
    30   8 O        1.660    -0.379    20.437     6.103
    31   8 O        0.856    -0.422    22.120     6.306
    32   7 N        2.763    -0.080    22.802     7.092
    33   6 C        2.798     0.273    22.391     7.752
    34   6 C        2.990    -0.019    28.484     8.755
    35   6 C        3.144     0.022    27.254     8.542
    36   6 C        3.755    -0.113    22.714     6.796
    37   6 C        3.119    -0.053    29.134     8.840
    38   6 C        2.934    -0.017    28.427     8.744
    39  16 S        2.315    -0.019   141.828    20.044
    40   8 O        0.879    -0.440    22.491     6.359
    41   1 H        0.924     0.044     2.397     2.421
    42   1 H        0.924     0.046     2.372     2.409
    43   1 H        0.925     0.066     2.127     2.281
    44   1 H        0.926     0.043     2.409     2.427
    45   1 H        0.926     0.041     2.437     2.441
    46   1 H        0.926     0.041     2.433     2.439
    47   1 H        0.926     0.039     2.460     2.453
    48   1 H        0.924     0.074     2.045     2.236
    49   1 H        0.924     0.067     2.123     2.278
    50   1 H        0.926     0.057     2.233     2.337
    51   1 H        0.926     0.040     2.455     2.450
    52   1 H        0.926     0.036     2.496     2.471
    53   1 H        0.926     0.040     2.454     2.450
    54   1 H        0.924     0.030     2.588     2.516
    55   1 H        0.925     0.064     2.153     2.294
    56   1 H        0.924     0.056     2.244     2.343
    57   1 H        0.925     0.047     2.359     2.402
    58   1 H        0.924     0.062     2.171     2.304
    59   1 H        0.925     0.053     2.286     2.364
    60   1 H        0.926     0.040     2.451     2.448
    61   1 H        0.926     0.048     2.349     2.397
    62   1 H        0.923     0.082     1.954     2.186
    63   1 H        0.805     0.336     0.621     1.238
    64   1 H        0.925     0.077     2.013     2.219
    65   1 H        0.924     0.050     2.317     2.380
    66   1 H        0.925     0.057     2.235     2.338
    67   1 H        0.926     0.048     2.341     2.393
    68   1 H        0.926     0.055     2.256     2.349

Wiberg/Mayer (AO) data.
largest (>0.10) Wiberg bond orders for each atom

     #   Z sym  total        # sym  WBO       # sym  WBO       # sym  WBO
 ---------------------------------------------------------------------------
     1   6 C    3.935 --     4 C    1.372     8 C    1.329     2 O    1.065
     2   8 O    2.238 --     1 C    1.065     3 C    0.980
     3   6 C    3.941 --     2 O    0.980    43 H    0.977    42 H    0.976
                            41 H    0.976
     4   6 C    3.987 --     5 C    1.442     1 C    1.372    44 H    0.965
                             7 C    0.103
     5   6 C    3.989 --     4 C    1.442     6 C    1.436    45 H    0.971
                             8 C    0.106
     6   6 C    3.990 --     5 C    1.436     7 C    1.434    46 H    0.970
     7   6 C    3.988 --     6 C    1.434     8 C    1.424    47 H    0.967
                             4 C    0.103
     8   6 C    3.982 --     7 C    1.424     1 C    1.329     9 C    0.985
                             5 C    0.106
     9   6 C    3.964 --     8 C    0.985    32 N    0.969    10 C    0.954
                            48 H    0.947
    10   6 C    3.962 --    11 C    0.986     9 C    0.954    49 H    0.953
                            19 N    0.951
    11   6 C    3.980 --    12 C    1.431    16 C    1.329    10 C    0.986
                            14 C    0.106
    12   6 C    3.987 --    11 C    1.431    13 C    1.430    50 H    0.965
                            15 C    0.104
    13   6 C    3.991 --    14 C    1.439    12 C    1.430    51 H    0.970
    14   6 C    3.990 --    15 C    1.441    13 C    1.439    52 H    0.971
                            11 C    0.106
    15   6 C    3.987 --    14 C    1.441    16 C    1.374    53 H    0.965
                            12 C    0.104
    16   6 C    3.935 --    15 C    1.374    11 C    1.329    17 O    1.064
    17   8 O    2.233 --    16 C    1.064    18 C    0.978
    18   6 C    3.941 --    17 O    0.978    54 H    0.977    56 H    0.976
                            55 H    0.975
    19   7 N    3.494 --    20 C    1.229    28 C    0.987    10 C    0.951
                            27 O    0.195
    20   6 C    3.952 --    27 O    1.669    19 N    1.229    21 C    0.970
    21   6 C    3.941 --    22 C    1.565    26 S    1.145    20 C    0.970
                            25 C    0.117
    22   6 C    3.985 --    21 C    1.565    24 C    1.241    23 C    1.025
    23   6 C    3.995 --    22 C    1.025    57 H    0.983    59 H    0.977
                            58 H    0.960
    24   6 C    3.986 --    25 C    1.637    22 C    1.241    60 H    0.964
    25   6 C    3.947 --    24 C    1.637    26 S    1.186    61 H    0.970
                            21 C    0.117
    26  16 S    2.624 --    25 C    1.186    21 C    1.145
    27   8 O    2.011 --    20 C    1.669    19 N    0.195
    28   6 C    3.959 --    19 N    0.987    32 N    0.978    62 H    0.934
                            29 C    0.905
    29   6 C    3.922 --    31 O    1.725    30 O    1.120    28 C    0.905
                            40 O    0.109
    30   8 O    2.180 --    29 C    1.120    63 H    0.863    31 O    0.155
    31   8 O    2.027 --    29 C    1.725    30 O    0.155
    32   7 N    3.500 --    33 C    1.243    28 C    0.978     9 C    0.969
                            40 O    0.170
    33   6 C    3.950 --    40 O    1.552    32 N    1.243    34 C    1.058
    34   6 C    3.938 --    35 C    1.501    39 S    1.133    33 C    1.058
                            38 C    0.102
    35   6 C    3.984 --    34 C    1.501    37 C    1.269    36 C    1.029
    36   6 C    3.992 --    35 C    1.029    64 H    0.973    66 H    0.967
                            65 H    0.966
    37   6 C    3.985 --    38 C    1.607    35 C    1.269    67 H    0.964
    38   6 C    3.951 --    37 C    1.607    39 S    1.218    68 H    0.968
                            34 C    0.102
    39  16 S    2.663 --    38 C    1.218    34 C    1.133
    40   8 O    2.061 --    33 C    1.552    32 N    0.170    29 C    0.109
    41   1 H    0.998 --     3 C    0.976
    42   1 H    0.998 --     3 C    0.976
    43   1 H    0.995 --     3 C    0.977
    44   1 H    0.998 --     4 C    0.965
    45   1 H    0.998 --     5 C    0.971
    46   1 H    0.998 --     6 C    0.970
    47   1 H    0.998 --     7 C    0.967
    48   1 H    0.994 --     9 C    0.947
    49   1 H    0.994 --    10 C    0.953
    50   1 H    0.996 --    12 C    0.965
    51   1 H    0.998 --    13 C    0.970
    52   1 H    0.998 --    14 C    0.971
    53   1 H    0.998 --    15 C    0.965
    54   1 H    0.999 --    18 C    0.977
    55   1 H    0.995 --    18 C    0.975
    56   1 H    0.997 --    18 C    0.976
    57   1 H    0.998 --    23 C    0.983
    58   1 H    0.996 --    23 C    0.960
    59   1 H    0.997 --    23 C    0.977
    60   1 H    0.998 --    24 C    0.964
    61   1 H    0.997 --    25 C    0.970
    62   1 H    0.991 --    28 C    0.934
    63   1 H    0.886 --    30 O    0.863
    64   1 H    0.994 --    36 C    0.973
    65   1 H    0.997 --    36 C    0.966
    66   1 H    0.996 --    36 C    0.967
    67   1 H    0.997 --    37 C    0.964
    68   1 H    0.996 --    38 C    0.968
 ---------------------------------------------------------------------------

molecular dipole:
                 x           y           z       tot (Debye)
 q only:       -1.785       0.202       0.204
   full:       -1.694       0.656       0.471       4.771

           -------------------------------------------------
          | TOTAL ENERGY             -115.306161085923 Eh   |
          | GRADIENT NORM               0.000374725457 Eh/Î± |
          | HOMO-LUMO GAP               2.685164992613 eV   |
           -------------------------------------------------

 * finished run on 2022/03/16 at 23:05:22.953
