   * xtb version 6.3.3 (4ae9cef) compiled by 'conda@95abc7406d43' on 2020-10-14
          program call               : xtb acid_484.xyz --opt --chrg 0 --uhf 0 --gfn 2
          number of atoms            :                    50
          number of electrons        :                   144
          charge                     :                     0
          spin                       :                   0.0

   ID    Z sym.   atoms
    1    8 O      1, 12, 13, 22
    2    6 C      2-8, 10, 11, 15-21, 23-28
    3    7 N      9, 14
    4    1 H      29-50

          :  Hamiltonian                  GFN2-xTB          :
 * total energy  :   -80.4792852 Eh     change       -0.7225509E-09 Eh
 * total energy  :   -80.4896170 Eh     change       -0.1033185E-01 Eh
 * total energy  :   -80.4920337 Eh     change       -0.2416682E-02 Eh
 * total energy  :   -80.4928695 Eh     change       -0.8358005E-03 Eh
 * total energy  :   -80.4932879 Eh     change       -0.4183934E-03 Eh
 * total energy  :   -80.4936929 Eh     change       -0.4049818E-03 Eh
 * total energy  :   -80.4938696 Eh     change       -0.1767079E-03 Eh
 * total energy  :   -80.4940318 Eh     change       -0.1622337E-03 Eh
 * total energy  :   -80.4940876 Eh     change       -0.5582988E-04 Eh
 * total energy  :   -80.4941059 Eh     change       -0.1822437E-04 Eh
 * total energy  :   -80.4941377 Eh     change       -0.1447070E-04 Eh
 * total energy  :   -80.4941563 Eh     change       -0.1861601E-04 Eh
 * total energy  :   -80.4941676 Eh     change       -0.1129636E-04 Eh
 * total energy  :   -80.4941763 Eh     change       -0.8697653E-05 Eh
 * total energy  :   -80.4941841 Eh     change       -0.7731524E-05 Eh
 * total energy  :   -80.4941904 Eh     change       -0.6353685E-05 Eh
 * total energy  :   -80.4941959 Eh     change       -0.5471614E-05 Eh
 * total energy  :   -80.4942012 Eh     change       -0.5265892E-05 Eh
 * total energy  :   -80.4942061 Eh     change       -0.4939467E-05 Eh
   *** GEOMETRY OPTIMIZATION CONVERGED AFTER 21 ITERATIONS ***

 final structure:
================
50
 xtb: 6.3.3 (4ae9cef)
O         1.31711907347608   -1.11529835274467   -3.35719610106855
C         1.61900382085673   -0.49445213355745   -2.36376998994440
C         2.98252428412176    0.06977635668159   -2.13324079693709
C         3.49738735641209    0.99548285852187   -3.03095428810896
C         4.76646098592882    1.51221391764968   -2.83746209973711
C         5.53239682046486    1.09328491143509   -1.76254905639027
C         5.03105692316410    0.15040514917639   -0.88004560141026
C         3.75800694573791   -0.35944741291301   -1.06121030380073
N         0.75629913962657   -0.33169749414239   -1.31028957330330
C         0.85730237553974    0.74737038968551   -0.35815576879993
C         0.76134883877541    2.13522463630844   -1.07198975308796
O         0.83669511485633    3.17162950758787   -0.27036182634061
O         0.65480822494374    2.20998686293207   -2.26283130752643
N        -0.25786401588466    0.51677141482021    0.56139262952158
C        -0.30308748954979    1.11467996567748    1.76281084056436
C        -1.28904237875685    0.59357360739408    2.74691165115939
C        -2.30739845973604    1.42245107705702    3.20153720296842
C        -3.20055101090483    0.96067999363349    4.15174878895745
C        -3.06717633388758   -0.31780056572891    4.66737181440705
C        -2.03474637783434   -1.13484974565940    4.23690632731206
C        -1.14661559684803   -0.68393975505143    3.27691735901391
O         0.44172692461311    2.05672002519560    2.03667045426200
C        -1.09108828825499   -0.56665089421101    0.06201133447894
C        -0.65871963695629   -0.66069168746288   -1.40059137553959
C        -1.03483055247885   -2.03037657934877   -1.94751674522550
C        -2.40807889351675   -2.42792024700911   -1.37265348553871
C        -3.24946153174929   -1.20190277567931   -1.00820738221564
C        -2.60440484700009   -0.38204195894611    0.12699263481147
H         2.88914209653355    1.31318373316369   -3.86308264698029
H         5.16015373310530    2.24107252375333   -3.52979915265560
H         6.52352236987719    1.49572408797445   -1.61400106792684
H         5.63264554020676   -0.18832799599721   -0.04919563356020
H         3.37047511356769   -1.10723715846850   -0.38265942437405
H         1.80824045633376    0.72729780040930    0.19480335749251
H         0.83897051681938    2.90341477009117    0.69939798572262
H        -2.39518706151427    2.42224351516990    2.80411680024459
H        -3.99688622691248    1.60289148453846    4.49605521635294
H        -3.76162547169895   -0.67491843099771    5.41284569424561
H        -1.91873906937707   -2.12496628647840    4.65167918884319
H        -0.33019516859393   -1.31434621005438    2.95590866369545
H        -0.80608977570027   -1.49426486946371    0.57408812835407
H        -1.15843935070019    0.12498880849238   -1.98374408574788
H        -1.05840461460893   -1.99251077511417   -3.03459091098778
H        -0.27806518537477   -2.76150615346115   -1.66249666698101
H        -2.94678449598013   -3.02957482350311   -2.10460579571131
H        -2.28021420806398   -3.04274306955847   -0.47965862491768
H        -3.36880087763681   -0.58200194938974   -1.89714209355259
H        -4.24500901155112   -1.52121359932754   -0.69834243615021
H        -2.98312044932264   -0.71424893095428    1.09409563517329
H        -2.85466027456685    0.67386245787328    0.01408028693927

          :  Hamiltonian                  GFN2-xTB          :
         :: total energy             -80.494206104799 Eh    ::
         :: gradient norm              0.000381487626 Eh/a0 ::
         :: HOMO-LUMO gap              3.244663480842 eV    ::
         :: SCC energy               -81.620244317274 Eh    ::
         :: -> dispersion             -0.061710529622 Eh    ::
         :: repulsion energy           1.124901906164 Eh    ::

    * Orbital Energies and Occupations

         #    Occupation            Energy/Eh            Energy/eV
      -------------------------------------------------------------
         1        2.0000           -0.7494137             -20.3926
       ...           ...                  ...                  ...
        60        2.0000           -0.4500402             -12.2462
        61        2.0000           -0.4489400             -12.2163
        62        2.0000           -0.4431837             -12.0596
        63        2.0000           -0.4390631             -11.9475
        64        2.0000           -0.4329587             -11.7814
        65        2.0000           -0.4316620             -11.7461
        66        2.0000           -0.4278521             -11.6424
        67        2.0000           -0.4255621             -11.5801
        68        2.0000           -0.4180204             -11.3749
        69        2.0000           -0.4115743             -11.1995
        70        2.0000           -0.4101318             -11.1603
        71        2.0000           -0.3961355             -10.7794
        72        2.0000           -0.3891447             -10.5892 (HOMO)
        73                         -0.2699055              -7.3445 (LUMO)
        74                         -0.2509961              -6.8300
        75                         -0.2455495              -6.6817
        76                         -0.2436361              -6.6297
        77                         -0.2318488              -6.3089
        78                         -0.2289692              -6.2306
        79                         -0.2023158              -5.5053
        80                         -0.1211309              -3.2961
        81                         -0.0989049              -2.6913
        82                         -0.0606431              -1.6502
        83                         -0.0235716              -0.6414
       ...                                ...                  ...
       134                          0.6698274              18.2269
      -------------------------------------------------------------
                  HL-Gap            0.1192392 Eh            3.2447 eV

     #   Z          covCN         q      C6AA      Î±(0)
     1   8 O        0.858    -0.406    21.805     6.261
     2   6 C        2.762     0.280    22.263     7.727
     3   6 C        2.977    -0.018    28.458     8.751
     4   6 C        2.923    -0.018    28.448     8.747
     5   6 C        2.920    -0.025    28.619     8.773
     6   6 C        2.920    -0.027    28.674     8.781
     7   6 C        2.919    -0.029    28.723     8.789
     8   6 C        2.922    -0.034    28.847     8.808
     9   7 N        2.768    -0.133    23.883     7.258
    10   6 C        3.789     0.076    19.334     6.262
    11   6 C        2.684     0.349    21.077     7.513
    12   8 O        1.653    -0.372    20.317     6.085
    13   8 O        0.856    -0.371    21.116     6.161
    14   7 N        2.764    -0.114    23.490     7.198
    15   6 C        2.764     0.268    22.482     7.765
    16   6 C        2.977    -0.010    28.257     8.720
    17   6 C        2.923    -0.021    28.522     8.758
    18   6 C        2.920    -0.024    28.612     8.772
    19   6 C        2.920    -0.025    28.620     8.773
    20   6 C        2.920    -0.026    28.648     8.777
    21   6 C        2.922    -0.027    28.677     8.782
    22   8 O        0.860    -0.459    22.898     6.416
    23   6 C        3.833     0.038    19.910     6.348
    24   6 C        3.860     0.052    19.663     6.306
    25   6 C        3.805    -0.067    21.780     6.644
    26   6 C        3.804    -0.065    21.751     6.640
    27   6 C        3.804    -0.064    21.721     6.635
    28   6 C        3.804    -0.065    21.745     6.639
    29   1 H        0.926     0.059     2.211     2.325
    30   1 H        0.926     0.043     2.410     2.428
    31   1 H        0.926     0.038     2.474     2.459
    32   1 H        0.926     0.036     2.501     2.473
    33   1 H        0.925     0.027     2.627     2.534
    34   1 H        0.923     0.064     2.149     2.293
    35   1 H        0.799     0.367     0.552     1.167
    36   1 H        0.926     0.047     2.356     2.400
    37   1 H        0.926     0.046     2.376     2.410
    38   1 H        0.926     0.044     2.403     2.424
    39   1 H        0.926     0.043     2.408     2.426
    40   1 H        0.926     0.034     2.525     2.485
    41   1 H        0.924     0.051     2.314     2.379
    42   1 H        0.923     0.053     2.283     2.363
    43   1 H        0.925     0.072     2.059     2.244
    44   1 H        0.925     0.052     2.295     2.369
    45   1 H        0.925     0.048     2.339     2.392
    46   1 H        0.924     0.037     2.490     2.468
    47   1 H        0.924     0.047     2.356     2.400
    48   1 H        0.924     0.045     2.385     2.415
    49   1 H        0.924     0.041     2.436     2.441
    50   1 H        0.924     0.044     2.401     2.423

Wiberg/Mayer (AO) data.
largest (>0.10) Wiberg bond orders for each atom

     #   Z sym  total        # sym  WBO       # sym  WBO       # sym  WBO
 ---------------------------------------------------------------------------
     1   8 O    2.032 --     2 C    1.718     9 N    0.176
     2   6 C    3.943 --     1 O    1.718     9 N    1.166     3 C    0.969
     3   6 C    3.988 --     4 C    1.408     8 C    1.399     2 C    0.969
                             6 C    0.109
     4   6 C    3.989 --     5 C    1.441     3 C    1.408    29 H    0.968
                             7 C    0.111
     5   6 C    3.991 --     6 C    1.441     4 C    1.441    30 H    0.970
                             8 C    0.111
     6   6 C    3.992 --     5 C    1.441     7 C    1.435    31 H    0.971
                             3 C    0.109
     7   6 C    3.992 --     8 C    1.447     6 C    1.435    32 H    0.970
                             4 C    0.111
     8   6 C    3.992 --     7 C    1.447     3 C    1.399    33 H    0.969
                             5 C    0.111
     9   7 N    3.412 --     2 C    1.166    10 C    0.998    24 C    0.961
                             1 O    0.176
    10   6 C    3.959 --     9 N    0.998    14 N    0.961    34 H    0.940
                            11 C    0.887
    11   6 C    3.931 --    13 O    1.773    12 O    1.213    10 C    0.887
    12   8 O    2.236 --    11 C    1.213    35 H    0.751    13 O    0.184
    13   8 O    2.079 --    11 C    1.773    12 O    0.184
    14   7 N    3.501 --    15 C    1.280    10 C    0.961    23 C    0.958
                            22 O    0.186
    15   6 C    3.942 --    22 O    1.585    14 N    1.280    16 C    0.976
    16   6 C    3.986 --    17 C    1.404    21 C    1.399    15 C    0.976
                            19 C    0.110
    17   6 C    3.990 --    18 C    1.444    16 C    1.404    36 H    0.969
                            20 C    0.111
    18   6 C    3.991 --    17 C    1.444    19 C    1.440    37 H    0.969
                            21 C    0.111
    19   6 C    3.991 --    18 C    1.440    20 C    1.437    38 H    0.971
                            16 C    0.110
    20   6 C    3.992 --    21 C    1.446    19 C    1.437    39 H    0.970
                            17 C    0.111
    21   6 C    3.991 --    20 C    1.446    16 C    1.399    40 H    0.969
                            18 C    0.111
    22   8 O    2.020 --    15 C    1.585    14 N    0.186
    23   6 C    3.961 --    28 C    0.992    24 C    0.977    14 N    0.958
                            41 H    0.954
    24   6 C    3.966 --    25 C    0.996    23 C    0.977     9 N    0.961
                            42 H    0.954
    25   6 C    3.988 --    26 C    0.999    24 C    0.996    44 H    0.976
                            43 H    0.975
    26   6 C    3.995 --    27 C    1.010    25 C    0.999    46 H    0.979
                            45 H    0.978
    27   6 C    3.994 --    26 C    1.010    28 C    0.998    47 H    0.978
                            48 H    0.978
    28   6 C    3.993 --    27 C    0.998    23 C    0.992    49 H    0.978
                            50 H    0.977
    29   1 H    0.997 --     4 C    0.968
    30   1 H    0.998 --     5 C    0.970
    31   1 H    0.998 --     6 C    0.971
    32   1 H    0.998 --     7 C    0.970
    33   1 H    0.999 --     8 C    0.969
    34   1 H    0.995 --    10 C    0.940
    35   1 H    0.865 --    12 O    0.751
    36   1 H    0.998 --    17 C    0.969
    37   1 H    0.997 --    18 C    0.969
    38   1 H    0.998 --    19 C    0.971
    39   1 H    0.997 --    20 C    0.970
    40   1 H    0.999 --    21 C    0.969
    41   1 H    0.997 --    23 C    0.954
    42   1 H    0.997 --    24 C    0.954
    43   1 H    0.994 --    25 C    0.975
    44   1 H    0.997 --    25 C    0.976
    45   1 H    0.997 --    26 C    0.978
    46   1 H    0.999 --    26 C    0.979
    47   1 H    0.998 --    27 C    0.978
    48   1 H    0.997 --    27 C    0.978
    49   1 H    0.998 --    28 C    0.978
    50   1 H    0.998 --    28 C    0.977
 ---------------------------------------------------------------------------

molecular dipole:
                 x           y           z       tot (Debye)
 q only:       -1.326      -1.269       1.836
   full:       -1.249      -1.302       2.308       7.445

           -------------------------------------------------
          | TOTAL ENERGY              -80.494206104799 Eh   |
          | GRADIENT NORM               0.000381487626 Eh/Î± |
          | HOMO-LUMO GAP               3.244663480842 eV   |
           -------------------------------------------------

 * finished run on 2022/03/17 at 01:44:38.283
