   * xtb version 6.3.3 (4ae9cef) compiled by 'conda@95abc7406d43' on 2020-10-14
          program call               : xtb acid_255.xyz --opt --chrg 0 --uhf 0 --gfn 2
          number of atoms            :                    74
          number of electrons        :                   214
          charge                     :                     0
          spin                       :                   0.0

   ID    Z sym.   atoms
    1    6 C      1, 3-16, 18, 20-27, 29, 30, 34-41
    2    8 O      2, 17, 28, 31, 32, 42
    3    7 N      19, 33
    4    1 H      43-74

          :  Hamiltonian                  GFN2-xTB          :
 * total energy  :  -119.3870394 Eh     change       -0.1534673E-08 Eh
 * total energy  :  -119.3994955 Eh     change       -0.1245606E-01 Eh
 * total energy  :  -119.4029171 Eh     change       -0.3421596E-02 Eh
 * total energy  :  -119.4044348 Eh     change       -0.1517681E-02 Eh
 * total energy  :  -119.4054344 Eh     change       -0.9996615E-03 Eh
 * total energy  :  -119.4060118 Eh     change       -0.5774008E-03 Eh
 * total energy  :  -119.4063911 Eh     change       -0.3792340E-03 Eh
 * total energy  :  -119.4066636 Eh     change       -0.2725336E-03 Eh
 * total energy  :  -119.4068762 Eh     change       -0.2126299E-03 Eh
 * total energy  :  -119.4070540 Eh     change       -0.1778197E-03 Eh
 * total energy  :  -119.4136906 Eh     change       -0.1657149E-04 Eh
 * total energy  :  -119.4137053 Eh     change       -0.1467499E-04 Eh
 * total energy  :  -119.4137176 Eh     change       -0.1235589E-04 Eh
 * total energy  :  -119.4137280 Eh     change       -0.1035897E-04 Eh
 * total energy  :  -119.4137369 Eh     change       -0.8893661E-05 Eh
 * total energy  :  -119.4137440 Eh     change       -0.7150916E-05 Eh
 * total energy  :  -119.4137501 Eh     change       -0.6093900E-05 Eh
 * total energy  :  -119.4137557 Eh     change       -0.5618276E-05 Eh
 * total energy  :  -119.4137605 Eh     change       -0.4709588E-05 Eh
   *** GEOMETRY OPTIMIZATION CONVERGED AFTER 89 ITERATIONS ***

 final structure:
================
74
 xtb: 6.3.3 (4ae9cef)
C        -2.18278595319561   -1.08276772388571   -2.16998994592358
O        -1.95724153149979   -2.25062981066576   -1.49932813307890
C        -2.42002536298412   -3.45469746968033   -2.06236393782040
C        -2.82295889158634   -0.98513676790435   -3.39645633304516
C        -3.00830105416382    0.25649797140460   -3.98346723772940
C        -2.56830326864837    1.40194661478579   -3.35227868156908
C        -1.93073296622574    1.30888773659488   -2.12538937209539
C        -1.72460048533922    0.07993181958860   -1.52916388294236
C        -1.03199349910971   -0.09900888913707   -0.19891240880315
C         0.40304154555296   -0.67231615255722   -0.37299785391837
C         0.63679146749235   -1.90413285711057    0.46456762340344
C         0.82942403956605   -3.13066705110260   -0.14456509864292
C         1.03018372969539   -4.27702124900417    0.60450187675457
C         1.05291800810200   -4.19283300852391    1.98289370882204
C         0.86760849204190   -2.97443563647712    2.61392173863513
C         0.65153298867080   -1.82480046805766    1.86566997580066
O         0.44175418752071   -0.58697496252882    2.40340781460210
C         0.46314380639020   -0.43025171021224    3.80247391045816
N         1.27574802089770    0.43781304834556    0.01100649815372
C         2.61163163140137    0.23597413797991    0.21399061976044
C         3.34510422876801    1.41948228605963    0.83446534237929
C         4.83346278317158    1.24306803757035    0.72889995114614
C         5.57541951133387    2.02210222214690   -0.14760732725608
C         6.94375746907685    1.84648301363360   -0.25583674776522
C         7.58168845985717    0.88278063954515    0.50548634038065
C         6.84579901894887    0.09563889133348    1.37489107587924
C         5.47927556669111    0.27582095019663    1.48720360466648
O         3.14521870746542   -0.79901956820418   -0.11366502454166
C         0.51381241426043    1.59769258916958    0.40027142279787
C         0.57993902565724    2.71924070343808   -0.67312890205523
O         1.23961989503047    2.39517141698997   -1.78639173145784
O         0.08419790161601    3.79326706260493   -0.50970276477345
N        -0.84261195664178    1.12028600856588    0.55624997237659
C        -1.52909835223636    1.48384835613351    1.67786192922941
C        -2.89974565858979    0.85686103137631    1.85366948332432
C        -3.78612015618982    1.08996729740130    0.66106082323674
C        -4.44767661716166    0.04313644725646    0.03487048489070
C        -5.26137981688533    0.28131821345078   -1.05892816154042
C        -5.42008237283620    1.56862417257695   -1.53918586204958
C        -4.76670371022607    2.61916417318227   -0.91704709314969
C        -3.95597354615190    2.38187363594125    0.17709778382663
O        -1.07645249712645    2.29164780384536    2.46016693055673
H        -3.50808557045598   -3.45115166493520   -2.18115858366905
H        -2.13424380960231   -4.23313358579589   -1.35640076796661
H        -1.94936553837877   -3.65436549945950   -3.02998014071481
H        -3.18483051451669   -1.86659489001334   -3.90139434422506
H        -3.50748381934402    0.31853501695021   -4.93861080101528
H        -2.72007475379267    2.36925043535436   -3.80364790039898
H        -1.61565563032125    2.20829495073429   -1.62278816076518
H        -1.61797837695174   -0.81372362960830    0.38428144456499
H         0.58518302610618   -0.93494667463082   -1.42225181355125
H         0.82757804635231   -3.18396832324492   -1.22223800659498
H         1.17998159337625   -5.22600779093864    0.11333795505019
H         1.21983314926983   -5.07643044678874    2.58071910453737
H         0.89632061600883   -2.92922718871198    3.69112243358947
H         1.44497119763449   -0.67622683688180    4.21881197429773
H        -0.30246986660068   -1.04353114047779    4.28774264273758
H         0.24212651987049    0.62218149734947    3.97787390506039
H         3.04373536615233    1.46513980145120    1.88573217190795
H         3.04144494895754    2.34975926490652    0.35127668816826
H         5.08130716497569    2.77439564034804   -0.74685293345174
H         7.51179245721665    2.46222712277480   -0.93780332044427
H         8.64944617248304    0.74432343263047    0.42003127311402
H         7.33864954056294   -0.66117508177084    1.96742343007674
H         4.90558175604669   -0.34316794933792    2.16098929168936
H         0.82132539417146    2.03595977443844    1.36194901811560
H         1.56509752747984    1.47835662559219   -1.75330436423734
H        -2.79087199583701   -0.21200790241125    2.05185313453045
H        -3.33903038500235    1.32170144124094    2.74059602594888
H        -4.32905071189978   -0.96653803988481    0.40391638270554
H        -5.77191699410701   -0.54142009078780   -1.53808426740549
H        -6.05205402917433    1.75298637740229   -2.39502462546001
H        -4.88741296977099    3.62648369221941   -1.28648969726434
H        -3.44213071331475    3.20018470623817    0.66014944017548

          :  Hamiltonian                  GFN2-xTB          :
         :: total energy            -119.413760453140 Eh    ::
         :: gradient norm              0.000268897812 Eh/a0 ::
         :: HOMO-LUMO gap              3.631821382111 eV    ::
         :: SCC energy              -121.163896923073 Eh    ::
         :: -> dispersion             -0.106878656850 Eh    ::
         :: repulsion energy           1.745667977846 Eh    ::

    * Orbital Energies and Occupations

         #    Occupation            Energy/Eh            Energy/eV
      -------------------------------------------------------------
         1        2.0000           -0.7609994             -20.7078
       ...           ...                  ...                  ...
        95        2.0000           -0.4200972             -11.4314
        96        2.0000           -0.4181409             -11.3782
        97        2.0000           -0.4167041             -11.3391
        98        2.0000           -0.4114519             -11.1962
        99        2.0000           -0.4097549             -11.1500
       100        2.0000           -0.4067703             -11.0688
       101        2.0000           -0.4060555             -11.0493
       102        2.0000           -0.3997140             -10.8768
       103        2.0000           -0.3986424             -10.8476
       104        2.0000           -0.3948570             -10.7446
       105        2.0000           -0.3921573             -10.6711
       106        2.0000           -0.3904001             -10.6233
       107        2.0000           -0.3855685             -10.4919 (HOMO)
       108                         -0.2521015              -6.8600 (LUMO)
       109                         -0.2399861              -6.5304
       110                         -0.2337500              -6.3607
       111                         -0.2290232              -6.2320
       112                         -0.2271734              -6.1817
       113                         -0.2242093              -6.1010
       114                         -0.2241126              -6.0984
       115                         -0.2203321              -5.9955
       116                         -0.2193732              -5.9694
       117                         -0.2179753              -5.9314
       118                         -0.2171088              -5.9078
       ...                                ...                  ...
       200                          0.6710035              18.2589
      -------------------------------------------------------------
                  HL-Gap            0.1334670 Eh            3.6318 eV

     #   Z          covCN         q      C6AA      Î±(0)
     1   6 C        2.870     0.134    25.062     8.206
     2   8 O        1.705    -0.279    18.631     5.828
     3   6 C        3.643     0.037    20.290     6.476
     4   6 C        2.917    -0.066    29.651     8.929
     5   6 C        2.921    -0.031    28.783     8.798
     6   6 C        2.918    -0.038    28.937     8.821
     7   6 C        2.922    -0.035    28.860     8.810
     8   6 C        2.971    -0.027    28.682     8.785
     9   6 C        3.824     0.040    19.890     6.346
    10   6 C        3.820     0.053    19.668     6.311
    11   6 C        2.971    -0.010    28.269     8.721
    12   6 C        2.925    -0.025    28.637     8.776
    13   6 C        2.918    -0.039    28.960     8.825
    14   6 C        2.921    -0.030    28.754     8.793
    15   6 C        2.917    -0.065    29.629     8.926
    16   6 C        2.865     0.141    24.928     8.184
    17   8 O        1.705    -0.284    18.724     5.842
    18   6 C        3.641     0.040    20.259     6.472
    19   7 N        2.756    -0.138    23.988     7.274
    20   6 C        2.756     0.273    22.385     7.748
    21   6 C        3.811    -0.089    22.190     6.705
    22   6 C        2.973     0.022    27.516     8.604
    23   6 C        2.925    -0.037    28.920     8.819
    24   6 C        2.920    -0.029    28.722     8.788
    25   6 C        2.920    -0.031    28.771     8.796
    26   6 C        2.920    -0.028    28.690     8.784
    27   6 C        2.925    -0.027    28.670     8.781
    28   8 O        0.859    -0.420    22.084     6.301
    29   6 C        3.769     0.072    19.417     6.280
    30   6 C        2.686     0.346    21.123     7.521
    31   8 O        1.659    -0.359    20.078     6.049
    32   8 O        0.856    -0.347    20.655     6.093
    33   7 N        2.756    -0.108    23.354     7.177
    34   6 C        2.762     0.281    22.235     7.722
    35   6 C        3.811    -0.089    22.180     6.704
    36   6 C        2.971     0.013    27.727     8.637
    37   6 C        2.924    -0.038    28.955     8.824
    38   6 C        2.920    -0.030    28.754     8.793
    39   6 C        2.920    -0.032    28.798     8.800
    40   6 C        2.920    -0.027    28.678     8.782
    41   6 C        2.925    -0.036    28.886     8.814
    42   8 O        0.859    -0.424    22.163     6.312
    43   1 H        0.924     0.043     2.405     2.425
    44   1 H        0.925     0.064     2.152     2.294
    45   1 H        0.924     0.043     2.407     2.426
    46   1 H        0.926     0.041     2.435     2.440
    47   1 H        0.926     0.042     2.427     2.436
    48   1 H        0.926     0.045     2.377     2.411
    49   1 H        0.926     0.048     2.345     2.395
    50   1 H        0.924     0.073     2.053     2.240
    51   1 H        0.924     0.050     2.314     2.379
    52   1 H        0.926     0.044     2.394     2.420
    53   1 H        0.926     0.039     2.457     2.451
    54   1 H        0.926     0.039     2.459     2.452
    55   1 H        0.926     0.040     2.452     2.449
    56   1 H        0.924     0.039     2.458     2.452
    57   1 H        0.924     0.038     2.479     2.462
    58   1 H        0.925     0.074     2.045     2.237
    59   1 H        0.924     0.064     2.154     2.295
    60   1 H        0.924     0.047     2.352     2.398
    61   1 H        0.925     0.030     2.588     2.516
    62   1 H        0.926     0.032     2.553     2.499
    63   1 H        0.926     0.031     2.566     2.505
    64   1 H        0.926     0.033     2.548     2.496
    65   1 H        0.926     0.035     2.515     2.480
    66   1 H        0.923     0.101     1.774     2.083
    67   1 H        0.804     0.332     0.632     1.248
    68   1 H        0.924     0.053     2.280     2.361
    69   1 H        0.924     0.076     2.026     2.226
    70   1 H        0.925     0.025     2.652     2.547
    71   1 H        0.926     0.028     2.613     2.528
    72   1 H        0.926     0.032     2.551     2.498
    73   1 H        0.926     0.038     2.469     2.457
    74   1 H        0.926     0.044     2.393     2.419

Wiberg/Mayer (AO) data.
largest (>0.10) Wiberg bond orders for each atom

     #   Z sym  total        # sym  WBO       # sym  WBO       # sym  WBO
 ---------------------------------------------------------------------------
     1   6 C    3.933 --     4 C    1.391     8 C    1.315     2 O    1.055
     2   8 O    2.225 --     1 C    1.055     3 C    0.982
     3   6 C    3.943 --     2 O    0.982    44 H    0.979    43 H    0.977
                            45 H    0.976
     4   6 C    3.987 --     5 C    1.426     1 C    1.391    46 H    0.965
                             7 C    0.102
     5   6 C    3.990 --     6 C    1.452     4 C    1.426    47 H    0.971
                             8 C    0.106
     6   6 C    3.991 --     5 C    1.452     7 C    1.415    48 H    0.970
     7   6 C    3.989 --     8 C    1.446     6 C    1.415    49 H    0.961
                             4 C    0.102
     8   6 C    3.982 --     7 C    1.446     1 C    1.315     9 C    0.989
                             5 C    0.106
     9   6 C    3.966 --     8 C    0.989    33 N    0.977    10 C    0.944
                            50 H    0.943
    10   6 C    3.965 --    11 C    0.993    51 H    0.958    19 N    0.953
                             9 C    0.944
    11   6 C    3.983 --    12 C    1.436    16 C    1.325    10 C    0.993
                            14 C    0.107
    12   6 C    3.988 --    11 C    1.436    13 C    1.425    52 H    0.967
                            15 C    0.102
    13   6 C    3.991 --    14 C    1.445    12 C    1.425    53 H    0.971
    14   6 C    3.990 --    13 C    1.445    15 C    1.433    54 H    0.971
                            11 C    0.107
    15   6 C    3.988 --    14 C    1.433    16 C    1.384    55 H    0.965
                            12 C    0.102
    16   6 C    3.934 --    15 C    1.384    11 C    1.325    17 O    1.055
    17   8 O    2.220 --    16 C    1.055    18 C    0.981
    18   6 C    3.942 --    17 O    0.981    56 H    0.977    57 H    0.977
                            58 H    0.976
    19   7 N    3.454 --    20 C    1.188    29 C    0.987    10 C    0.953
                            28 O    0.181
    20   6 C    3.946 --    28 O    1.712    19 N    1.188    21 C    0.953
    21   6 C    3.995 --    22 C    1.009    60 H    0.961    20 C    0.953
                            59 H    0.943
    22   6 C    3.987 --    23 C    1.418    27 C    1.411    21 C    1.009
                            25 C    0.109
    23   6 C    3.991 --    24 C    1.442    22 C    1.418    61 H    0.969
                            26 C    0.111
    24   6 C    3.992 --    23 C    1.442    25 C    1.441    62 H    0.971
                            27 C    0.112
    25   6 C    3.992 --    24 C    1.441    26 C    1.437    63 H    0.971
                            22 C    0.109
    26   6 C    3.993 --    27 C    1.447    25 C    1.437    64 H    0.971
                            23 C    0.111
    27   6 C    3.991 --    26 C    1.447    22 C    1.411    65 H    0.970
                            24 C    0.112
    28   8 O    2.028 --    20 C    1.712    19 N    0.181
    29   6 C    3.959 --    19 N    0.987    33 N    0.981    66 H    0.926
                            30 C    0.902
    30   6 C    3.923 --    32 O    1.803    31 O    1.148    29 C    0.902
    31   8 O    2.225 --    30 C    1.148    67 H    0.846    32 O    0.172
    32   8 O    2.092 --    30 C    1.803    31 O    0.172
    33   7 N    3.454 --    34 C    1.196    29 C    0.981     9 C    0.977
                            42 O    0.176
    34   6 C    3.942 --    42 O    1.702    33 N    1.196    35 C    0.961
    35   6 C    3.994 --    36 C    1.000    34 C    0.961    69 H    0.958
                            68 H    0.952
    36   6 C    3.987 --    37 C    1.416    41 C    1.407    35 C    1.000
                            39 C    0.109
    37   6 C    3.992 --    38 C    1.439    36 C    1.416    70 H    0.969
                            40 C    0.110
    38   6 C    3.992 --    39 C    1.443    37 C    1.439    71 H    0.971
                            41 C    0.112
    39   6 C    3.991 --    38 C    1.443    40 C    1.434    72 H    0.971
                            36 C    0.109
    40   6 C    3.992 --    41 C    1.450    39 C    1.434    73 H    0.971
                            37 C    0.110
    41   6 C    3.991 --    40 C    1.450    36 C    1.407    74 H    0.969
                            38 C    0.112
    42   8 O    2.021 --    34 C    1.702    33 N    0.176
    43   1 H    0.998 --     3 C    0.977
    44   1 H    0.995 --     3 C    0.979
    45   1 H    0.998 --     3 C    0.976
    46   1 H    0.998 --     4 C    0.965
    47   1 H    0.998 --     5 C    0.971
    48   1 H    0.997 --     6 C    0.970
    49   1 H    0.997 --     7 C    0.961
    50   1 H    0.994 --     9 C    0.943
    51   1 H    0.997 --    10 C    0.958
    52   1 H    0.997 --    12 C    0.967
    53   1 H    0.998 --    13 C    0.971
    54   1 H    0.998 --    14 C    0.971
    55   1 H    0.998 --    15 C    0.965
    56   1 H    0.998 --    18 C    0.977
    57   1 H    0.999 --    18 C    0.977
    58   1 H    0.994 --    18 C    0.976
    59   1 H    0.996 --    21 C    0.943
    60   1 H    0.997 --    21 C    0.961
    61   1 H    0.999 --    23 C    0.969
    62   1 H    0.999 --    24 C    0.971
    63   1 H    0.999 --    25 C    0.971
    64   1 H    0.999 --    26 C    0.971
    65   1 H    0.999 --    27 C    0.970
    66   1 H    0.989 --    29 C    0.926
    67   1 H    0.890 --    31 O    0.846
    68   1 H    0.997 --    35 C    0.952
    69   1 H    0.994 --    35 C    0.958
    70   1 H    0.999 --    37 C    0.969
    71   1 H    0.999 --    38 C    0.971
    72   1 H    0.998 --    39 C    0.971
    73   1 H    0.998 --    40 C    0.971
    74   1 H    0.998 --    41 C    0.969
 ---------------------------------------------------------------------------

molecular dipole:
                 x           y           z       tot (Debye)
 q only:       -0.994      -1.940      -0.366
   full:       -1.080      -2.402      -0.194       6.712

           -------------------------------------------------
          | TOTAL ENERGY             -119.413760453140 Eh   |
          | GRADIENT NORM               0.000268897812 Eh/Î± |
          | HOMO-LUMO GAP               3.631821382111 eV   |
           -------------------------------------------------

 * finished run on 2022/03/16 at 23:04:02.961
