   * xtb version 6.3.3 (4ae9cef) compiled by 'conda@95abc7406d43' on 2020-10-14
          program call               : xtb acid_168.xyz --opt --chrg 0 --uhf 0 --gfn 2
          number of atoms            :                    72
          number of electrons        :                   226
          charge                     :                     0
          spin                       :                   0.0

   ID    Z sym.   atoms
    1    6 C      1-22, 24-26, 28-31, 33, 34, 38-44
    2    7 N      23, 37
    3    9 F      27, 45
    4    8 O      32, 35, 36, 46
    5    1 H      47-72

          :  Hamiltonian                  GFN2-xTB          :
 * total energy  :  -126.2230197 Eh     change       -0.4773511E-08 Eh
 * total energy  :  -126.2400807 Eh     change       -0.1706104E-01 Eh
 * total energy  :  -126.2441862 Eh     change       -0.4105457E-02 Eh
 * total energy  :  -126.2451966 Eh     change       -0.1010467E-02 Eh
 * total energy  :  -126.2457674 Eh     change       -0.5707567E-03 Eh
 * total energy  :  -126.2459581 Eh     change       -0.1907321E-03 Eh
 * total energy  :  -126.2461111 Eh     change       -0.1529647E-03 Eh
 * total energy  :  -126.2462788 Eh     change       -0.1677386E-03 Eh
 * total energy  :  -126.2464369 Eh     change       -0.1580893E-03 Eh
 * total energy  :  -126.2465818 Eh     change       -0.1448508E-03 Eh
 * total energy  :  -126.2480841 Eh     change       -0.1314290E-04 Eh
 * total energy  :  -126.2480925 Eh     change       -0.8425939E-05 Eh
 * total energy  :  -126.2481033 Eh     change       -0.1074441E-04 Eh
 * total energy  :  -126.2481217 Eh     change       -0.1843788E-04 Eh
 * total energy  :  -126.2481424 Eh     change       -0.2065260E-04 Eh
 * total energy  :  -126.2481569 Eh     change       -0.1456918E-04 Eh
 * total energy  :  -126.2481672 Eh     change       -0.1026793E-04 Eh
 * total energy  :  -126.2481772 Eh     change       -0.1002179E-04 Eh
 * total energy  :  -126.2481805 Eh     change       -0.3235830E-05 Eh
   *** GEOMETRY OPTIMIZATION CONVERGED AFTER 44 ITERATIONS ***

 final structure:
================
72
 xtb: 6.3.3 (4ae9cef)
C        -1.49173707298392    1.09776893950456    2.03269386391713
C        -1.88512686536886    1.80992464438622    3.12839187448370
C        -1.52785570783564    3.16631905966147    3.27919499209840
C        -1.91119291814522    3.92505639931412    4.40426933459808
C        -1.54023159262965    5.23526594131994    4.52250423358999
C        -0.76967234194755    5.84715061661995    3.52117623187680
C        -0.38416550276607    5.13941083393272    2.41747345314482
C        -0.75144440230178    3.78610941291104    2.26564864158726
C        -0.37265123403033    3.03073855361001    1.13802588738162
C        -0.73492774027474    1.71643182128647    1.01834890789542
C        -0.27520509104070    0.90610516173823   -0.16356489242193
C         0.87815689655313   -0.03787235502011    0.22047584513079
C         2.20116822103203    0.47664638361351   -0.28024648367255
C         2.98637128964347    1.24230371532958    0.53983354320837
C         4.20296850204163    1.78441058387874    0.08128638573573
C         5.02575073050495    2.57965728469812    0.90633128732577
C         6.20358076782945    3.08704036605559    0.43460013333243
C         6.61327590731683    2.82333272161254   -0.88222726043230
C         5.83728370383687    2.05767887668296   -1.70652861822703
C         4.61570124183389    1.52032067819535   -1.25081234700892
C         3.78696253886929    0.72949207617096   -2.07338330467543
C         2.60683355219563    0.22771091149056   -1.60481038143730
N         0.51125784694194   -1.31871270960037   -0.36951533189390
C         1.26658508370182   -2.40947320208497   -0.06777220476336
C         0.76518076844479   -3.72420378114853   -0.58247833240840
C         0.57346372818601   -3.99213817730612   -1.93114354599121
F         0.76468871176859   -3.00343213266564   -2.84274085720658
C         0.17133730504186   -5.23238183269757   -2.38843212968497
C        -0.04571476703024   -6.24370704985213   -1.46878868755764
C         0.15185053287053   -6.00858996844375   -0.11800269516456
C         0.56748800941171   -4.76475043073316    0.31984411088989
O         2.28765050557997   -2.32462668113181    0.57590473773975
C        -0.83512427389088   -1.33195228870570   -0.88850573079408
C        -1.68567848087982   -2.37387622603434   -0.11090823549792
O        -2.29059516728925   -3.31466513155008   -0.84841678271872
O        -1.77153394189652   -2.35435040226011    1.07847290456130
N        -1.31082905522836    0.01101490898905   -0.66220262573897
C        -2.54142488896197    0.48714462225965   -0.98286502770424
C        -3.51386789942101   -0.57337863916053   -1.41799605111530
C        -3.54480922668993   -1.04498799523022   -2.72530122081079
C        -4.47676467642544   -1.99604178184554   -3.10623326599748
C        -5.39147711080081   -2.48265443292517   -2.18578613773966
C        -5.38609732495367   -2.01548921452782   -0.88388198708459
C        -4.45304956400573   -1.06227659709999   -0.51686029799552
F        -4.44163686233805   -0.61542827916931    0.74724279026699
O        -2.82891898746060    1.65856359236009   -0.92062134763252
H        -1.76684132107871    0.05767616899821    1.93401091494266
H        -2.47706934549356    1.33801846537995    3.89885068257776
H        -2.50459599352721    3.44961765936157    5.17228640407910
H        -1.83710772292911    5.81065853988081    5.38734432251235
H        -0.48530799238792    6.88357148228394    3.63154162464568
H         0.20761862575669    5.60584050309783    1.64263866145050
H         0.21165895985797    3.50771622761714    0.36349020850176
H         0.03455496271515    1.58013023641548   -0.97454291779967
H         0.92674523828581   -0.15565318231384    1.31115803302237
H         2.67709077761676    1.44005312559841    1.55638276457374
H         4.70565653051025    2.77803770138951    1.91914743882943
H         6.82982638495823    3.69459032240251    1.07146012673730
H         7.54826447082536    3.23163338996556   -1.23723975650638
H         6.14865892768620    1.85196753135335   -2.72089864287664
H         4.10188340912692    0.52701574846647   -3.08711427933472
H         1.98199010716668   -0.37769052250618   -2.24533777855928
H         0.04186213314547   -5.39180720357048   -3.44752869536729
H        -0.36320456498898   -7.21601247388233   -1.81179198278267
H        -0.01227438179089   -6.79936201372441    0.59672632759717
H         0.73622977895537   -4.57414286178191    1.36796613974035
H        -0.84144265503091   -1.56175383685559   -1.97113204927464
H        -2.17716884485070   -3.20130757734073   -1.80311787362000
H        -2.84304404309441   -0.64967944661221   -3.44588582069572
H        -4.49326043751536   -2.35187224882753   -4.12506155617903
H        -6.11631378021226   -3.22376121026916   -2.48437915412728
H        -6.09022737071159   -2.37409132096521   -0.15066551748733

          :  Hamiltonian                  GFN2-xTB          :
         :: total energy            -126.248180468895 Eh    ::
         :: gradient norm              0.000314822174 Eh/a0 ::
         :: HOMO-LUMO gap              2.506028161512 eV    ::
         :: SCC energy              -128.175307515980 Eh    ::
         :: -> dispersion             -0.104971147678 Eh    ::
         :: repulsion energy           1.925216248419 Eh    ::

    * Orbital Energies and Occupations

         #    Occupation            Energy/Eh            Energy/eV
      -------------------------------------------------------------
         1        2.0000           -0.8448151             -22.9886
       ...           ...                  ...                  ...
       101        2.0000           -0.4237936             -11.5320
       102        2.0000           -0.4216568             -11.4739
       103        2.0000           -0.4192154             -11.4074
       104        2.0000           -0.4164010             -11.3308
       105        2.0000           -0.4150578             -11.2943
       106        2.0000           -0.4120857             -11.2134
       107        2.0000           -0.4104336             -11.1685
       108        2.0000           -0.4089974             -11.1294
       109        2.0000           -0.4067759             -11.0689
       110        2.0000           -0.3986404             -10.8476
       111        2.0000           -0.3927556             -10.6874
       112        2.0000           -0.3798436             -10.3361
       113        2.0000           -0.3739695             -10.1762 (HOMO)
       114                         -0.2818746              -7.6702 (LUMO)
       115                         -0.2702219              -7.3531
       116                         -0.2618091              -7.1242
       117                         -0.2597803              -7.0690
       118                         -0.2577936              -7.0149
       119                         -0.2562441              -6.9728
       120                         -0.2552480              -6.9457
       121                         -0.2316002              -6.3022
       122                         -0.2298651              -6.2549
       123                         -0.2238760              -6.0920
       124                         -0.2189906              -5.9590
       ...                                ...                  ...
       210                          0.7014351              19.0870
      -------------------------------------------------------------
                  HL-Gap            0.0920948 Eh            2.5060 eV

     #   Z          covCN         q      C6AA      Î±(0)
     1   6 C        2.918    -0.032    28.797     8.800
     2   6 C        2.918    -0.030    28.761     8.794
     3   6 C        2.987     0.015    27.675     8.629
     4   6 C        2.918    -0.033    28.832     8.805
     5   6 C        2.916    -0.030    28.743     8.791
     6   6 C        2.916    -0.029    28.737     8.791
     7   6 C        2.918    -0.034    28.843     8.807
     8   6 C        2.987     0.017    27.631     8.623
     9   6 C        2.922    -0.037    28.925     8.820
    10   6 C        2.971     0.009    27.823     8.652
    11   6 C        3.823     0.049    19.743     6.323
    12   6 C        3.828     0.047    19.769     6.326
    13   6 C        2.970     0.009    27.817     8.651
    14   6 C        2.924    -0.037    28.932     8.821
    15   6 C        2.987     0.017    27.618     8.621
    16   6 C        2.918    -0.033    28.828     8.805
    17   6 C        2.916    -0.029    28.714     8.787
    18   6 C        2.916    -0.029    28.728     8.789
    19   6 C        2.918    -0.034    28.842     8.807
    20   6 C        2.987     0.014    27.693     8.632
    21   6 C        2.918    -0.033    28.823     8.804
    22   6 C        2.918    -0.032    28.803     8.801
    23   7 N        2.762    -0.109    23.378     7.181
    24   6 C        2.766     0.279    22.271     7.729
    25   6 C        2.970    -0.037    28.909     8.819
    26   6 C        2.789     0.158    24.564     8.118
    27   9 F        0.786    -0.239    11.646     4.031
    28   6 C        2.916    -0.050    29.244     8.868
    29   6 C        2.924    -0.024    28.601     8.770
    30   6 C        2.918    -0.026    28.655     8.778
    31   6 C        2.929    -0.015    28.394     8.739
    32   8 O        0.859    -0.402    21.728     6.250
    33   6 C        3.745     0.085    19.234     6.256
    34   6 C        2.686     0.345    21.145     7.525
    35   8 O        1.659    -0.368    20.233     6.072
    36   8 O        0.856    -0.332    20.371     6.051
    37   7 N        2.764    -0.114    23.484     7.197
    38   6 C        2.761     0.281    22.243     7.724
    39   6 C        2.973    -0.041    29.015     8.836
    40   6 C        2.924    -0.038    28.945     8.823
    41   6 C        2.918    -0.038    28.956     8.824
    42   6 C        2.923    -0.026    28.640     8.776
    43   6 C        2.917    -0.042    29.043     8.837
    44   6 C        2.788     0.178    24.168     8.053
    45   9 F        0.787    -0.205    11.286     3.968
    46   8 O        0.859    -0.397    21.614     6.233
    47   1 H        0.926     0.049     2.334     2.389
    48   1 H        0.926     0.042     2.423     2.434
    49   1 H        0.926     0.034     2.531     2.488
    50   1 H        0.926     0.031     2.574     2.509
    51   1 H        0.926     0.031     2.576     2.510
    52   1 H        0.926     0.032     2.552     2.498
    53   1 H        0.926     0.033     2.544     2.494
    54   1 H        0.923     0.054     2.269     2.356
    55   1 H        0.923     0.065     2.139     2.287
    56   1 H        0.926     0.037     2.491     2.468
    57   1 H        0.926     0.035     2.513     2.479
    58   1 H        0.926     0.033     2.546     2.495
    59   1 H        0.926     0.032     2.556     2.500
    60   1 H        0.926     0.033     2.542     2.493
    61   1 H        0.926     0.037     2.482     2.464
    62   1 H        0.926     0.034     2.530     2.487
    63   1 H        0.926     0.063     2.167     2.302
    64   1 H        0.926     0.056     2.245     2.343
    65   1 H        0.926     0.060     2.202     2.320
    66   1 H        0.926     0.070     2.088     2.260
    67   1 H        0.922     0.044     2.402     2.424
    68   1 H        0.805     0.327     0.645     1.262
    69   1 H        0.926     0.045     2.388     2.417
    70   1 H        0.926     0.050     2.321     2.382
    71   1 H        0.926     0.056     2.252     2.346
    72   1 H        0.926     0.072     2.064     2.247

Wiberg/Mayer (AO) data.
largest (>0.10) Wiberg bond orders for each atom

     #   Z sym  total        # sym  WBO       # sym  WBO       # sym  WBO
 ---------------------------------------------------------------------------
     1   6 C    3.990 --     2 C    1.564    10 C    1.294    47 H    0.965
     2   6 C    3.991 --     1 C    1.564     3 C    1.276    48 H    0.968
                             9 C    0.114
     3   6 C    3.990 --     4 C    1.282     2 C    1.276     8 C    1.251
     4   6 C    3.992 --     5 C    1.556     3 C    1.282    49 H    0.968
                             7 C    0.118
     5   6 C    3.990 --     4 C    1.556     6 C    1.321    50 H    0.971
     6   6 C    3.992 --     7 C    1.557     5 C    1.321    51 H    0.971
     7   6 C    3.990 --     6 C    1.557     8 C    1.279    52 H    0.968
                             4 C    0.118
     8   6 C    3.990 --     9 C    1.281     7 C    1.279     3 C    1.251
     9   6 C    3.989 --    10 C    1.527     8 C    1.281    53 H    0.966
                             2 C    0.114
    10   6 C    3.983 --     9 C    1.527     1 C    1.294    11 C    0.988
    11   6 C    3.955 --    10 C    0.988    12 C    0.954    54 H    0.953
                            37 N    0.950
    12   6 C    3.955 --    13 C    0.988    11 C    0.954    23 N    0.953
                            55 H    0.951
    13   6 C    3.984 --    14 C    1.523    22 C    1.297    12 C    0.988
    14   6 C    3.989 --    13 C    1.523    15 C    1.284    56 H    0.966
                            21 C    0.115
    15   6 C    3.990 --    14 C    1.284    16 C    1.278    20 C    1.250
    16   6 C    3.990 --    17 C    1.559    15 C    1.278    57 H    0.968
                            19 C    0.118
    17   6 C    3.992 --    16 C    1.559    18 C    1.320    58 H    0.971
    18   6 C    3.990 --    19 C    1.557    17 C    1.320    59 H    0.971
    19   6 C    3.992 --    18 C    1.557    20 C    1.281    60 H    0.968
                            16 C    0.118
    20   6 C    3.990 --    19 C    1.281    21 C    1.278    15 C    1.250
    21   6 C    3.992 --    22 C    1.561    20 C    1.278    61 H    0.968
                            14 C    0.115
    22   6 C    3.991 --    21 C    1.561    13 C    1.297    62 H    0.968
    23   7 N    3.459 --    24 C    1.201    33 C    0.988    12 C    0.953
                            32 O    0.191
    24   6 C    3.952 --    32 O    1.705    23 N    1.201    25 C    0.963
    25   6 C    3.986 --    31 C    1.397    26 C    1.367    24 C    0.963
                            29 C    0.108
    26   6 C    3.881 --    28 C    1.405    25 C    1.367    27 F    0.943
    27   9 F    1.074 --    26 C    0.943
    28   6 C    3.988 --    29 C    1.436    26 C    1.405    63 H    0.966
                            31 C    0.110
    29   6 C    3.990 --    28 C    1.436    30 C    1.436    64 H    0.969
                            25 C    0.108
    30   6 C    3.990 --    31 C    1.447    29 C    1.436    65 H    0.968
    31   6 C    3.986 --    30 C    1.447    25 C    1.397    66 H    0.966
                            28 C    0.110
    32   8 O    2.041 --    24 C    1.705    23 N    0.191
    33   6 C    3.973 --    23 N    0.988    37 N    0.987    67 H    0.941
                            34 C    0.900
    34   6 C    3.921 --    36 O    1.817    35 O    1.128    33 C    0.900
    35   8 O    2.210 --    34 C    1.128    68 H    0.861    36 O    0.168
    36   8 O    2.108 --    34 C    1.817    35 O    0.168
    37   7 N    3.463 --    38 C    1.208    33 C    0.987    11 C    0.950
                            46 O    0.197
    38   6 C    3.951 --    46 O    1.715    37 N    1.208    39 C    0.947
    39   6 C    3.985 --    40 C    1.406    44 C    1.361    38 C    0.947
                            42 C    0.109
    40   6 C    3.989 --    41 C    1.441    39 C    1.406    69 H    0.969
                            43 C    0.110
    41   6 C    3.991 --    40 C    1.441    42 C    1.433    70 H    0.969
    42   6 C    3.990 --    43 C    1.444    41 C    1.433    71 H    0.969
                            39 C    0.109
    43   6 C    3.988 --    42 C    1.444    44 C    1.394    72 H    0.964
                            40 C    0.110
    44   6 C    3.893 --    43 C    1.394    39 C    1.361    45 F    0.977
    45   9 F    1.118 --    44 C    0.977
    46   8 O    2.050 --    38 C    1.715    37 N    0.197
    47   1 H    0.997 --     1 C    0.965
    48   1 H    0.997 --     2 C    0.968
    49   1 H    0.998 --     4 C    0.968
    50   1 H    0.999 --     5 C    0.971
    51   1 H    0.999 --     6 C    0.971
    52   1 H    0.998 --     7 C    0.968
    53   1 H    0.998 --     9 C    0.966
    54   1 H    0.996 --    11 C    0.953
    55   1 H    0.995 --    12 C    0.951
    56   1 H    0.998 --    14 C    0.966
    57   1 H    0.998 --    16 C    0.968
    58   1 H    0.998 --    17 C    0.971
    59   1 H    0.999 --    18 C    0.971
    60   1 H    0.998 --    19 C    0.968
    61   1 H    0.998 --    21 C    0.968
    62   1 H    0.998 --    22 C    0.968
    63   1 H    0.995 --    28 C    0.966
    64   1 H    0.996 --    29 C    0.969
    65   1 H    0.996 --    30 C    0.968
    66   1 H    0.995 --    31 C    0.966
    67   1 H    0.998 --    33 C    0.941
    68   1 H    0.893 --    35 O    0.861
    69   1 H    0.998 --    40 C    0.969
    70   1 H    0.997 --    41 C    0.969
    71   1 H    0.996 --    42 C    0.969
    72   1 H    0.994 --    43 C    0.964
 ---------------------------------------------------------------------------

molecular dipole:
                 x           y           z       tot (Debye)
 q only:       -0.194      -1.267      -1.328
   full:       -0.360      -1.564      -1.892       6.306

           -------------------------------------------------
          | TOTAL ENERGY             -126.248180468895 Eh   |
          | GRADIENT NORM               0.000314822174 Eh/Î± |
          | HOMO-LUMO GAP               2.506028161512 eV   |
           -------------------------------------------------

 * finished run on 2022/03/16 at 22:01:20.298
