   * xtb version 6.3.3 (4ae9cef) compiled by 'conda@95abc7406d43' on 2020-10-14
          program call               : xtb acid_227.xyz --opt --chrg 0 --uhf 0 --gfn 2
          number of atoms            :                    72
          number of electrons        :                   226
          charge                     :                     0
          spin                       :                   0.0

   ID    Z sym.   atoms
    1    6 C      1-22, 24-28, 30, 31, 33, 34, 38-42, 44, 45
    2    7 N      23, 37
    3   35 Br     29, 43
    4    8 O      32, 35, 36, 46
    5    1 H      47-72

          :  Hamiltonian                  GFN2-xTB          :
 * total energy  :  -124.9345095 Eh     change       -0.2148852E-08 Eh
 * total energy  :  -124.9505558 Eh     change       -0.1604633E-01 Eh
 * total energy  :  -124.9549998 Eh     change       -0.4443909E-02 Eh
 * total energy  :  -124.9560503 Eh     change       -0.1050521E-02 Eh
 * total energy  :  -124.9566466 Eh     change       -0.5963446E-03 Eh
 * total energy  :  -124.9568233 Eh     change       -0.1766530E-03 Eh
 * total energy  :  -124.9569464 Eh     change       -0.1231159E-03 Eh
 * total energy  :  -124.9570635 Eh     change       -0.1171357E-03 Eh
 * total energy  :  -124.9572032 Eh     change       -0.1396538E-03 Eh
 * total energy  :  -124.9573746 Eh     change       -0.1714203E-03 Eh
 * total energy  :  -124.9640871 Eh     change       -0.3016201E-04 Eh
 * total energy  :  -124.9641267 Eh     change       -0.3963781E-04 Eh
 * total energy  :  -124.9641485 Eh     change       -0.2181575E-04 Eh
 * total energy  :  -124.9641731 Eh     change       -0.2452092E-04 Eh
 * total energy  :  -124.9641875 Eh     change       -0.1438889E-04 Eh
 * total energy  :  -124.9642010 Eh     change       -0.1354163E-04 Eh
 * total energy  :  -124.9642187 Eh     change       -0.1767339E-04 Eh
 * total energy  :  -124.9642315 Eh     change       -0.1280600E-04 Eh
 * total energy  :  -124.9642364 Eh     change       -0.4906918E-05 Eh
   *** GEOMETRY OPTIMIZATION CONVERGED AFTER 110 ITERATIONS ***

 final structure:
================
72
 xtb: 6.3.3 (4ae9cef)
C         2.30577489808618   -0.11001751524085    1.41923405201994
C         3.41336612928470   -0.17474313322411    2.21404991644398
C         4.37669798061668   -1.18791561155836    2.03233400316373
C         5.53292863624241   -1.28091165902015    2.83378933699110
C         6.44849338932551   -2.27348416138661    2.62304863792331
C         6.24994524711607   -3.21675899278353    1.60223903759531
C         5.13825089640433   -3.15419197840651    0.81004509248927
C         4.17402382349276   -2.14273038010668    1.00229308758686
C         3.01949795069570   -2.04887784080994    0.20047554788943
C         2.09689471770258   -1.05622649665922    0.39721469304461
C         0.85310370452369   -0.99374834879074   -0.45566158395921
C        -0.38492868766337   -1.48074916132616    0.32131577167003
C        -1.48547792514724   -2.11911669970063   -0.49152154707025
C        -1.55161483276982   -2.07899273411013   -1.85872155766433
C        -2.65747829020634   -2.61972694347678   -2.54914985929094
C        -2.74596020408602   -2.57720466011987   -3.95625534306942
C        -3.83017084857452   -3.10190088338641   -4.60265353382294
C        -4.87359219385445   -3.69189987401949   -3.87236664688466
C        -4.81771679716610   -3.74463062118967   -2.50732419869735
C        -3.71448934891084   -3.21065207798508   -1.81113368029235
C        -3.62260511829941   -3.23820817005629   -0.40332240342645
C        -2.54199475982061   -2.70710740782457    0.23661307490013
N        -0.90097569606766   -0.23325300411716    0.88518205552866
C        -1.02606272883102   -0.05702568471367    2.23131440345969
C        -1.29230885654944    1.34373431653061    2.67386680573231
C        -2.33797291516193    2.10031032907358    2.15262979720415
C        -2.54340399673771    3.39512681377149    2.59432338973065
C        -1.69937559551588    3.92596727420351    3.55619645366412
Br       -1.95995909466317    5.72000039239841    4.13924511926155
C        -0.66939704291672    3.17729465503152    4.10282428148668
C        -0.47590825315235    1.88080145396318    3.66471196470406
O        -0.91593615830669   -0.98081214859434    3.00749984111202
C        -0.72365828016164    0.77322471416463   -0.12219772553799
C        -1.93620189093877    0.78127279443404   -1.08141667387910
O        -1.58146255694032    0.92320043784513   -2.35219453620490
O        -3.07216485390457    0.72374797493599   -0.70308189421256
N         0.50431019835295    0.38796884798531   -0.77884379359384
C         1.30493746327949    1.16496369555088   -1.55094291055745
C         0.91476607676629    2.61205269716496   -1.58988839911496
C         0.46966814007021    3.18734316494885   -2.77228747143971
C         0.12484032531426    4.52639502567374   -2.81090560956148
C         0.24296950784178    5.28866515276959   -1.66068416222078
Br       -0.24693176719309    7.12710828614358   -1.70221629340045
C         0.71570163871624    4.73964496116131   -0.47993165214877
C         1.05247019493677    3.39893829205173   -0.45026583101154
O         2.26329242695681    0.71953414886459   -2.14171945616630
H         1.58145746706264    0.67773111410772    1.57245756952644
H         3.56855974974365    0.55549738601149    2.99565336786002
H         5.68205995715399   -0.55198093488513    3.61764374067137
H         7.33274489001052   -2.33951075660711    3.23974247473082
H         6.98552929332075   -3.99266359364967    1.44901476542880
H         4.98133727333206   -3.87723409466768    0.02259762033208
H         2.87313931954020   -2.77737207913665   -0.58436824622150
H         1.02424317687623   -1.56582836620035   -1.37079142520881
H        -0.10759858955553   -2.13428998022358    1.15453959514317
H        -0.76645876995976   -1.63067197567668   -2.45051084890863
H        -1.93777669053525   -2.12482488490319   -4.51446412560445
H        -3.89129226239335   -3.06750481931893   -5.68051716289230
H        -5.72112774176662   -4.10385581866974   -4.39985144098710
H        -5.61899586831436   -4.19664100866594   -1.94073242033949
H        -4.42762009060103   -3.68494009711850    0.16150977243853
H        -2.47912954407323   -2.71974490754285    1.31445847736667
H        -2.99882127730476    1.67278838470366    1.41393548730664
H        -3.35288821177746    3.98611780234405    2.19495519956021
H        -0.03319362096580    3.60212313647317    4.86402322810034
H         0.31227627281060    1.27477377211852    4.08580093143274
H        -0.66917850803901    1.78010156863361    0.31372542512320
H        -2.36270253600836    0.92058679531736   -2.93059425681325
H         0.39225030750807    2.58096917918127   -3.66087855149766
H        -0.22781561127357    4.97692196293902   -3.72572373251404
H         0.82101767868568    5.35286803907125    0.40184239174495
H         1.44579828429280    2.97017893628295    0.46076956381340

          :  Hamiltonian                  GFN2-xTB          :
         :: total energy            -124.964236384300 Eh    ::
         :: gradient norm              0.000629486948 Eh/a0 ::
         :: HOMO-LUMO gap              2.917775465248 eV    ::
         :: SCC energy              -126.883670933667 Eh    ::
         :: -> dispersion             -0.109675432816 Eh    ::
         :: repulsion energy           1.916466539517 Eh    ::

    * Orbital Energies and Occupations

         #    Occupation            Energy/Eh            Energy/eV
      -------------------------------------------------------------
         1        2.0000           -0.8464726             -23.0337
       ...           ...                  ...                  ...
       101        2.0000           -0.4252126             -11.5706
       102        2.0000           -0.4239353             -11.5359
       103        2.0000           -0.4211517             -11.4601
       104        2.0000           -0.4206910             -11.4476
       105        2.0000           -0.4188007             -11.3961
       106        2.0000           -0.4157019             -11.3118
       107        2.0000           -0.4141142             -11.2686
       108        2.0000           -0.4118832             -11.2079
       109        2.0000           -0.4101826             -11.1616
       110        2.0000           -0.4084449             -11.1144
       111        2.0000           -0.4059040             -11.0452
       112        2.0000           -0.3938674             -10.7177
       113        2.0000           -0.3872752             -10.5383 (HOMO)
       114                         -0.2800489              -7.6205 (LUMO)
       115                         -0.2772466              -7.5443
       116                         -0.2735772              -7.4444
       117                         -0.2720868              -7.4039
       118                         -0.2688096              -7.3147
       119                         -0.2635900              -7.1726
       120                         -0.2618112              -7.1242
       121                         -0.2440495              -6.6409
       122                         -0.2389898              -6.5032
       123                         -0.2268704              -6.1735
       124                         -0.2229978              -6.0681
       ...                                ...                  ...
       220                          0.6893549              18.7583
      -------------------------------------------------------------
                  HL-Gap            0.1072263 Eh            2.9178 eV

     #   Z          covCN         q      C6AA      Î±(0)
     1   6 C        2.919    -0.030    28.739     8.791
     2   6 C        2.917    -0.032    28.806     8.801
     3   6 C        2.988     0.015    27.667     8.628
     4   6 C        2.918    -0.033    28.820     8.803
     5   6 C        2.916    -0.028    28.695     8.784
     6   6 C        2.916    -0.027    28.686     8.783
     7   6 C        2.918    -0.033    28.814     8.803
     8   6 C        2.987     0.018    27.606     8.619
     9   6 C        2.924    -0.037    28.921     8.819
    10   6 C        2.969     0.004    27.942     8.671
    11   6 C        3.829     0.039    19.890     6.346
    12   6 C        3.854     0.036    19.941     6.351
    13   6 C        2.969    -0.002    28.081     8.692
    14   6 C        2.920    -0.048    29.187     8.859
    15   6 C        2.987     0.012    27.736     8.639
    16   6 C        2.919    -0.038    28.946     8.823
    17   6 C        2.916    -0.029    28.726     8.789
    18   6 C        2.916    -0.028    28.709     8.786
    19   6 C        2.918    -0.032    28.805     8.801
    20   6 C        2.987     0.015    27.664     8.628
    21   6 C        2.917    -0.030    28.748     8.792
    22   6 C        2.922    -0.033    28.813     8.803
    23   7 N        2.775    -0.112    23.438     7.190
    24   6 C        2.761     0.275    22.351     7.742
    25   6 C        2.974    -0.019    28.473     8.753
    26   6 C        2.923    -0.036    28.889     8.814
    27   6 C        2.991    -0.033    28.818     8.806
    28   6 C        2.917     0.086    26.084     8.375
    29  35 Br       1.067    -0.154   189.296    22.184
    30   6 C        2.990    -0.033    28.819     8.806
    31   6 C        2.927    -0.020    28.512     8.757
    32   8 O        0.859    -0.411    21.907     6.275
    33   6 C        3.781     0.090    19.105     6.227
    34   6 C        2.688     0.351    21.042     7.507
    35   8 O        1.659    -0.358    20.056     6.046
    36   8 O        0.856    -0.387    21.416     6.205
    37   7 N        2.769    -0.115    23.508     7.201
    38   6 C        2.760     0.275    22.350     7.742
    39   6 C        2.975    -0.016    28.415     8.744
    40   6 C        2.925    -0.020    28.515     8.757
    41   6 C        2.991    -0.033    28.814     8.805
    42   6 C        2.918     0.085    26.102     8.378
    43  35 Br       1.069    -0.153   189.260    22.182
    44   6 C        2.991    -0.034    28.845     8.810
    45   6 C        2.926    -0.031    28.772     8.797
    46   8 O        0.859    -0.411    21.894     6.273
    47   1 H        0.926     0.013     2.846     2.638
    48   1 H        0.926     0.035     2.517     2.481
    49   1 H        0.926     0.035     2.522     2.483
    50   1 H        0.926     0.035     2.523     2.484
    51   1 H        0.926     0.035     2.519     2.482
    52   1 H        0.926     0.036     2.501     2.473
    53   1 H        0.926     0.038     2.476     2.461
    54   1 H        0.924     0.069     2.091     2.261
    55   1 H        0.924     0.085     1.930     2.173
    56   1 H        0.926     0.036     2.504     2.474
    57   1 H        0.925     0.031     2.566     2.505
    58   1 H        0.926     0.034     2.531     2.488
    59   1 H        0.926     0.035     2.513     2.479
    60   1 H        0.926     0.037     2.486     2.465
    61   1 H        0.926     0.043     2.411     2.428
    62   1 H        0.926     0.050     2.325     2.384
    63   1 H        0.926     0.066     2.129     2.282
    64   1 H        0.926     0.062     2.179     2.308
    65   1 H        0.926     0.063     2.167     2.302
    66   1 H        0.926     0.061     2.183     2.311
    67   1 H        0.923     0.066     2.128     2.281
    68   1 H        0.804     0.348     0.593     1.210
    69   1 H        0.926     0.060     2.197     2.318
    70   1 H        0.926     0.063     2.167     2.302
    71   1 H        0.926     0.061     2.189     2.314
    72   1 H        0.926     0.040     2.453     2.449

Wiberg/Mayer (AO) data.
largest (>0.10) Wiberg bond orders for each atom

     #   Z sym  total        # sym  WBO       # sym  WBO       # sym  WBO
 ---------------------------------------------------------------------------
     1   6 C    3.992 --     2 C    1.562    10 C    1.296    47 H    0.966
     2   6 C    3.992 --     1 C    1.562     3 C    1.278    48 H    0.968
                             9 C    0.115
     3   6 C    3.990 --     4 C    1.281     2 C    1.278     8 C    1.250
     4   6 C    3.992 --     5 C    1.557     3 C    1.281    49 H    0.968
                             7 C    0.118
     5   6 C    3.990 --     4 C    1.557     6 C    1.320    50 H    0.971
     6   6 C    3.992 --     7 C    1.558     5 C    1.320    51 H    0.971
     7   6 C    3.990 --     6 C    1.558     8 C    1.278    52 H    0.968
                             4 C    0.118
     8   6 C    3.990 --     9 C    1.283     7 C    1.278     3 C    1.250
     9   6 C    3.989 --    10 C    1.525     8 C    1.283    53 H    0.965
                             2 C    0.115
    10   6 C    3.985 --     9 C    1.525     1 C    1.296    11 C    0.987
    11   6 C    3.960 --    10 C    0.987    12 C    0.962    37 N    0.953
                            54 H    0.950
    12   6 C    3.954 --    13 C    0.985    11 C    0.962    55 H    0.949
                            23 N    0.947
    13   6 C    3.984 --    14 C    1.530    22 C    1.286    12 C    0.985
    14   6 C    3.990 --    13 C    1.530    15 C    1.274    56 H    0.961
                            21 C    0.112
    15   6 C    3.990 --    16 C    1.281    14 C    1.274    20 C    1.254
    16   6 C    3.990 --    17 C    1.555    15 C    1.281    57 H    0.968
                            19 C    0.118
    17   6 C    3.992 --    16 C    1.555    18 C    1.323    58 H    0.971
    18   6 C    3.990 --    19 C    1.554    17 C    1.323    59 H    0.971
    19   6 C    3.991 --    18 C    1.554    20 C    1.283    60 H    0.968
                            16 C    0.118
    20   6 C    3.990 --    19 C    1.283    21 C    1.272    15 C    1.254
    21   6 C    3.991 --    22 C    1.571    20 C    1.272    61 H    0.967
                            14 C    0.112
    22   6 C    3.989 --    21 C    1.571    13 C    1.286    62 H    0.967
    23   7 N    3.458 --    24 C    1.191    33 C    0.998    12 C    0.947
                            32 O    0.187
    24   6 C    3.945 --    32 O    1.698    23 N    1.191    25 C    0.974
    25   6 C    3.987 --    31 C    1.397    26 C    1.393    24 C    0.974
    26   6 C    3.988 --    27 C    1.445    25 C    1.393    63 H    0.961
                            30 C    0.107
    27   6 C    3.989 --    26 C    1.445    28 C    1.407    64 H    0.967
                            31 C    0.107
    28   6 C    3.941 --    27 C    1.407    30 C    1.405    29 Br   0.991
    29  35 Br   1.129 --    28 C    0.991
    30   6 C    3.989 --    31 C    1.446    28 C    1.405    65 H    0.966
                            26 C    0.107
    31   6 C    3.988 --    30 C    1.446    25 C    1.397    66 H    0.965
                            27 C    0.107
    32   8 O    2.028 --    24 C    1.698    23 N    0.187
    33   6 C    3.977 --    23 N    0.998    37 N    0.985    67 H    0.923
                            34 C    0.910
    34   6 C    3.920 --    36 O    1.773    35 O    1.160    33 C    0.910
    35   8 O    2.224 --    34 C    1.160    68 H    0.852    36 O    0.181
    36   8 O    2.062 --    34 C    1.773    35 O    0.181
    37   7 N    3.464 --    38 C    1.210    33 C    0.985    11 C    0.953
                            46 O    0.194
    38   6 C    3.949 --    46 O    1.701    37 N    1.210    39 C    0.956
    39   6 C    3.988 --    40 C    1.408    45 C    1.397    38 C    0.956
    40   6 C    3.989 --    41 C    1.441    39 C    1.408    69 H    0.966
                            44 C    0.108
    41   6 C    3.989 --    40 C    1.441    42 C    1.410    70 H    0.967
                            45 C    0.108
    42   6 C    3.942 --    41 C    1.410    44 C    1.405    43 Br   0.991
    43  35 Br   1.127 --    42 C    0.991
    44   6 C    3.989 --    45 C    1.445    42 C    1.405    71 H    0.967
                            40 C    0.108
    45   6 C    3.991 --    44 C    1.445    39 C    1.397    72 H    0.965
                            41 C    0.108
    46   8 O    2.027 --    38 C    1.701    37 N    0.194
    47   1 H    0.999 --     1 C    0.966
    48   1 H    0.998 --     2 C    0.968
    49   1 H    0.998 --     4 C    0.968
    50   1 H    0.998 --     5 C    0.971
    51   1 H    0.998 --     6 C    0.971
    52   1 H    0.998 --     7 C    0.968
    53   1 H    0.998 --     9 C    0.965
    54   1 H    0.994 --    11 C    0.950
    55   1 H    0.991 --    12 C    0.949
    56   1 H    0.998 --    14 C    0.961
    57   1 H    0.999 --    16 C    0.968
    58   1 H    0.998 --    17 C    0.971
    59   1 H    0.998 --    18 C    0.971
    60   1 H    0.998 --    19 C    0.968
    61   1 H    0.997 --    21 C    0.967
    62   1 H    0.997 --    22 C    0.967
    63   1 H    0.996 --    26 C    0.961
    64   1 H    0.996 --    27 C    0.967
    65   1 H    0.996 --    30 C    0.966
    66   1 H    0.996 --    31 C    0.965
    67   1 H    0.995 --    33 C    0.923
    68   1 H    0.878 --    35 O    0.852
    69   1 H    0.996 --    40 C    0.966
    70   1 H    0.996 --    41 C    0.967
    71   1 H    0.996 --    44 C    0.967
    72   1 H    0.998 --    45 C    0.965
 ---------------------------------------------------------------------------

molecular dipole:
                 x           y           z       tot (Debye)
 q only:       -0.185      -1.210      -0.944
   full:       -0.224      -1.656      -1.127       5.122

           -------------------------------------------------
          | TOTAL ENERGY             -124.964236384300 Eh   |
          | GRADIENT NORM               0.000629486948 Eh/Î± |
          | HOMO-LUMO GAP               2.917775465248 eV   |
           -------------------------------------------------

 * finished run on 2022/03/16 at 22:44:03.447
