   * xtb version 6.3.3 (4ae9cef) compiled by 'conda@95abc7406d43' on 2020-10-14
          program call               : xtb acid_239.xyz --opt --chrg 0 --uhf 0 --gfn 2
          number of atoms            :                    72
          number of electrons        :                   218
          charge                     :                     0
          spin                       :                   0.0

   ID    Z sym.   atoms
    1    6 C      1-22, 24-29, 32, 33, 37-42
    2    7 N      23, 36
    3    8 O      30, 31, 34, 35, 43, 44
    4    1 H      45-72

          :  Hamiltonian                  GFN2-xTB          :
 * total energy  :  -121.6486483 Eh     change       -0.5004352E-08 Eh
 * total energy  :  -121.6632529 Eh     change       -0.1460456E-01 Eh
 * total energy  :  -121.6680942 Eh     change       -0.4841272E-02 Eh
 * total energy  :  -121.6694602 Eh     change       -0.1366065E-02 Eh
 * total energy  :  -121.6704229 Eh     change       -0.9626777E-03 Eh
 * total energy  :  -121.6710914 Eh     change       -0.6684829E-03 Eh
 * total energy  :  -121.6717694 Eh     change       -0.6779730E-03 Eh
 * total energy  :  -121.6722672 Eh     change       -0.4977817E-03 Eh
 * total energy  :  -121.6726016 Eh     change       -0.3344253E-03 Eh
 * total energy  :  -121.6725721 Eh     change        0.2943171E-04 Eh
 * total energy  :  -121.6768381 Eh     change       -0.1347453E-04 Eh
 * total energy  :  -121.6768526 Eh     change       -0.1448862E-04 Eh
 * total energy  :  -121.6768700 Eh     change       -0.1744025E-04 Eh
 * total energy  :  -121.6768904 Eh     change       -0.2042663E-04 Eh
 * total energy  :  -121.6769111 Eh     change       -0.2066171E-04 Eh
 * total energy  :  -121.6769287 Eh     change       -0.1764235E-04 Eh
 * total energy  :  -121.6769281 Eh     change        0.5943817E-06 Eh
 * total energy  :  -121.6769392 Eh     change       -0.1103959E-04 Eh
 * total energy  :  -121.6769401 Eh     change       -0.9015106E-06 Eh
   *** GEOMETRY OPTIMIZATION CONVERGED AFTER 68 ITERATIONS ***

 final structure:
================
72
 xtb: 6.3.3 (4ae9cef)
C         2.26622455233895    0.93364991349911    1.29995645508235
C         3.18130231989290    0.70346258477358    2.28869987230778
C         3.57206479862448   -0.60672003782369    2.63346019604230
C         4.51786670907506   -0.87191716484635    3.64575161159278
C         4.87565568685947   -2.15577962927835    3.94788365637939
C         4.30417593890139   -3.23409968185369    3.25304624217696
C         3.38438428277216   -3.01118032283830    2.26775959526000
C         2.99439985529875   -1.69735897621967    1.93193270921310
C         2.05384355499171   -1.43084671183533    0.91813118877890
C         1.69587491561831   -0.14438192911634    0.59836606762679
C         0.64282395952530    0.08844515360365   -0.46314201324049
C        -0.76542162608532    0.10803547622949    0.20224413813516
C        -1.79248732940125   -0.62287354519655   -0.63314901734268
C        -2.84512228680993    0.01644379581353   -1.23094763333635
C        -3.78665696893453   -0.69605935574241   -2.00293748658223
C        -4.87812331938260   -0.05386083399360   -2.62376112166693
C        -5.77847964930662   -0.76994781286396   -3.36217860207235
C        -5.62939380210169   -2.15766445110889   -3.51344390160725
C        -4.58085518645123   -2.80830748390350   -2.92530153335335
C        -3.63540385633036   -2.09848800277154   -2.15732497448216
C        -2.54588076471804   -2.73473894984857   -1.52533348320070
C        -1.65228820172799   -2.01837752967200   -0.78384191421286
N        -1.04011508043040    1.51839450449958    0.34132284931769
C        -1.50571349422602    2.18854303063727    1.42722046297327
C        -2.18643998088769    1.39706248349138    2.46110555178316
C        -2.93210693071406    0.24278693815501    2.42946732812536
C        -3.44058782774960    0.06812453408722    3.73253820202299
C        -2.97812266531541    1.12367506314132    4.47179916423233
C        -3.16808776332478    1.47862041722230    5.90126645936513
O        -2.23158306038865    1.92796109374725    3.70434470775580
O        -1.40860201470810    3.40208327429583    1.49416249156035
C        -0.37420473670773    2.25228509615393   -0.70739642330374
C         0.15310597108019    3.63274143963176   -0.25531958838611
O        -0.54589377351312    4.60976823376410   -0.80899684150450
O         1.14973147994635    3.78713999871742    0.39550659621114
N         0.71116374677880    1.37873910471453   -1.11315559365527
C         1.43074073275316    1.77941079217643   -2.19937053676558
C         2.47656060080116    0.88799048761771   -2.72053974292774
C         3.24914217914528   -0.12485264173060   -2.20653650484078
C         4.14200452120393   -0.50059683815739   -3.23075873910662
C         3.86167208913430    0.30435450403344   -4.30149396628564
C         4.45996745388645    0.37729710969940   -5.65928086554834
O         2.86504886604552    1.14251710524002   -3.99393142435641
O         1.19216147412902    2.85729720215103   -2.71496597750281
H         1.98575518931101    1.94304803272372    1.04385926970804
H         3.61995666780980    1.53455843541532    2.82084006401635
H         4.95496918789847   -0.03843409595392    4.17653708709419
H         5.60093170372312   -2.35195456188645    4.72389458471458
H         4.59952326815797   -4.24218198420331    3.50512573100748
H         2.94312988823613   -3.83783953870876    1.72866565477962
H         1.62364864124419   -2.26630531484263    0.38071532153429
H         0.70092866833045   -0.70565901430641   -1.21778973949931
H        -0.71378908759815   -0.35461343920628    1.19447228696021
H        -2.98334941313619    1.08014952747098   -1.10493864537264
H        -4.98759248068293    1.01449481621823   -2.50462750117733
H        -6.61227332433457   -0.27263572506580   -3.83561574606257
H        -6.35168366273387   -2.70686698335265   -4.09953254132807
H        -4.46145215618737   -3.87658701624127   -3.03831587883756
H        -2.43393691726907   -3.80392034574087   -1.63414571745216
H        -0.82932420292541   -2.51557475141079   -0.29101803616217
H        -3.12421902813970   -0.38226891130446    1.58142843151955
H        -4.06863501175073   -0.72864689006508    4.07465987038839
H        -3.61738547665997    2.46683666220565    5.98605281184749
H        -2.20802383132535    1.50470942945516    6.41492548916132
H        -3.81187812904810    0.74792427767118    6.38102197474157
H        -1.04524168669152    2.44264152037845   -1.56263676405969
H        -0.19248512564728    5.46975456754870   -0.53292236466225
H         3.21883530117465   -0.53032314737614   -1.21773649971660
H         4.89356461606337   -1.26152961976036   -3.17803748894065
H         5.26185732054164   -0.34901061746736   -5.74922139913348
H         3.70461105750307    0.17588057758762   -6.41768602810246
H         4.85521265451179    1.37557267188618   -5.84083188764039

          :  Hamiltonian                  GFN2-xTB          :
         :: total energy            -121.676940076686 Eh    ::
         :: gradient norm              0.000741818263 Eh/a0 ::
         :: HOMO-LUMO gap              2.993776921160 eV    ::
         :: SCC energy              -123.500555440764 Eh    ::
         :: -> dispersion             -0.096418946425 Eh    ::
         :: repulsion energy           1.821353783641 Eh    ::

    * Orbital Energies and Occupations

         #    Occupation            Energy/Eh            Energy/eV
      -------------------------------------------------------------
         1        2.0000           -0.7487381             -20.3742
       ...           ...                  ...                  ...
        97        2.0000           -0.4267504             -11.6125
        98        2.0000           -0.4233283             -11.5194
        99        2.0000           -0.4161768             -11.3247
       100        2.0000           -0.4128201             -11.2334
       101        2.0000           -0.4088894             -11.1264
       102        2.0000           -0.4051833             -11.0256
       103        2.0000           -0.4018414             -10.9347
       104        2.0000           -0.3970643             -10.8047
       105        2.0000           -0.3948924             -10.7456
       106        2.0000           -0.3911255             -10.6431
       107        2.0000           -0.3903822             -10.6228
       108        2.0000           -0.3849299             -10.4745
       109        2.0000           -0.3822104             -10.4005 (HOMO)
       110                         -0.2721911              -7.4067 (LUMO)
       111                         -0.2654765              -7.2240
       112                         -0.2600177              -7.0754
       113                         -0.2512291              -6.8363
       114                         -0.2429219              -6.6102
       115                         -0.2330396              -6.3413
       116                         -0.2204211              -5.9980
       117                         -0.2012873              -5.4773
       118                         -0.1942293              -5.2852
       119                         -0.1913126              -5.2059
       120                         -0.1819364              -4.9507
       ...                                ...                  ...
       204                          0.6992552              19.0277
      -------------------------------------------------------------
                  HL-Gap            0.1100193 Eh            2.9938 eV

     #   Z          covCN         q      C6AA      Î±(0)
     1   6 C        2.917    -0.042    29.045     8.838
     2   6 C        2.918    -0.031    28.779     8.797
     3   6 C        2.987     0.012    27.734     8.639
     4   6 C        2.918    -0.033    28.835     8.806
     5   6 C        2.916    -0.030    28.740     8.791
     6   6 C        2.916    -0.029    28.736     8.790
     7   6 C        2.918    -0.036    28.898     8.815
     8   6 C        2.986     0.012    27.734     8.639
     9   6 C        2.923    -0.048    29.193     8.861
    10   6 C        2.969    -0.004    28.110     8.697
    11   6 C        3.818     0.038    19.918     6.352
    12   6 C        3.831     0.037    19.937     6.353
    13   6 C        2.967    -0.005    28.136     8.701
    14   6 C        2.921    -0.041    29.019     8.834
    15   6 C        2.987     0.016    27.657     8.627
    16   6 C        2.918    -0.033    28.828     8.805
    17   6 C        2.916    -0.027    28.679     8.782
    18   6 C        2.916    -0.028    28.695     8.784
    19   6 C        2.918    -0.034    28.843     8.807
    20   6 C        2.987     0.013    27.722     8.637
    21   6 C        2.917    -0.034    28.842     8.807
    22   6 C        2.920    -0.040    29.001     8.831
    23   7 N        2.764    -0.111    23.425     7.188
    24   6 C        2.761     0.266    22.516     7.771
    25   6 C        3.101     0.075    26.209     8.389
    26   6 C        3.013    -0.063    29.540     8.916
    27   6 C        3.013    -0.076    29.880     8.967
    28   6 C        3.096     0.127    25.115     8.213
    29   6 C        3.753    -0.120    22.859     6.818
    30   8 O        1.732    -0.163    16.757     5.527
    31   8 O        0.861    -0.412    21.926     6.278
    32   6 C        3.787     0.103    18.903     6.192
    33   6 C        2.688     0.383    20.512     7.412
    34   8 O        1.660    -0.347    19.857     6.016
    35   8 O        0.856    -0.401    21.708     6.247
    36   7 N        2.762    -0.120    23.610     7.217
    37   6 C        2.766     0.263    22.565     7.780
    38   6 C        3.093     0.074    26.247     8.397
    39   6 C        3.014    -0.064    29.573     8.920
    40   6 C        3.012    -0.077    29.899     8.969
    41   6 C        3.092     0.125    25.150     8.220
    42   6 C        3.753    -0.119    22.841     6.815
    43   8 O        1.733    -0.166    16.794     5.533
    44   8 O        0.861    -0.428    22.243     6.323
    45   1 H        0.926     0.076     2.023     2.224
    46   1 H        0.926     0.044     2.400     2.423
    47   1 H        0.926     0.035     2.513     2.479
    48   1 H        0.926     0.032     2.560     2.502
    49   1 H        0.926     0.031     2.571     2.507
    50   1 H        0.926     0.030     2.591     2.517
    51   1 H        0.925     0.023     2.681     2.560
    52   1 H        0.924     0.053     2.288     2.365
    53   1 H        0.924     0.060     2.204     2.322
    54   1 H        0.926     0.039     2.455     2.450
    55   1 H        0.926     0.038     2.472     2.459
    56   1 H        0.926     0.036     2.501     2.473
    57   1 H        0.926     0.035     2.518     2.482
    58   1 H        0.926     0.035     2.521     2.483
    59   1 H        0.926     0.039     2.468     2.457
    60   1 H        0.926     0.030     2.585     2.514
    61   1 H        0.926     0.042     2.426     2.436
    62   1 H        0.926     0.043     2.406     2.426
    63   1 H        0.925     0.072     2.064     2.247
    64   1 H        0.925     0.070     2.088     2.260
    65   1 H        0.925     0.060     2.200     2.319
    66   1 H        0.923     0.073     2.049     2.239
    67   1 H        0.805     0.345     0.599     1.216
    68   1 H        0.927     0.044     2.400     2.423
    69   1 H        0.926     0.040     2.445     2.445
    70   1 H        0.925     0.058     2.221     2.331
    71   1 H        0.925     0.067     2.117     2.275
    72   1 H        0.925     0.070     2.081     2.256

Wiberg/Mayer (AO) data.
largest (>0.10) Wiberg bond orders for each atom

     #   Z sym  total        # sym  WBO       # sym  WBO       # sym  WBO
 ---------------------------------------------------------------------------
     1   6 C    3.985 --     2 C    1.556    10 C    1.300    45 H    0.953
     2   6 C    3.991 --     1 C    1.556     3 C    1.282    46 H    0.967
                             9 C    0.116
     3   6 C    3.989 --     2 C    1.282     4 C    1.279     8 C    1.248
     4   6 C    3.992 --     5 C    1.559     3 C    1.279    47 H    0.968
                             7 C    0.118
     5   6 C    3.990 --     4 C    1.559     6 C    1.319    48 H    0.971
     6   6 C    3.992 --     7 C    1.560     5 C    1.319    49 H    0.971
     7   6 C    3.990 --     6 C    1.560     8 C    1.276    50 H    0.968
                             4 C    0.118
     8   6 C    3.990 --     9 C    1.287     7 C    1.276     3 C    1.248
     9   6 C    3.988 --    10 C    1.513     8 C    1.287    51 H    0.965
                             2 C    0.116
    10   6 C    3.984 --     9 C    1.513     1 C    1.300    11 C    0.982
    11   6 C    3.964 --    10 C    0.982    36 N    0.976    52 H    0.952
                            12 C    0.939
    12   6 C    3.962 --    13 C    0.983    23 N    0.977    53 H    0.947
                            11 C    0.939
    13   6 C    3.984 --    14 C    1.531    22 C    1.287    12 C    0.983
    14   6 C    3.990 --    13 C    1.531    15 C    1.277    54 H    0.963
                            21 C    0.113
    15   6 C    3.990 --    16 C    1.280    14 C    1.277    20 C    1.253
    16   6 C    3.989 --    17 C    1.556    15 C    1.280    55 H    0.968
                            19 C    0.118
    17   6 C    3.992 --    16 C    1.556    18 C    1.322    56 H    0.971
    18   6 C    3.990 --    19 C    1.555    17 C    1.322    57 H    0.971
    19   6 C    3.992 --    18 C    1.555    20 C    1.283    58 H    0.968
                            16 C    0.118
    20   6 C    3.990 --    19 C    1.283    21 C    1.273    15 C    1.253
    21   6 C    3.991 --    22 C    1.569    20 C    1.273    59 H    0.968
                            14 C    0.113
    22   6 C    3.990 --    21 C    1.569    13 C    1.287    60 H    0.967
    23   7 N    3.469 --    24 C    1.202    32 C    0.980    12 C    0.977
                            31 O    0.182
    24   6 C    3.956 --    31 O    1.636    23 N    1.202    25 C    1.021
    25   6 C    3.905 --    26 C    1.513    30 O    1.108    24 C    1.021
                            28 C    0.127
    26   6 C    3.984 --    25 C    1.513    27 C    1.326    61 H    0.970
    27   6 C    3.979 --    28 C    1.534    26 C    1.326    62 H    0.974
    28   6 C    3.913 --    27 C    1.534    30 O    1.150    29 C    1.032
                            25 C    0.127
    29   6 C    3.992 --    28 C    1.032    65 H    0.984    63 H    0.967
                            64 H    0.966
    30   8 O    2.462 --    28 C    1.150    25 C    1.108
    31   8 O    2.057 --    24 C    1.636    23 N    0.182
    32   6 C    3.957 --    23 N    0.980    36 N    0.975    66 H    0.939
                            33 C    0.909
    33   6 C    3.925 --    35 O    1.744    34 O    1.165    32 C    0.909
    34   8 O    2.227 --    33 C    1.165    67 H    0.856    35 O    0.171
    35   8 O    2.053 --    33 C    1.744    34 O    0.171
    36   7 N    3.454 --    37 C    1.188    11 C    0.976    32 C    0.975
                            44 O    0.184
    37   6 C    3.957 --    44 O    1.650    36 N    1.188    38 C    1.025
    38   6 C    3.903 --    39 C    1.517    43 O    1.104    37 C    1.025
                            41 C    0.127
    39   6 C    3.985 --    38 C    1.517    40 C    1.325    68 H    0.966
    40   6 C    3.979 --    41 C    1.534    39 C    1.325    69 H    0.975
    41   6 C    3.914 --    40 C    1.534    43 O    1.152    42 C    1.031
                            38 C    0.127
    42   6 C    3.992 --    41 C    1.031    70 H    0.984    72 H    0.967
                            71 H    0.967
    43   8 O    2.460 --    41 C    1.152    38 C    1.104
    44   8 O    2.009 --    37 C    1.650    36 N    0.184
    45   1 H    0.994 --     1 C    0.953
    46   1 H    0.997 --     2 C    0.967
    47   1 H    0.998 --     4 C    0.968
    48   1 H    0.999 --     5 C    0.971
    49   1 H    0.999 --     6 C    0.971
    50   1 H    0.999 --     7 C    0.968
    51   1 H    0.999 --     9 C    0.965
    52   1 H    0.996 --    11 C    0.952
    53   1 H    0.994 --    12 C    0.947
    54   1 H    0.998 --    14 C    0.963
    55   1 H    0.998 --    16 C    0.968
    56   1 H    0.998 --    17 C    0.971
    57   1 H    0.998 --    18 C    0.971
    58   1 H    0.998 --    19 C    0.968
    59   1 H    0.998 --    21 C    0.968
    60   1 H    0.999 --    22 C    0.967
    61   1 H    0.998 --    26 C    0.970
    62   1 H    0.998 --    27 C    0.974
    63   1 H    0.994 --    29 C    0.967
    64   1 H    0.994 --    29 C    0.966
    65   1 H    0.996 --    29 C    0.984
    66   1 H    0.993 --    32 C    0.939
    67   1 H    0.880 --    34 O    0.856
    68   1 H    0.998 --    39 C    0.966
    69   1 H    0.998 --    40 C    0.975
    70   1 H    0.996 --    42 C    0.984
    71   1 H    0.995 --    42 C    0.967
    72   1 H    0.995 --    42 C    0.967
 ---------------------------------------------------------------------------

molecular dipole:
                 x           y           z       tot (Debye)
 q only:       -0.624      -2.631       0.405
   full:       -0.649      -2.879       0.438       7.583

           -------------------------------------------------
          | TOTAL ENERGY             -121.676940076686 Eh   |
          | GRADIENT NORM               0.000741818263 Eh/Î± |
          | HOMO-LUMO GAP               2.993776921160 eV   |
           -------------------------------------------------

 * finished run on 2022/03/16 at 22:50:08.098
