   * xtb version 6.3.3 (4ae9cef) compiled by 'conda@95abc7406d43' on 2020-10-14
          program call               : xtb acid_353.xyz --opt --chrg 0 --uhf 0 --gfn 2
          number of atoms            :                    80
          number of electrons        :                   226
          charge                     :                     0
          spin                       :                   0.0

   ID    Z sym.   atoms
    1    6 C      1, 3-16, 18, 20-28, 30, 31, 35-43
    2    8 O      2, 17, 29, 32, 33, 44
    3    7 N      19, 34
    4    1 H      45-80

          :  Hamiltonian                  GFN2-xTB          :
 * total energy  :  -125.7317159 Eh     change       -0.8630963E-09 Eh
 * total energy  :  -125.7455416 Eh     change       -0.1382573E-01 Eh
 * total energy  :  -125.7491108 Eh     change       -0.3569157E-02 Eh
 * total energy  :  -125.7500354 Eh     change       -0.9246072E-03 Eh
 * total energy  :  -125.7506173 Eh     change       -0.5819242E-03 Eh
 * total energy  :  -125.7505920 Eh     change        0.2531289E-04 Eh
 * total energy  :  -125.7511144 Eh     change       -0.5223585E-03 Eh
 * total energy  :  -125.7517344 Eh     change       -0.6200267E-03 Eh
 * total energy  :  -125.7524474 Eh     change       -0.7129772E-03 Eh
 * total energy  :  -125.7532069 Eh     change       -0.7595778E-03 Eh
 * total energy  :  -125.7604665 Eh     change       -0.6944350E-05 Eh
 * total energy  :  -125.7604733 Eh     change       -0.6813271E-05 Eh
 * total energy  :  -125.7604811 Eh     change       -0.7778481E-05 Eh
 * total energy  :  -125.7604895 Eh     change       -0.8447855E-05 Eh
 * total energy  :  -125.7604882 Eh     change        0.1326733E-05 Eh
 * total energy  :  -125.7604948 Eh     change       -0.6588373E-05 Eh
 * total energy  :  -125.7604839 Eh     change        0.1089704E-04 Eh
 * total energy  :  -125.7604970 Eh     change       -0.1313089E-04 Eh
 * total energy  :  -125.7605015 Eh     change       -0.4526085E-05 Eh
   *** GEOMETRY OPTIMIZATION CONVERGED AFTER 117 ITERATIONS ***

 final structure:
================
80
 xtb: 6.3.3 (4ae9cef)
C         0.76771208743179    3.17894055973661   -2.53847448434897
O         0.80010252595013    4.27631484327574   -1.72965628426298
C         0.75191246031791    5.55119321747232   -2.32288435522929
C         0.64804310861985    3.21710057414791   -3.92045763453101
C         0.61144236860162    2.03844671529073   -4.64798937105402
C         0.69784895791539    0.81901649003795   -4.00819516262149
C         0.82013499527070    0.77814624268101   -2.62843776919543
C         0.85870609444184    1.94045614247613   -1.88406716453122
C         0.95656363688356    1.95018488982629   -0.37604191124714
C        -0.43048689900940    2.22192314899258    0.23384267370730
C        -0.42347395626459    2.79684473766418    1.63032598039279
C         0.72422891904213    3.03917867929382    2.36479747579446
C         0.65194141475293    3.58339231040591    3.63750639458497
C        -0.57658857732380    3.89098698520978    4.18578171498119
C        -1.74105519223111    3.63644316985669    3.48017926684972
C        -1.67341059325204    3.07700433733309    2.21281316720021
O        -2.75871951588544    2.72239338068801    1.46440889702927
C        -4.04412646921673    3.06636979854663    1.92028612444084
N        -0.99619911391001    0.86400743560983    0.24120757115386
C        -1.87369855260584    0.49823958509470   -0.76070217510051
C        -2.01085725411373   -0.97087856511925   -0.97996631415506
C        -1.88313269721727   -1.42514648875050   -2.28686784331747
C        -1.93699183749025   -2.78272271185133   -2.57198175659928
C        -1.76753612670336   -3.25825960789681   -3.98195228201800
C        -2.13684307573850   -3.67721762626192   -1.52874473783413
C        -2.29749322093572   -3.24175239283897   -0.21983057414458
C        -2.50669055359816   -4.21191422039276    0.90171601783918
C        -2.23424814364231   -1.88042701315309    0.04813577413448
O        -2.49176802013364    1.31949236627688   -1.39809406128912
C         0.07922097591200    0.03122029197874    0.71836075086119
C         0.07092481358838    0.00031945822122    2.27065160949408
O        -1.15138191945517    0.12908536797141    2.78961496885965
O         1.04240372516790   -0.19877557849031    2.93447074704849
N         1.27507031439903    0.63921693562273    0.17268172213199
C         2.52786707124379    0.11051000034600    0.14702566647234
C         2.61180624386789   -1.31488635850786    0.58972111837280
C         3.36487597060721   -1.64259555823804    1.70434737184442
C         3.44704061433467   -2.96077678191082    2.13598212447553
C         4.23659979984401   -3.29386809262208    3.36403545910266
C         2.77775835167055   -3.94334782768782    1.42223897614588
C         2.04324653992808   -3.63875655369442    0.28274941529707
C         1.35647806216172   -4.71839662822683   -0.49907262711874
C         1.96763132530352   -2.31712514939693   -0.12851888068927
O         3.48291740919781    0.75852208159103   -0.22603015456756
H         1.59747194339902    5.71309254507152   -2.99871876658081
H        -0.18548648417103    5.70606564383385   -2.86649288858746
H         0.81008284334726    6.25913693181278   -1.49753903271001
H         0.57903610855283    4.15829932309876   -4.44225212266347
H         0.51513010795357    2.08356223280757   -5.72253138347920
H         0.67350376386753   -0.09905521704581   -4.57557664896956
H         0.89811765538543   -0.17609943788718   -2.12976480578362
H         1.70635681888549    2.68872099510993   -0.08649585087544
H        -1.05766380224714    2.83974681196385   -0.41411314869962
H         1.69371117487413    2.79888135673829    1.95995193020237
H         1.55814112813146    3.76030372356028    4.19468518987367
H        -0.64044433885596    4.32053733007811    5.17407310241899
H        -2.69374601078487    3.86596371559702    3.93011090351009
H        -4.29397858455335    2.54451704693705    2.85021390618397
H        -4.14307966407043    4.14543738486983    2.07013178500589
H        -4.72373737938627    2.74762754068686    1.13153039447460
H        -1.72801557073012   -0.70552747115151   -3.07684212692499
H        -2.50980507170751   -2.79220965049971   -4.62880737010422
H        -1.87424418172864   -4.33857458023257   -4.04686816633410
H        -0.78176543183618   -2.98259001620209   -4.35675186834445
H        -2.17686167009389   -4.73685943127571   -1.74044965224734
H        -1.66359041555498   -4.17238612771922    1.59203577680715
H        -2.60087324324866   -5.22790041255368    0.52681713833750
H        -3.40638256028848   -3.95968680594970    1.46124374658646
H        -2.37655976289997   -1.53948177787321    1.06391116918079
H        -0.02965595664853   -1.01277566916210    0.39687507046284
H        -1.77634634624325    0.45534977582429    2.11270949256997
H         3.86975648153857   -0.86081015008235    2.24928443509325
H         5.25099487933579   -2.90825040866372    3.27863181230298
H         3.77648202807730   -2.82891916860919    4.23503078417947
H         4.28104849748878   -4.36830077177638    3.52398633350275
H         2.83155777385708   -4.97156000148942    1.75324141310180
H         2.04465505921570   -5.14193991318629   -1.23144668077794
H         0.49471910864132   -4.32252989858491   -1.03298042144973
H         1.02843450122092   -5.52190050091602    0.15678227516307
H         1.41526153358269   -2.07798853774575   -1.02853116878015

          :  Hamiltonian                  GFN2-xTB          :
         :: total energy            -125.760501531608 Eh    ::
         :: gradient norm              0.000924915328 Eh/a0 ::
         :: HOMO-LUMO gap              3.299649132291 eV    ::
         :: SCC energy              -127.607766011745 Eh    ::
         :: -> dispersion             -0.112118561010 Eh    ::
         :: repulsion energy           1.842010033247 Eh    ::

    * Orbital Energies and Occupations

         #    Occupation            Energy/Eh            Energy/eV
      -------------------------------------------------------------
         1        2.0000           -0.7567512             -20.5922
       ...           ...                  ...                  ...
       101        2.0000           -0.4213963             -11.4668
       102        2.0000           -0.4191965             -11.4069
       103        2.0000           -0.4117154             -11.2033
       104        2.0000           -0.4105469             -11.1715
       105        2.0000           -0.4049752             -11.0199
       106        2.0000           -0.4010016             -10.9118
       107        2.0000           -0.3988223             -10.8525
       108        2.0000           -0.3954494             -10.7607
       109        2.0000           -0.3876254             -10.5478
       110        2.0000           -0.3868481             -10.5267
       111        2.0000           -0.3848110             -10.4712
       112        2.0000           -0.3799404             -10.3387
       113        2.0000           -0.3785791             -10.3017 (HOMO)
       114                         -0.2573192              -7.0020 (LUMO)
       115                         -0.2499294              -6.8009
       116                         -0.2345520              -6.3825
       117                         -0.2319813              -6.3125
       118                         -0.2300810              -6.2608
       119                         -0.2237047              -6.0873
       120                         -0.2196538              -5.9771
       121                         -0.2156195              -5.8673
       122                         -0.2152823              -5.8581
       123                         -0.2055895              -5.5944
       124                         -0.1903869              -5.1807
       ...                                ...                  ...
       212                          0.6738977              18.3377
      -------------------------------------------------------------
                  HL-Gap            0.1212599 Eh            3.2996 eV

     #   Z          covCN         q      C6AA      Î±(0)
     1   6 C        2.871     0.140    24.948     8.188
     2   8 O        1.705    -0.274    18.540     5.814
     3   6 C        3.644     0.037    20.289     6.475
     4   6 C        2.917    -0.063    29.577     8.918
     5   6 C        2.921    -0.031    28.766     8.795
     6   6 C        2.918    -0.039    28.981     8.828
     7   6 C        2.923    -0.029    28.715     8.788
     8   6 C        2.974    -0.015    28.383     8.739
     9   6 C        3.836     0.045    19.791     6.329
    10   6 C        3.870     0.042    19.821     6.331
    11   6 C        2.969    -0.028    28.689     8.786
    12   6 C        2.922    -0.033    28.830     8.805
    13   6 C        2.918    -0.036    28.903     8.816
    14   6 C        2.921    -0.029    28.713     8.787
    15   6 C        2.916    -0.065    29.613     8.924
    16   6 C        2.870     0.135    25.049     8.204
    17   8 O        1.705    -0.276    18.583     5.820
    18   6 C        3.642     0.036    20.310     6.479
    19   7 N        2.769    -0.147    24.171     7.302
    20   6 C        2.764     0.274    22.372     7.746
    21   6 C        2.971    -0.024    28.591     8.771
    22   6 C        2.933    -0.037    28.912     8.818
    23   6 C        2.964     0.021    27.538     8.607
    24   6 C        3.758    -0.110    22.660     6.787
    25   6 C        2.929    -0.047    29.167     8.857
    26   6 C        2.964     0.020    27.554     8.610
    27   6 C        3.758    -0.111    22.682     6.790
    28   6 C        2.926    -0.052    29.281     8.874
    29   8 O        0.858    -0.405    21.780     6.257
    30   6 C        3.796     0.073    19.364     6.266
    31   6 C        2.686     0.346    21.115     7.520
    32   8 O        1.658    -0.368    20.234     6.072
    33   8 O        0.856    -0.353    20.770     6.110
    34   7 N        2.768    -0.122    23.648     7.222
    35   6 C        2.760     0.275    22.349     7.742
    36   6 C        2.973    -0.018    28.458     8.750
    37   6 C        2.930    -0.029    28.722     8.789
    38   6 C        2.965     0.023    27.480     8.599
    39   6 C        3.758    -0.112    22.687     6.791
    40   6 C        2.930    -0.050    29.235     8.867
    41   6 C        2.964     0.014    27.702     8.633
    42   6 C        3.758    -0.109    22.629     6.782
    43   6 C        2.929    -0.050    29.235     8.867
    44   8 O        0.859    -0.424    22.160     6.311
    45   1 H        0.924     0.044     2.399     2.422
    46   1 H        0.924     0.043     2.408     2.427
    47   1 H        0.925     0.062     2.171     2.304
    48   1 H        0.926     0.040     2.451     2.448
    49   1 H        0.926     0.038     2.481     2.463
    50   1 H        0.926     0.033     2.543     2.494
    51   1 H        0.926     0.027     2.627     2.534
    52   1 H        0.924     0.084     1.939     2.178
    53   1 H        0.924     0.094     1.840     2.121
    54   1 H        0.926     0.051     2.301     2.372
    55   1 H        0.926     0.045     2.383     2.414
    56   1 H        0.926     0.041     2.430     2.438
    57   1 H        0.926     0.041     2.438     2.442
    58   1 H        0.924     0.039     2.456     2.451
    59   1 H        0.924     0.044     2.397     2.421
    60   1 H        0.925     0.068     2.109     2.271
    61   1 H        0.926     0.050     2.325     2.384
    62   1 H        0.925     0.053     2.285     2.364
    63   1 H        0.925     0.045     2.385     2.415
    64   1 H        0.925     0.051     2.312     2.378
    65   1 H        0.925     0.037     2.488     2.467
    66   1 H        0.924     0.052     2.296     2.370
    67   1 H        0.925     0.046     2.368     2.406
    68   1 H        0.925     0.050     2.315     2.379
    69   1 H        0.926     0.029     2.606     2.525
    70   1 H        0.924     0.071     2.076     2.253
    71   1 H        0.803     0.340     0.612     1.229
    72   1 H        0.926     0.053     2.283     2.363
    73   1 H        0.925     0.051     2.310     2.377
    74   1 H        0.925     0.056     2.252     2.347
    75   1 H        0.925     0.042     2.423     2.434
    76   1 H        0.925     0.033     2.544     2.494
    77   1 H        0.924     0.049     2.330     2.387
    78   1 H        0.925     0.040     2.445     2.445
    79   1 H        0.925     0.043     2.411     2.428
    80   1 H        0.925     0.016     2.790     2.612

Wiberg/Mayer (AO) data.
largest (>0.10) Wiberg bond orders for each atom

     #   Z sym  total        # sym  WBO       # sym  WBO       # sym  WBO
 ---------------------------------------------------------------------------
     1   6 C    3.934 --     4 C    1.390     8 C    1.315     2 O    1.060
     2   8 O    2.231 --     1 C    1.060     3 C    0.983
     3   6 C    3.944 --     2 O    0.983    47 H    0.980    45 H    0.977
                            46 H    0.976
     4   6 C    3.987 --     5 C    1.427     1 C    1.390    48 H    0.965
                             7 C    0.100
     5   6 C    3.991 --     6 C    1.452     4 C    1.427    49 H    0.971
                             8 C    0.106
     6   6 C    3.991 --     5 C    1.452     7 C    1.414    50 H    0.971
     7   6 C    3.990 --     8 C    1.448     6 C    1.414    51 H    0.963
                             4 C    0.100
     8   6 C    3.984 --     7 C    1.448     1 C    1.315     9 C    0.987
                             5 C    0.106
     9   6 C    3.964 --     8 C    0.987    34 N    0.965    10 C    0.961
                            52 H    0.941
    10   6 C    3.959 --    11 C    0.992     9 C    0.961    53 H    0.944
                            19 N    0.944
    11   6 C    3.981 --    12 C    1.442    16 C    1.314    10 C    0.992
                            14 C    0.106
    12   6 C    3.989 --    11 C    1.442    13 C    1.418    54 H    0.962
                            15 C    0.101
    13   6 C    3.991 --    14 C    1.451    12 C    1.418    55 H    0.970
    14   6 C    3.991 --    13 C    1.451    15 C    1.427    56 H    0.971
                            11 C    0.106
    15   6 C    3.987 --    14 C    1.427    16 C    1.390    57 H    0.965
                            12 C    0.101
    16   6 C    3.933 --    15 C    1.390    11 C    1.314    17 O    1.056
    17   8 O    2.229 --    16 C    1.056    18 C    0.982
    18   6 C    3.944 --    17 O    0.982    60 H    0.979    59 H    0.977
                            58 H    0.976
    19   7 N    3.418 --    20 C    1.149    30 C    0.993    10 C    0.944
                            29 O    0.170
    20   6 C    3.940 --    29 O    1.726    19 N    1.149    21 C    0.980
    21   6 C    3.987 --    22 C    1.401    28 C    1.395    20 C    0.980
    22   6 C    3.989 --    23 C    1.409    21 C    1.401    61 H    0.966
                            26 C    0.104
    23   6 C    3.988 --    25 C    1.413    22 C    1.409    24 C    1.026
                            28 C    0.104
    24   6 C    3.995 --    23 C    1.026    63 H    0.985    62 H    0.972
                            64 H    0.970
    25   6 C    3.990 --    23 C    1.413    26 C    1.410    65 H    0.966
    26   6 C    3.989 --    28 C    1.411    25 C    1.410    27 C    1.026
                            22 C    0.104
    27   6 C    3.995 --    26 C    1.026    67 H    0.985    68 H    0.973
                            66 H    0.970
    28   6 C    3.990 --    26 C    1.411    21 C    1.395    69 H    0.966
                            23 C    0.104
    29   8 O    2.040 --    20 C    1.726    19 N    0.170
    30   6 C    3.969 --    19 N    0.993    34 N    0.980    70 H    0.919
                            31 C    0.905
    31   6 C    3.925 --    33 O    1.804    32 O    1.146    30 C    0.905
    32   8 O    2.211 --    31 C    1.146    71 H    0.834    33 O    0.168
    33   8 O    2.090 --    31 C    1.804    32 O    0.168
    34   7 N    3.456 --    35 C    1.199    30 C    0.980     9 C    0.965
                            44 O    0.188
    35   6 C    3.943 --    44 O    1.694    34 N    1.199    36 C    0.965
    36   6 C    3.988 --    37 C    1.420    43 C    1.393    35 C    0.965
                            40 C    0.103
    37   6 C    3.989 --    36 C    1.420    38 C    1.399    72 H    0.967
                            41 C    0.105
    38   6 C    3.988 --    40 C    1.423    37 C    1.399    39 C    1.026
                            43 C    0.104
    39   6 C    3.995 --    38 C    1.026    75 H    0.986    73 H    0.974
                            74 H    0.969
    40   6 C    3.990 --    38 C    1.423    41 C    1.405    76 H    0.967
                            36 C    0.103
    41   6 C    3.988 --    43 C    1.419    40 C    1.405    42 C    1.024
                            37 C    0.105
    42   6 C    3.995 --    41 C    1.024    79 H    0.981    78 H    0.980
                            77 H    0.968
    43   6 C    3.989 --    41 C    1.419    36 C    1.393    80 H    0.962
                            38 C    0.104
    44   8 O    2.014 --    35 C    1.694    34 N    0.188
    45   1 H    0.998 --     3 C    0.977
    46   1 H    0.998 --     3 C    0.976
    47   1 H    0.996 --     3 C    0.980
    48   1 H    0.998 --     4 C    0.965
    49   1 H    0.998 --     5 C    0.971
    50   1 H    0.999 --     6 C    0.971
    51   1 H    0.999 --     7 C    0.963
    52   1 H    0.992 --     9 C    0.941
    53   1 H    0.990 --    10 C    0.944
    54   1 H    0.997 --    12 C    0.962
    55   1 H    0.998 --    13 C    0.970
    56   1 H    0.998 --    14 C    0.971
    57   1 H    0.998 --    15 C    0.965
    58   1 H    0.998 --    18 C    0.976
    59   1 H    0.998 --    18 C    0.977
    60   1 H    0.995 --    18 C    0.979
    61   1 H    0.997 --    22 C    0.966
    62   1 H    0.997 --    24 C    0.972
    63   1 H    0.997 --    24 C    0.985
    64   1 H    0.997 --    24 C    0.970
    65   1 H    0.998 --    25 C    0.966
    66   1 H    0.997 --    27 C    0.970
    67   1 H    0.997 --    27 C    0.985
    68   1 H    0.997 --    27 C    0.973
    69   1 H    0.999 --    28 C    0.966
    70   1 H    0.995 --    30 C    0.919
    71   1 H    0.884 --    32 O    0.834
    72   1 H    0.997 --    37 C    0.967
    73   1 H    0.997 --    39 C    0.974
    74   1 H    0.997 --    39 C    0.969
    75   1 H    0.998 --    39 C    0.986
    76   1 H    0.998 --    40 C    0.967
    77   1 H    0.997 --    42 C    0.968
    78   1 H    0.998 --    42 C    0.980
    79   1 H    0.998 --    42 C    0.981
    80   1 H    0.999 --    43 C    0.962
 ---------------------------------------------------------------------------

molecular dipole:
                 x           y           z       tot (Debye)
 q only:       -1.548      -0.430      -0.043
   full:       -1.881      -0.442      -0.270       4.959

           -------------------------------------------------
          | TOTAL ENERGY             -125.760501531608 Eh   |
          | GRADIENT NORM               0.000924915328 Eh/Î± |
          | HOMO-LUMO GAP               3.299649132291 eV   |
           -------------------------------------------------

 * finished run on 2022/03/17 at 00:12:10.888
