   * xtb version 6.3.3 (4ae9cef) compiled by 'conda@95abc7406d43' on 2020-10-14
          program call               : xtb acid_440.xyz --opt --chrg 0 --uhf 0 --gfn 2
          number of atoms            :                    96
          number of electrons        :                   262
          charge                     :                     0
          spin                       :                   0.0

   ID    Z sym.   atoms
    1    6 C      1-22, 24-34, 36, 37, 41-51
    2    7 N      23, 40
    3    8 O      35, 38, 39, 52
    4    1 H      53-96

          :  Hamiltonian                  GFN2-xTB          :
 * total energy  :  -143.0779385 Eh     change       -0.6237968E-08 Eh
 * total energy  :  -143.0971248 Eh     change       -0.1918635E-01 Eh
 * total energy  :  -143.1032975 Eh     change       -0.6172708E-02 Eh
 * total energy  :  -143.1052717 Eh     change       -0.1974212E-02 Eh
 * total energy  :  -143.1064575 Eh     change       -0.1185781E-02 Eh
 * total energy  :  -143.1070840 Eh     change       -0.6265202E-03 Eh
 * total energy  :  -143.1075207 Eh     change       -0.4366261E-03 Eh
 * total energy  :  -143.1079509 Eh     change       -0.4302853E-03 Eh
 * total energy  :  -143.1083225 Eh     change       -0.3715313E-03 Eh
 * total energy  :  -143.1086393 Eh     change       -0.3168108E-03 Eh
 * total energy  :  -143.1181526 Eh     change       -0.1567784E-04 Eh
 * total energy  :  -143.1181692 Eh     change       -0.1659987E-04 Eh
 * total energy  :  -143.1181866 Eh     change       -0.1744223E-04 Eh
 * total energy  :  -143.1182048 Eh     change       -0.1817820E-04 Eh
 * total energy  :  -143.1182242 Eh     change       -0.1940353E-04 Eh
 * total energy  :  -143.1182296 Eh     change       -0.5358362E-05 Eh
 * total energy  :  -143.1182396 Eh     change       -0.9991905E-05 Eh
 * total energy  :  -143.1182454 Eh     change       -0.5845191E-05 Eh
 * total energy  :  -143.1182496 Eh     change       -0.4176408E-05 Eh
   *** GEOMETRY OPTIMIZATION CONVERGED AFTER 97 ITERATIONS ***

 final structure:
================
96
 xtb: 6.3.3 (4ae9cef)
C         2.74136499973643    1.95215639511907   -1.64001014146257
C         3.49172446655489    2.93369662880427   -2.22250306549095
C         3.18200379192154    4.29468139601705   -2.02762818057034
C         3.93390630881833    5.33149091667923   -2.61817789996936
C         3.60165709408912    6.63991280229537   -2.40643018296853
C         2.50234564709882    6.97131101922579   -1.59762696984226
C         1.75516997951599    5.98981401655426   -1.01021649404468
C         2.07453591558722    4.62951273203378   -1.20548130289264
C         1.33062868894003    3.59498603703670   -0.60701415669693
C         1.65157709847658    2.27816016254842   -0.81286096536424
C         0.77270121466814    1.21717626275920   -0.20159897792853
C        -0.42972956217313    0.91506903928658   -1.11134557133968
C        -1.62642635830304    1.74966634652023   -0.73944577669487
C        -2.14054549426729    2.64912050726812   -1.63501517573401
C        -3.23129774619461    3.47328277684149   -1.29712277428939
C        -3.77571510713317    4.40250798105077   -2.20783592201165
C        -4.84188929896313    5.18125284078665   -1.85522061575438
C        -5.41096531486848    5.06867995839810   -0.57677202011975
C        -4.90272298454892    4.18072309350250    0.32963096265637
C        -3.80329586024251    3.36337529268009   -0.00337953747311
C        -3.24414975460430    2.44274810508749    0.90667901150444
C        -2.17869357289743    1.66670445387409    0.55378841741262
N        -0.61569817026413   -0.52965188595550   -0.96885456674434
C        -1.78593322029819   -1.13125309480249   -1.34805157278110
C        -1.76572548731706   -2.62778993147883   -1.39167699763145
C        -2.40401566677078   -3.50103534248226   -0.50187211806812
C        -3.27250286564134   -3.00668967761414    0.64811325727276
C        -2.56264079891614   -1.91654634011576    1.45392771720782
C        -4.56264559804280   -2.43667803357422    0.03820289435506
C        -3.65301943323744   -4.12516103968371    1.62627521433639
C        -2.28417266728166   -4.86356789110103   -0.76322594604903
C        -1.61023263605565   -5.35001660726735   -1.86834929923129
C        -1.05120946204237   -4.47498466368736   -2.77844353210782
C        -1.13450743830531   -3.11992777713377   -2.53187793119671
O        -2.72169440781729   -0.47031925943674   -1.74750729273738
C         0.58284965863077   -1.17446335151432   -0.46913129743504
C         1.31788458816105   -1.99275413618740   -1.56324268710829
O         1.66320978711913   -1.28116109989840   -2.63862070342204
O         1.56949470409237   -3.15375441414990   -1.44880371353026
N         1.42127177706412   -0.07595448909670   -0.02422591119967
C         2.46366117216512   -0.15142542718910    0.86844492645501
C         3.13998619751911   -1.48101918861899    0.94771919529772
C         3.88903468768732   -1.78412139942273   -0.18702377458706
C         4.62378984297557   -2.94835794426212   -0.27322865547183
C         4.60550126049360   -3.82436529292180    0.79382070126186
C         3.89024741141246   -3.51213383326485    1.93522747904589
C         3.15442988751254   -2.33638194701053    2.05650480274632
C         2.45963892447385   -1.98561381295731    3.36674880673269
C         1.02167864525817   -1.51568522003350    3.12255993337082
C         3.26906065853188   -0.87101494911567    4.04650797549037
C         2.38369115093049   -3.17830605026594    4.32875089631683
O         2.86971129904294    0.85482795141379    1.41121962649286
H         3.00870856324090    0.91675671790107   -1.79330886014074
H         4.33643324145503    2.67530247182057   -2.84469983305180
H         4.77855927914049    5.07103918100445   -3.23991509272520
H         4.18183056892760    7.43017461608978   -2.85972024479543
H         2.25427085782672    8.01117753741392   -1.44347158521369
H         0.90870825403954    6.23827290798652   -0.38623515802235
H         0.49157750149144    3.85531373356252    0.02298495887233
H         0.42953046777842    1.58108014492989    0.77677739857761
H        -0.17685699548023    1.14178225065655   -2.16090585332520
H        -1.71919504126793    2.73246823972588   -2.62694123320163
H        -3.33559916522681    4.48356062330318   -3.19139589119018
H        -5.25646451338448    5.88883718518851   -2.55828435055718
H        -6.25494933690797    5.69073598572925   -0.31682805455654
H        -5.33730523648216    4.09113333706770    1.31513530137664
H        -3.67149511042808    2.36388349163721    1.89605818152916
H        -1.75433948250736    0.97906832002890    1.27129882107540
H        -2.39144850014638   -1.03782127375885    0.84428872483256
H        -3.17979132994669   -1.61797662718193    2.29907635636153
H        -1.61303966651428   -2.28302898004675    1.83844028726398
H        -4.34548899661000   -1.60500924772487   -0.62565578312535
H        -5.07905752240847   -3.20509938605811   -0.53333457227503
H        -5.22537142772154   -2.08711579631217    0.82710915702042
H        -4.20369339054287   -3.69604178542812    2.46100655208106
H        -4.29663462354925   -4.86444214620609    1.15673771457919
H        -2.76836794481617   -4.61891343357699    2.02320211837993
H        -2.73537587776944   -5.57870954909560   -0.09642765569610
H        -1.54335358322572   -6.41615651397072   -2.02575131787979
H        -0.55229367463424   -4.83577844771933   -3.66374217926579
H        -0.71923597742041   -2.42302604747203   -3.24667113180114
H         0.34746585182333   -1.87531651069289    0.34608639217243
H         1.41803087350291   -0.34557894673347   -2.55923404490862
H         3.91167731159363   -1.08225220619019   -1.00844052764990
H         5.19421913666206   -3.16600762752463   -1.16238083093306
H         5.15983238067477   -4.74980336933749    0.74806073235055
H         3.92078291343600   -4.21310579156197    2.75195858705692
H         0.99062030124043   -0.59455637734717    2.54969975027722
H         0.52618587132302   -1.32732613111619    4.07293976691633
H         0.46536144433205   -2.28967225212762    2.59576332074230
H         3.30716720780573    0.01869546035414    3.42553687387684
H         4.28846985602217   -1.20625875429380    4.22584216845222
H         2.81699524463741   -0.61135021537787    5.00153723643172
H         1.88358316552961   -4.02609581978685    3.86505412040721
H         3.37135380903011   -3.48348145450281    4.66406038758570
H         1.81466234310121   -2.89007712869907    5.21038620412777

          :  Hamiltonian                  GFN2-xTB          :
         :: total energy            -143.118249579995 Eh    ::
         :: gradient norm              0.000377183101 Eh/a0 ::
         :: HOMO-LUMO gap              3.051712420582 eV    ::
         :: SCC energy              -145.434499181880 Eh    ::
         :: -> dispersion             -0.137172951048 Eh    ::
         :: repulsion energy           2.310943588403 Eh    ::

    * Orbital Energies and Occupations

         #    Occupation            Energy/Eh            Energy/eV
      -------------------------------------------------------------
         1        2.0000           -0.7699147             -20.9504
       ...           ...                  ...                  ...
       119        2.0000           -0.4190077             -11.4018
       120        2.0000           -0.4165255             -11.3342
       121        2.0000           -0.4103776             -11.1669
       122        2.0000           -0.4086931             -11.1211
       123        2.0000           -0.4071730             -11.0797
       124        2.0000           -0.4060862             -11.0502
       125        2.0000           -0.4016323             -10.9290
       126        2.0000           -0.4008082             -10.9065
       127        2.0000           -0.3989562             -10.8561
       128        2.0000           -0.3969589             -10.8018
       129        2.0000           -0.3941801             -10.7262
       130        2.0000           -0.3866881             -10.5223
       131        2.0000           -0.3815254             -10.3818 (HOMO)
       132                         -0.2693770              -7.3301 (LUMO)
       133                         -0.2652829              -7.2187
       134                         -0.2636368              -7.1739
       135                         -0.2423216              -6.5939
       136                         -0.2390781              -6.5056
       137                         -0.2359249              -6.4198
       138                         -0.2340340              -6.3684
       139                         -0.2259818              -6.1493
       140                         -0.2238132              -6.0903
       141                         -0.2190877              -5.9617
       142                         -0.2169946              -5.9047
       ...                                ...                  ...
       252                          0.6934397              18.8695
      -------------------------------------------------------------
                  HL-Gap            0.1121484 Eh            3.0517 eV

     #   Z          covCN         q      C6AA      Î±(0)
     1   6 C        2.918    -0.037    28.909     8.817
     2   6 C        2.918    -0.033    28.816     8.803
     3   6 C        2.988     0.014    27.688     8.631
     4   6 C        2.918    -0.033    28.830     8.805
     5   6 C        2.916    -0.028    28.705     8.786
     6   6 C        2.916    -0.028    28.688     8.783
     7   6 C        2.918    -0.033    28.827     8.804
     8   6 C        2.987     0.017    27.621     8.621
     9   6 C        2.925    -0.039    28.965     8.826
    10   6 C        2.969     0.004    27.930     8.669
    11   6 C        3.828     0.048    19.747     6.323
    12   6 C        3.822     0.053    19.680     6.313
    13   6 C        2.968     0.013    27.722     8.636
    14   6 C        2.924    -0.033    28.811     8.802
    15   6 C        2.987     0.018    27.591     8.616
    16   6 C        2.919    -0.033    28.813     8.802
    17   6 C        2.916    -0.028    28.704     8.786
    18   6 C        2.916    -0.029    28.715     8.787
    19   6 C        2.918    -0.033    28.833     8.805
    20   6 C        2.988     0.015    27.662     8.627
    21   6 C        2.917    -0.032    28.799     8.800
    22   6 C        2.919    -0.032    28.800     8.800
    23   7 N        2.757    -0.140    24.021     7.279
    24   6 C        2.768     0.279    22.271     7.729
    25   6 C        2.978    -0.029    28.727     8.792
    26   6 C        2.970     0.013    27.715     8.635
    27   6 C        3.902     0.027    20.073     6.368
    28   6 C        3.762    -0.103    22.514     6.764
    29   6 C        3.763    -0.110    22.655     6.785
    30   6 C        3.761    -0.109    22.622     6.780
    31   6 C        2.928    -0.038    28.941     8.822
    32   6 C        2.920    -0.026    28.661     8.779
    33   6 C        2.918    -0.024    28.601     8.770
    34   6 C        2.937    -0.027    28.666     8.781
    35   8 O        0.859    -0.423    22.155     6.311
    36   6 C        3.745     0.079    19.332     6.272
    37   6 C        2.686     0.350    21.063     7.511
    38   8 O        1.659    -0.356    20.017     6.040
    39   8 O        0.856    -0.351    20.721     6.103
    40   7 N        2.758    -0.146    24.153     7.299
    41   6 C        2.773     0.280    22.266     7.728
    42   6 C        2.979    -0.029    28.718     8.790
    43   6 C        2.936    -0.026    28.657     8.780
    44   6 C        2.917    -0.024    28.606     8.771
    45   6 C        2.920    -0.025    28.636     8.775
    46   6 C        2.928    -0.036    28.908     8.817
    47   6 C        2.970     0.014    27.691     8.632
    48   6 C        3.902     0.027    20.069     6.368
    49   6 C        3.762    -0.097    22.396     6.746
    50   6 C        3.762    -0.112    22.685     6.789
    51   6 C        3.762    -0.109    22.631     6.781
    52   8 O        0.859    -0.421    22.098     6.303
    53   1 H        0.926     0.027     2.629     2.535
    54   1 H        0.926     0.039     2.459     2.452
    55   1 H        0.926     0.035     2.512     2.479
    56   1 H        0.926     0.034     2.526     2.485
    57   1 H        0.926     0.034     2.524     2.484
    58   1 H        0.926     0.035     2.515     2.480
    59   1 H        0.926     0.034     2.535     2.490
    60   1 H        0.923     0.058     2.226     2.333
    61   1 H        0.923     0.027     2.630     2.536
    62   1 H        0.926     0.033     2.541     2.493
    63   1 H        0.926     0.034     2.527     2.486
    64   1 H        0.926     0.033     2.542     2.493
    65   1 H        0.926     0.033     2.546     2.495
    66   1 H        0.926     0.034     2.530     2.488
    67   1 H        0.926     0.038     2.476     2.460
    68   1 H        0.926     0.031     2.565     2.505
    69   1 H        0.925     0.039     2.468     2.457
    70   1 H        0.925     0.039     2.456     2.451
    71   1 H        0.925     0.025     2.662     2.552
    72   1 H        0.925     0.060     2.204     2.321
    73   1 H        0.925     0.034     2.529     2.487
    74   1 H        0.925     0.037     2.484     2.465
    75   1 H        0.925     0.039     2.460     2.453
    76   1 H        0.925     0.038     2.471     2.458
    77   1 H        0.925     0.035     2.517     2.481
    78   1 H        0.926     0.047     2.361     2.403
    79   1 H        0.926     0.038     2.470     2.458
    80   1 H        0.926     0.043     2.407     2.426
    81   1 H        0.925     0.026     2.649     2.545
    82   1 H        0.923     0.064     2.152     2.294
    83   1 H        0.804     0.337     0.618     1.235
    84   1 H        0.926     0.024     2.669     2.555
    85   1 H        0.926     0.042     2.419     2.432
    86   1 H        0.926     0.039     2.463     2.454
    87   1 H        0.926     0.047     2.352     2.398
    88   1 H        0.925     0.031     2.569     2.507
    89   1 H        0.925     0.042     2.425     2.435
    90   1 H        0.925     0.023     2.682     2.561
    91   1 H        0.925     0.063     2.165     2.301
    92   1 H        0.925     0.034     2.526     2.485
    93   1 H        0.925     0.037     2.483     2.464
    94   1 H        0.925     0.036     2.507     2.476
    95   1 H        0.925     0.039     2.462     2.454
    96   1 H        0.925     0.039     2.459     2.452

Wiberg/Mayer (AO) data.
largest (>0.10) Wiberg bond orders for each atom

     #   Z sym  total        # sym  WBO       # sym  WBO       # sym  WBO
 ---------------------------------------------------------------------------
     1   6 C    3.991 --     2 C    1.556    10 C    1.302    53 H    0.960
     2   6 C    3.991 --     1 C    1.556     3 C    1.281    54 H    0.968
                             9 C    0.116
     3   6 C    3.990 --     2 C    1.281     4 C    1.279     8 C    1.249
     4   6 C    3.992 --     5 C    1.559     3 C    1.279    55 H    0.968
                             7 C    0.119
     5   6 C    3.990 --     4 C    1.559     6 C    1.319    56 H    0.971
     6   6 C    3.992 --     7 C    1.560     5 C    1.319    57 H    0.971
     7   6 C    3.990 --     6 C    1.560     8 C    1.276    58 H    0.968
                             4 C    0.119
     8   6 C    3.990 --     9 C    1.287     7 C    1.276     3 C    1.249
     9   6 C    3.990 --    10 C    1.518     8 C    1.287    59 H    0.966
                             2 C    0.116
    10   6 C    3.985 --     9 C    1.518     1 C    1.302    11 C    0.989
    11   6 C    3.962 --    10 C    0.989    40 N    0.960    12 C    0.955
                            60 H    0.948
    12   6 C    3.963 --    13 C    0.990    11 C    0.955    61 H    0.952
                            23 N    0.952
    13   6 C    3.983 --    14 C    1.524    22 C    1.291    12 C    0.990
    14   6 C    3.989 --    13 C    1.524    15 C    1.283    62 H    0.965
                            21 C    0.113
    15   6 C    3.990 --    14 C    1.283    16 C    1.278    20 C    1.251
    16   6 C    3.990 --    17 C    1.558    15 C    1.278    63 H    0.968
                            19 C    0.118
    17   6 C    3.992 --    16 C    1.558    18 C    1.321    64 H    0.971
    18   6 C    3.989 --    19 C    1.556    17 C    1.321    65 H    0.971
    19   6 C    3.992 --    18 C    1.556    20 C    1.282    66 H    0.968
                            16 C    0.118
    20   6 C    3.990 --    19 C    1.282    21 C    1.276    15 C    1.251
    21   6 C    3.991 --    22 C    1.564    20 C    1.276    67 H    0.968
                            14 C    0.113
    22   6 C    3.991 --    21 C    1.564    13 C    1.291    68 H    0.963
    23   7 N    3.434 --    24 C    1.182    36 C    0.984    12 C    0.952
                            35 O    0.181
    24   6 C    3.936 --    35 O    1.690    23 N    1.182    25 C    0.960
    25   6 C    3.982 --    34 C    1.401    26 C    1.380    24 C    0.960
                            32 C    0.108
    26   6 C    3.983 --    31 C    1.413    25 C    1.380    27 C    0.985
                            33 C    0.109
    27   6 C    3.991 --    30 C    0.998    28 C    0.992    26 C    0.985
                            29 C    0.981
    28   6 C    3.996 --    27 C    0.992    70 H    0.983    71 H    0.981
                            69 H    0.969
    29   6 C    3.993 --    73 H    0.987    74 H    0.984    27 C    0.981
                            72 H    0.979
    30   6 C    3.996 --    27 C    0.998    77 H    0.986    75 H    0.984
                            76 H    0.983
    31   6 C    3.991 --    32 C    1.444    26 C    1.413    78 H    0.963
                            34 C    0.109
    32   6 C    3.991 --    31 C    1.444    33 C    1.436    79 H    0.970
                            25 C    0.108
    33   6 C    3.990 --    34 C    1.439    32 C    1.436    80 H    0.969
                            26 C    0.109
    34   6 C    3.991 --    33 C    1.439    25 C    1.401    81 H    0.967
                            31 C    0.109
    35   8 O    2.030 --    24 C    1.690    23 N    0.181
    36   6 C    3.965 --    23 N    0.984    40 N    0.980    82 H    0.943
                            37 C    0.900
    37   6 C    3.923 --    39 O    1.806    38 O    1.144    36 C    0.900
    38   8 O    2.223 --    37 C    1.144    83 H    0.851    39 O    0.170
    39   8 O    2.094 --    37 C    1.806    38 O    0.170
    40   7 N    3.418 --    41 C    1.167    36 C    0.980    11 C    0.960
                            52 O    0.176
    41   6 C    3.936 --    52 O    1.698    40 N    1.167    42 C    0.967
    42   6 C    3.983 --    43 C    1.399    47 C    1.379    41 C    0.967
                            45 C    0.108
    43   6 C    3.991 --    44 C    1.441    42 C    1.399    84 H    0.965
                            46 C    0.108
    44   6 C    3.991 --    43 C    1.441    45 C    1.435    85 H    0.969
                            47 C    0.108
    45   6 C    3.991 --    46 C    1.444    44 C    1.435    86 H    0.970
                            42 C    0.108
    46   6 C    3.991 --    45 C    1.444    47 C    1.414    87 H    0.963
                            43 C    0.108
    47   6 C    3.984 --    46 C    1.414    42 C    1.379    48 C    0.985
                            44 C    0.108
    48   6 C    3.991 --    51 C    0.998    49 C    0.991    47 C    0.985
                            50 C    0.982
    49   6 C    3.997 --    48 C    0.991    89 H    0.983    90 H    0.979
                            88 H    0.975
    50   6 C    3.992 --    92 H    0.986    93 H    0.984    48 C    0.982
                            91 H    0.977
    51   6 C    3.996 --    48 C    0.998    94 H    0.985    96 H    0.984
                            95 H    0.983
    52   8 O    2.029 --    41 C    1.698    40 N    0.176
    53   1 H    0.999 --     1 C    0.960
    54   1 H    0.998 --     2 C    0.968
    55   1 H    0.998 --     4 C    0.968
    56   1 H    0.998 --     5 C    0.971
    57   1 H    0.998 --     6 C    0.971
    58   1 H    0.998 --     7 C    0.968
    59   1 H    0.998 --     9 C    0.966
    60   1 H    0.996 --    11 C    0.948
    61   1 H    0.998 --    12 C    0.952
    62   1 H    0.998 --    14 C    0.965
    63   1 H    0.998 --    16 C    0.968
    64   1 H    0.998 --    17 C    0.971
    65   1 H    0.998 --    18 C    0.971
    66   1 H    0.998 --    19 C    0.968
    67   1 H    0.998 --    21 C    0.968
    68   1 H    0.999 --    22 C    0.963
    69   1 H    0.999 --    28 C    0.969
    70   1 H    0.998 --    28 C    0.983
    71   1 H    0.999 --    28 C    0.981
    72   1 H    0.996 --    29 C    0.979
    73   1 H    0.999 --    29 C    0.987
    74   1 H    0.997 --    29 C    0.984
    75   1 H    0.998 --    30 C    0.984
    76   1 H    0.998 --    30 C    0.983
    77   1 H    0.999 --    30 C    0.986
    78   1 H    0.997 --    31 C    0.963
    79   1 H    0.998 --    32 C    0.970
    80   1 H    0.997 --    33 C    0.969
    81   1 H    0.999 --    34 C    0.967
    82   1 H    0.995 --    36 C    0.943
    83   1 H    0.886 --    38 O    0.851
    84   1 H    0.999 --    43 C    0.965
    85   1 H    0.997 --    44 C    0.969
    86   1 H    0.998 --    45 C    0.970
    87   1 H    0.997 --    46 C    0.963
    88   1 H    0.999 --    49 C    0.975
    89   1 H    0.998 --    49 C    0.983
    90   1 H    0.999 --    49 C    0.979
    91   1 H    0.996 --    50 C    0.977
    92   1 H    0.999 --    50 C    0.986
    93   1 H    0.998 --    50 C    0.984
    94   1 H    0.999 --    51 C    0.985
    95   1 H    0.998 --    51 C    0.983
    96   1 H    0.998 --    51 C    0.984
 ---------------------------------------------------------------------------

molecular dipole:
                 x           y           z       tot (Debye)
 q only:       -0.227       0.503       0.340
   full:       -0.237       0.473       0.337       1.594

           -------------------------------------------------
          | TOTAL ENERGY             -143.118249579995 Eh   |
          | GRADIENT NORM               0.000377183101 Eh/Î± |
          | HOMO-LUMO GAP               3.051712420582 eV   |
           -------------------------------------------------

 * finished run on 2022/03/17 at 01:14:21.857
