   * xtb version 6.3.3 (4ae9cef) compiled by 'conda@95abc7406d43' on 2020-10-14
          program call               : xtb sub_1.xyz --opt --chrg 0 --uhf 0 --gfn 2
          number of atoms            :                    28
          number of electrons        :                    84
          charge                     :                     0
          spin                       :                   0.0

   ID    Z sym.   atoms
    1    9 F      1
    2    6 C      2-9, 11, 13-17
    3    7 N      10, 12
    4    1 H      18-28

          :  Hamiltonian                  GFN2-xTB          :
 * total energy  :   -46.1773201 Eh     change       -0.3382823E-09 Eh
 * total energy  :   -46.1838661 Eh     change       -0.6546028E-02 Eh
 * total energy  :   -46.1852388 Eh     change       -0.1372670E-02 Eh
 * total energy  :   -46.1854110 Eh     change       -0.1721982E-03 Eh
 * total energy  :   -46.1855490 Eh     change       -0.1380351E-03 Eh
 * total energy  :   -46.1856321 Eh     change       -0.8301568E-04 Eh
 * total energy  :   -46.1857346 Eh     change       -0.1025482E-03 Eh
 * total energy  :   -46.1858166 Eh     change       -0.8197732E-04 Eh
 * total energy  :   -46.1858536 Eh     change       -0.3701582E-04 Eh
 * total energy  :   -46.1858807 Eh     change       -0.2706525E-04 Eh
 * total energy  :   -46.1858949 Eh     change       -0.1424393E-04 Eh
 * total energy  :   -46.1859100 Eh     change       -0.1506237E-04 Eh
 * total energy  :   -46.1859253 Eh     change       -0.1533542E-04 Eh
 * total energy  :   -46.1859395 Eh     change       -0.1423458E-04 Eh
 * total energy  :   -46.1859514 Eh     change       -0.1182525E-04 Eh
 * total energy  :   -46.1859580 Eh     change       -0.6662478E-05 Eh
 * total energy  :   -46.1859611 Eh     change       -0.3052970E-05 Eh
   *** GEOMETRY OPTIMIZATION CONVERGED AFTER 17 ITERATIONS ***

 final structure:
================
28
 xtb: 6.3.3 (4ae9cef)
F        -5.26031466108636    0.60095395654456   -0.52186174046235
C        -4.12464740051265    0.11558700713481    0.02649695814862
C        -4.19829856438720   -0.72311407417383    1.11358276900687
C        -3.02848604241547   -1.25220851579266    1.65902882678206
C        -1.78434225044896   -0.93422979071079    1.15525095626975
C        -1.71609500018386   -0.05245569671972    0.08163484925310
C        -2.89196096010898    0.46032146198344   -0.52172522937993
C        -2.48425892135312    1.24418432084704   -1.63883792255489
C        -1.13088686821311    1.18365509731308   -1.68360384001522
N        -0.64595474486434    0.42518882626633   -0.64121116886086
C         0.71482712711216    0.24811231246554   -0.40810051200898
N         1.48649671462091    0.26625631854850   -1.48858722893461
C         2.78862869291422    0.11752152942417   -1.34327964166311
C         3.41931517249670   -0.06223997378504   -0.11764329283505
C         4.90223816297285   -0.22057160267582   -0.01109428278101
C         2.60427965433221   -0.04816666480730    1.01165240381793
C         1.23937203695722    0.11514423647227    0.87866993729288
H        -5.16174336074735   -0.97914914809750    1.52453500492816
H        -3.10463150965045   -1.93216008480295    2.49349634278247
H        -0.89950093031648   -1.38633938083891    1.57360027469211
H        -3.13203023589501    1.77369162929590   -2.30760852165524
H        -0.43885462623642    1.63055024502284   -2.36922216411739
H         3.35911193307695    0.14221627542407   -2.26316872430185
H         5.36279341255045    0.73766995774352    0.23167667656307
H         5.15884767199232   -0.92464133131739    0.77765826444318
H         5.32198958020343   -0.57032115395014   -0.95089324182456
H         3.04238416821028   -0.15192596568849    1.99455154448523
H         0.60172374898000    0.17646820887447    1.74500270292951

          :  Hamiltonian                  GFN2-xTB          :
         :: total energy             -46.185961077274 Eh    ::
         :: gradient norm              0.000283297908 Eh/a0 ::
         :: HOMO-LUMO gap              3.052416896479 eV    ::
         :: SCC energy               -46.929377206214 Eh    ::
         :: -> dispersion             -0.029804925534 Eh    ::
         :: repulsion energy           0.743525766282 Eh    ::

    * Orbital Energies and Occupations

         #    Occupation            Energy/Eh            Energy/eV
      -------------------------------------------------------------
         1        2.0000           -0.8039820             -21.8775
       ...           ...                  ...                  ...
        30        2.0000           -0.4738938             -12.8953
        31        2.0000           -0.4672407             -12.7143
        32        2.0000           -0.4650461             -12.6545
        33        2.0000           -0.4599620             -12.5162
        34        2.0000           -0.4563290             -12.4173
        35        2.0000           -0.4432384             -12.0611
        36        2.0000           -0.4383670             -11.9286
        37        2.0000           -0.4348393             -11.8326
        38        2.0000           -0.4314985             -11.7417
        39        2.0000           -0.4131099             -11.2413
        40        2.0000           -0.3917005             -10.6587
        41        2.0000           -0.3818590             -10.3909
        42        2.0000           -0.3709332             -10.0936 (HOMO)
        43                         -0.2587590              -7.0412 (LUMO)
        44                         -0.2495351              -6.7902
        45                         -0.2350794              -6.3968
        46                         -0.2052700              -5.5857
        47                         -0.1639531              -4.4614
        48                         -0.1144617              -3.1147
        49                         -0.0808627              -2.2004
        50                          0.0128232               0.3489
        51                          0.0635694               1.7298
        52                          0.0906059               2.4655
        53                          0.1120973               3.0503
       ...                                ...                  ...
        79                          0.7248400              19.7239
      -------------------------------------------------------------
                  HL-Gap            0.1121743 Eh            3.0524 eV

     #   Z          covCN         q      C6AA      Î±(0)
     1   9 F        0.786    -0.228    11.532     4.011
     2   6 C        2.776     0.162    24.493     8.106
     3   6 C        2.916    -0.061    29.526     8.910
     4   6 C        2.926    -0.038    28.940     8.822
     5   6 C        2.908    -0.055    29.369     8.886
     6   6 C        3.079     0.037    27.080     8.532
     7   6 C        3.119    -0.022    28.384     8.726
     8   6 C        2.997    -0.060    29.468     8.905
     9   6 C        3.042     0.002    27.947     8.671
    10   7 N        2.836    -0.012    21.490     6.885
    11   6 C        2.904     0.142    24.907     8.183
    12   7 N        1.846    -0.242    27.179     7.726
    13   6 C        2.912     0.052    26.840     8.495
    14   6 C        2.961     0.003    27.957     8.673
    15   6 C        3.757    -0.111    22.672     6.789
    16   6 C        2.935    -0.022    28.557     8.764
    17   6 C        2.913    -0.058    29.445     8.898
    18   1 H        0.926     0.053     2.288     2.365
    19   1 H        0.926     0.040     2.444     2.445
    20   1 H        0.926     0.036     2.497     2.471
    21   1 H        0.926     0.048     2.350     2.397
    22   1 H        0.926     0.059     2.214     2.327
    23   1 H        0.925     0.043     2.414     2.430
    24   1 H        0.924     0.053     2.280     2.361
    25   1 H        0.925     0.049     2.331     2.387
    26   1 H        0.925     0.048     2.350     2.397
    27   1 H        0.926     0.039     2.459     2.452
    28   1 H        0.926     0.045     2.382     2.413

Wiberg/Mayer (AO) data.
largest (>0.10) Wiberg bond orders for each atom

     #   Z sym  total        # sym  WBO       # sym  WBO       # sym  WBO
 ---------------------------------------------------------------------------
     1   9 F    1.087 --     2 C    0.955
     2   6 C    3.883 --     3 C    1.449     7 C    1.302     1 F    0.955
     3   6 C    3.981 --     2 C    1.449     4 C    1.378    18 H    0.968
     4   6 C    3.988 --     5 C    1.483     3 C    1.378    19 H    0.971
     5   6 C    3.986 --     4 C    1.483     6 C    1.347    20 H    0.964
     6   6 C    3.958 --     5 C    1.347     7 C    1.249    10 N    1.139
     7   6 C    3.980 --     2 C    1.302     6 C    1.249     8 C    1.210
     8   6 C    3.973 --     9 C    1.636     7 C    1.210    21 H    0.972
     9   6 C    3.951 --     8 C    1.636    10 N    1.156    22 H    0.966
    10   7 N    3.628 --     9 C    1.156     6 C    1.139    11 C    1.067
    11   6 C    3.969 --    12 N    1.377    17 C    1.347    10 N    1.067
    12   7 N    3.057 --    13 C    1.442    11 C    1.377
    13   6 C    3.980 --    12 N    1.442    14 C    1.397    23 H    0.961
                            17 C    0.109
    14   6 C    3.974 --    13 C    1.397    16 C    1.394    15 C    1.028
    15   6 C    3.995 --    14 C    1.028    26 H    0.983    25 H    0.979
                            24 H    0.966
    16   6 C    3.990 --    17 C    1.469    14 C    1.394    27 H    0.968
    17   6 C    3.987 --    16 C    1.469    11 C    1.347    28 H    0.964
                            13 C    0.109
    18   1 H    0.997 --     3 C    0.968
    19   1 H    0.998 --     4 C    0.971
    20   1 H    0.998 --     5 C    0.964
    21   1 H    0.997 --     8 C    0.972
    22   1 H    0.996 --     9 C    0.966
    23   1 H    0.998 --    13 C    0.961
    24   1 H    0.996 --    15 C    0.966
    25   1 H    0.997 --    15 C    0.979
    26   1 H    0.997 --    15 C    0.983
    27   1 H    0.998 --    16 C    0.968
    28   1 H    0.998 --    17 C    0.964
 ---------------------------------------------------------------------------

molecular dipole:
                 x           y           z       tot (Debye)
 q only:        1.623      -0.178       0.494
   full:        1.915      -0.250       0.868       5.382

           -------------------------------------------------
          | TOTAL ENERGY              -46.185961077274 Eh   |
          | GRADIENT NORM               0.000283297908 Eh/Î± |
          | HOMO-LUMO GAP               3.052416896479 eV   |
           -------------------------------------------------

 * finished run on 2022/03/17 at 02:20:03.487
