   * xtb version 6.3.3 (4ae9cef) compiled by 'conda@95abc7406d43' on 2020-10-14
          program call               : xtb acid_14.xyz --opt --chrg 0 --uhf 0 --gfn 2
          number of atoms            :                    72
          number of electrons        :                   214
          charge                     :                     0
          spin                       :                   0.0

   ID    Z sym.   atoms
    1    6 C      1-14, 16-26, 28, 29, 33-43
    2    7 N      15, 32
    3    8 O      27, 30, 31, 44
    4    1 H      45-72

          :  Hamiltonian                  GFN2-xTB          :
 * total energy  :  -117.7796709 Eh     change       -0.3037314E-08 Eh
 * total energy  :  -117.7966730 Eh     change       -0.1700216E-01 Eh
 * total energy  :  -117.8015778 Eh     change       -0.4904718E-02 Eh
 * total energy  :  -117.8028543 Eh     change       -0.1276559E-02 Eh
 * total energy  :  -117.8036414 Eh     change       -0.7870480E-03 Eh
 * total energy  :  -117.8040050 Eh     change       -0.3636148E-03 Eh
 * total energy  :  -117.8042968 Eh     change       -0.2918652E-03 Eh
 * total energy  :  -117.8045554 Eh     change       -0.2585532E-03 Eh
 * total energy  :  -117.8047901 Eh     change       -0.2346708E-03 Eh
 * total energy  :  -117.8050198 Eh     change       -0.2297714E-03 Eh
 * total energy  :  -117.8075636 Eh     change       -0.3070821E-04 Eh
 * total energy  :  -117.8075945 Eh     change       -0.3088836E-04 Eh
 * total energy  :  -117.8076072 Eh     change       -0.1272904E-04 Eh
 * total energy  :  -117.8076264 Eh     change       -0.1914091E-04 Eh
 * total energy  :  -117.8076352 Eh     change       -0.8826023E-05 Eh
 * total energy  :  -117.8076466 Eh     change       -0.1137368E-04 Eh
 * total energy  :  -117.8076563 Eh     change       -0.9675964E-05 Eh
 * total energy  :  -117.8076656 Eh     change       -0.9293274E-05 Eh
 * total energy  :  -117.8076696 Eh     change       -0.4031307E-05 Eh
   *** GEOMETRY OPTIMIZATION CONVERGED AFTER 44 ITERATIONS ***

 final structure:
================
72
 xtb: 6.3.3 (4ae9cef)
C         2.18228894359055   -4.01945500836802   -1.01027359658820
C         3.40227391710824   -4.59120529506297   -0.69657654066284
C         4.22501795915298   -3.99781797736302    0.24542345742273
C         3.82044159373657   -2.83323019618133    0.87520353690274
C         2.59770839140822   -2.26262494469400    0.56843343596507
C         1.77289137315405   -2.85216548896146   -0.38132488199068
C         0.43678226995870   -2.24193963853169   -0.72600431187600
C        -0.58400008394994   -2.34727966784494    0.41659375682855
C        -1.92279294669710   -2.89263898031369   -0.01859804653101
C        -2.50964516237442   -3.94366115439978    0.67071705689820
C        -3.75468684867165   -4.41737275801286    0.29507145830472
C        -4.42606077520882   -3.84138144479293   -0.76944268466734
C        -3.84742323905136   -2.78965169746356   -1.45989445568293
C        -2.60218254617415   -2.31724284370196   -1.08691115373272
N        -0.73769424052278   -0.97361602318792    0.88574302380879
C        -1.30942659459831   -0.72258557486418    2.09429569695285
C        -1.48263600287737    0.72953208573416    2.40296652208127
C        -2.42590784596778    1.50105250812094    1.67712149833028
C        -3.27248216359475    0.93841421691558    0.69780209731859
C        -4.14593403487519    1.72398812887451   -0.00161698031030
C        -4.22015602719361    3.10281868647824    0.24825495501772
C        -3.43453032593833    3.67036008879502    1.21127663294069
C        -2.52538826795436    2.88941693480510    1.95478457343806
C        -1.71806654543374    3.44794151345426    2.96822462049541
C        -0.85919082437969    2.66683303720124    3.69018507757718
C        -0.74169864260082    1.29833888997651    3.40830760752037
O        -1.64086708487697   -1.61700765600371    2.84165979067299
C        -0.21786076415874   -0.00464019408279   -0.04396786691693
C         0.65930724589996    1.04028139274459    0.67662944808948
O         0.23551894035030    2.27783720310847    0.43603949851882
O         1.60745106695576    0.77919342257349    1.36125475800435
N         0.54186825939949   -0.80708625089238   -0.97379059992828
C         1.24850403422425   -0.35428501057868   -2.04301089192525
C         1.32651851502045    1.13722404471168   -2.13373148123089
C         0.31495610151839    1.85625664664026   -2.71644265768981
C         0.38951425961585    3.25411337107252   -2.79268194522814
C         1.46962690572496    3.91534161139132   -2.27971564460468
C         2.53485251309011    3.20793408920955   -1.68395736240522
C         2.47417437378531    1.79054745471996   -1.61931131642327
C         3.54174168749455    1.08183586737468   -1.02817666907276
C         4.61566727626618    1.75120629860318   -0.51257493630628
C         4.67434441127589    3.15271664710156   -0.56637632548614
C         3.66007294707108    3.86488066117328   -1.14224196919776
O         1.76286538388583   -1.11196343855740   -2.83644533672304
H         1.54606442754012   -4.47690419388033   -1.75367634845377
H         3.71377039584300   -5.49782110615064   -1.19388146742711
H         5.18047981549825   -4.44052002465623    0.48572853384165
H         4.45803745130207   -2.36384194371890    1.60981284384797
H         2.29284499505004   -1.35287891773201    1.06300947683453
H         0.05770291629294   -2.72373928039871   -1.63590989921562
H        -0.19735090914146   -2.95074021174263    1.24512094341169
H        -1.99309659113058   -4.38142551388531    1.51098091841711
H        -4.20367171272804   -5.23494967931909    0.83883619157955
H        -5.39906324944034   -4.20842027206510   -1.06030170993357
H        -4.36732481460919   -2.33510400896706   -2.29054805745412
H        -2.15627053620971   -1.49770767516007   -1.63322499727335
H        -3.24004960390497   -0.12801533767989    0.52370171275722
H        -4.79053695659384    1.28406823174738   -0.74832076663341
H        -4.91318300494456    3.70774411855608   -0.31763410298870
H        -3.50233186312297    4.72765146161827    1.42415169671606
H        -1.80075183585098    4.50638673908967    3.17067414239247
H        -0.25715159894035    3.09590558875358    4.47726023838548
H        -0.04609380308077    0.69042541938335    3.96685242876536
H        -1.02151738941524    0.55392893418738   -0.56012421449333
H         0.79826587492455    2.93236660073490    0.88128098768027
H        -0.54600519713063    1.34607025477668   -3.12428820976040
H        -0.41831011195835    3.80076201376079   -3.25540269692228
H         1.52687550744443    4.99349287596683   -2.32756381257907
H         3.50062630684138    0.00343040851202   -0.99396693462393
H         5.42773228197272    1.20319434427882   -0.05954050193277
H         5.53108313424971    3.66367399425125   -0.15204992652406
H         3.70346966866814    4.94375662282616   -1.19389631630901

          :  Hamiltonian                  GFN2-xTB          :
         :: total energy            -117.807669589858 Eh    ::
         :: gradient norm              0.000381765402 Eh/a0 ::
         :: HOMO-LUMO gap              2.914908843814 eV    ::
         :: SCC energy              -119.749553037565 Eh    ::
         :: -> dispersion             -0.110167531579 Eh    ::
         :: repulsion energy           1.937009612545 Eh    ::

    * Orbital Energies and Occupations

         #    Occupation            Energy/Eh            Energy/eV
      -------------------------------------------------------------
         1        2.0000           -0.7774098             -21.1544
       ...           ...                  ...                  ...
        95        2.0000           -0.4189423             -11.4000
        96        2.0000           -0.4153837             -11.3032
        97        2.0000           -0.4148349             -11.2882
        98        2.0000           -0.4122175             -11.2170
        99        2.0000           -0.4118692             -11.2075
       100        2.0000           -0.4067142             -11.0673
       101        2.0000           -0.4057287             -11.0404
       102        2.0000           -0.4021763             -10.9438
       103        2.0000           -0.3975260             -10.8172
       104        2.0000           -0.3950701             -10.7504
       105        2.0000           -0.3927268             -10.6866
       106        2.0000           -0.3916969             -10.6586
       107        2.0000           -0.3888184             -10.5803 (HOMO)
       108                         -0.2816975              -7.6654 (LUMO)
       109                         -0.2741639              -7.4604
       110                         -0.2646752              -7.2022
       111                         -0.2431621              -6.6168
       112                         -0.2394189              -6.5149
       113                         -0.2360645              -6.4236
       114                         -0.2305624              -6.2739
       115                         -0.2241396              -6.0991
       116                         -0.2227492              -6.0613
       117                         -0.2205356              -6.0011
       118                         -0.2192018              -5.9648
       ...                                ...                  ...
       204                          0.6843934              18.6233
      -------------------------------------------------------------
                  HL-Gap            0.1071209 Eh            2.9149 eV

     #   Z          covCN         q      C6AA      Î±(0)
     1   6 C        2.924    -0.029    28.735     8.791
     2   6 C        2.920    -0.026    28.663     8.779
     3   6 C        2.920    -0.029    28.726     8.789
     4   6 C        2.920    -0.027    28.676     8.781
     5   6 C        2.923    -0.037    28.917     8.819
     6   6 C        2.973     0.006    27.887     8.662
     7   6 C        3.820     0.044    19.827     6.337
     8   6 C        3.823     0.042    19.858     6.341
     9   6 C        2.973     0.003    27.957     8.673
    10   6 C        2.924    -0.027    28.674     8.781
    11   6 C        2.920    -0.025    28.627     8.774
    12   6 C        2.920    -0.028    28.712     8.787
    13   6 C        2.919    -0.029    28.720     8.788
    14   6 C        2.924    -0.034    28.852     8.809
    15   7 N        2.769    -0.113    23.467     7.195
    16   6 C        2.763     0.272    22.406     7.752
    17   6 C        2.974    -0.029    28.717     8.790
    18   6 C        2.988     0.012    27.749     8.641
    19   6 C        2.917    -0.036    28.902     8.816
    20   6 C        2.916    -0.027    28.679     8.782
    21   6 C        2.915    -0.028    28.697     8.784
    22   6 C        2.919    -0.033    28.821     8.804
    23   6 C        2.986     0.016    27.638     8.624
    24   6 C        2.918    -0.036    28.892     8.814
    25   6 C        2.915    -0.031    28.783     8.797
    26   6 C        2.920    -0.023    28.580     8.767
    27   8 O        0.859    -0.416    21.999     6.289
    28   6 C        3.744     0.096    19.070     6.229
    29   6 C        2.687     0.354    20.995     7.499
    30   8 O        1.659    -0.369    20.256     6.076
    31   8 O        0.856    -0.381    21.307     6.189
    32   7 N        2.768    -0.116    23.516     7.202
    33   6 C        2.764     0.272    22.395     7.750
    34   6 C        2.975    -0.028    28.692     8.786
    35   6 C        2.919    -0.028    28.707     8.786
    36   6 C        2.915    -0.028    28.706     8.786
    37   6 C        2.918    -0.036    28.897     8.815
    38   6 C        2.986     0.011    27.757     8.642
    39   6 C        2.989     0.012    27.730     8.638
    40   6 C        2.917    -0.027    28.680     8.782
    41   6 C        2.917    -0.024    28.600     8.770
    42   6 C        2.915    -0.027    28.688     8.783
    43   6 C        2.918    -0.038    28.949     8.823
    44   8 O        0.859    -0.415    21.989     6.287
    45   1 H        0.926     0.035     2.514     2.479
    46   1 H        0.926     0.036     2.503     2.474
    47   1 H        0.926     0.034     2.531     2.488
    48   1 H        0.926     0.036     2.506     2.475
    49   1 H        0.926     0.053     2.283     2.363
    50   1 H        0.924     0.065     2.144     2.290
    51   1 H        0.924     0.072     2.061     2.245
    52   1 H        0.926     0.048     2.350     2.397
    53   1 H        0.926     0.040     2.445     2.445
    54   1 H        0.926     0.037     2.495     2.470
    55   1 H        0.926     0.034     2.528     2.486
    56   1 H        0.926     0.026     2.644     2.543
    57   1 H        0.926     0.032     2.558     2.501
    58   1 H        0.926     0.036     2.504     2.475
    59   1 H        0.926     0.037     2.492     2.469
    60   1 H        0.926     0.037     2.488     2.467
    61   1 H        0.926     0.038     2.472     2.459
    62   1 H        0.926     0.040     2.443     2.444
    63   1 H        0.926     0.049     2.335     2.390
    64   1 H        0.922     0.055     2.255     2.348
    65   1 H        0.804     0.345     0.601     1.218
    66   1 H        0.926     0.031     2.573     2.508
    67   1 H        0.926     0.038     2.470     2.457
    68   1 H        0.926     0.037     2.487     2.466
    69   1 H        0.926     0.042     2.421     2.433
    70   1 H        0.926     0.040     2.446     2.446
    71   1 H        0.926     0.036     2.502     2.474
    72   1 H        0.926     0.034     2.534     2.489

Wiberg/Mayer (AO) data.
largest (>0.10) Wiberg bond orders for each atom

     #   Z sym  total        # sym  WBO       # sym  WBO       # sym  WBO
 ---------------------------------------------------------------------------
     1   6 C    3.990 --     2 C    1.443     6 C    1.414    45 H    0.968
                             4 C    0.111
     2   6 C    3.992 --     1 C    1.443     3 C    1.439    46 H    0.971
                             5 C    0.112
     3   6 C    3.991 --     2 C    1.439     4 C    1.439    47 H    0.971
                             6 C    0.109
     4   6 C    3.992 --     5 C    1.444     3 C    1.439    48 H    0.971
                             1 C    0.111
     5   6 C    3.989 --     4 C    1.444     6 C    1.413    49 H    0.962
                             2 C    0.112
     6   6 C    3.985 --     1 C    1.414     5 C    1.413     7 C    0.986
                             3 C    0.109
     7   6 C    3.959 --     6 C    0.986     8 C    0.962    50 H    0.953
                            32 N    0.951
     8   6 C    3.959 --     9 C    0.985     7 C    0.962    51 H    0.954
                            15 N    0.949
     9   6 C    3.985 --    10 C    1.417    14 C    1.409     8 C    0.985
                            12 C    0.110
    10   6 C    3.989 --    11 C    1.440     9 C    1.417    52 H    0.967
                            13 C    0.111
    11   6 C    3.991 --    12 C    1.442    10 C    1.440    53 H    0.970
                            14 C    0.112
    12   6 C    3.991 --    11 C    1.442    13 C    1.435    54 H    0.971
                             9 C    0.110
    13   6 C    3.992 --    14 C    1.448    12 C    1.435    55 H    0.971
                            10 C    0.111
    14   6 C    3.992 --    13 C    1.448     9 C    1.409    56 H    0.968
                            11 C    0.112
    15   7 N    3.462 --    16 C    1.201    28 C    0.989     8 C    0.949
                            27 O    0.191
    16   6 C    3.946 --    27 O    1.697    15 N    1.201    17 C    0.961
    17   6 C    3.987 --    26 C    1.513    18 C    1.245    16 C    0.961
                            24 C    0.114
    18   6 C    3.989 --    19 C    1.281    23 C    1.254    17 C    1.245
    19   6 C    3.992 --    20 C    1.554    18 C    1.281    57 H    0.964
                            22 C    0.118
    20   6 C    3.992 --    19 C    1.554    21 C    1.322    58 H    0.971
    21   6 C    3.992 --    22 C    1.557    20 C    1.322    59 H    0.971
    22   6 C    3.991 --    21 C    1.557    23 C    1.279    60 H    0.968
                            19 C    0.118
    23   6 C    3.990 --    22 C    1.279    24 C    1.277    18 C    1.254
    24   6 C    3.991 --    25 C    1.554    23 C    1.277    61 H    0.968
                            17 C    0.114
    25   6 C    3.991 --    24 C    1.554    26 C    1.325    62 H    0.970
    26   6 C    3.989 --    17 C    1.513    25 C    1.325    63 H    0.969
    27   8 O    2.024 --    16 C    1.697    15 N    0.191
    28   6 C    3.973 --    15 N    0.989    32 N    0.985    64 H    0.938
                            29 C    0.910
    29   6 C    3.918 --    31 O    1.775    30 O    1.151    28 C    0.910
    30   8 O    2.215 --    29 C    1.151    65 H    0.854    31 O    0.179
    31   8 O    2.069 --    29 C    1.775    30 O    0.179
    32   7 N    3.462 --    33 C    1.205    28 C    0.985     7 C    0.951
                            44 O    0.192
    33   6 C    3.945 --    44 O    1.699    32 N    1.205    34 C    0.954
    34   6 C    3.987 --    35 C    1.520    39 C    1.247    33 C    0.954
                            37 C    0.115
    35   6 C    3.991 --    34 C    1.520    36 C    1.324    66 H    0.970
    36   6 C    3.991 --    37 C    1.553    35 C    1.324    67 H    0.970
    37   6 C    3.991 --    36 C    1.553    38 C    1.280    68 H    0.968
                            34 C    0.115
    38   6 C    3.990 --    37 C    1.280    43 C    1.278    39 C    1.252
    39   6 C    3.989 --    40 C    1.281    38 C    1.252    34 C    1.247
    40   6 C    3.991 --    41 C    1.556    39 C    1.281    69 H    0.964
                            43 C    0.119
    41   6 C    3.992 --    40 C    1.556    42 C    1.321    70 H    0.970
    42   6 C    3.992 --    43 C    1.558    41 C    1.321    71 H    0.971
    43   6 C    3.991 --    42 C    1.558    38 C    1.278    72 H    0.968
                            40 C    0.119
    44   8 O    2.026 --    33 C    1.699    32 N    0.192
    45   1 H    0.999 --     1 C    0.968
    46   1 H    0.998 --     2 C    0.971
    47   1 H    0.998 --     3 C    0.971
    48   1 H    0.998 --     4 C    0.971
    49   1 H    0.997 --     5 C    0.962
    50   1 H    0.995 --     7 C    0.953
    51   1 H    0.994 --     8 C    0.954
    52   1 H    0.998 --    10 C    0.967
    53   1 H    0.998 --    11 C    0.970
    54   1 H    0.998 --    12 C    0.971
    55   1 H    0.998 --    13 C    0.971
    56   1 H    0.999 --    14 C    0.968
    57   1 H    0.999 --    19 C    0.964
    58   1 H    0.998 --    20 C    0.971
    59   1 H    0.998 --    21 C    0.971
    60   1 H    0.998 --    22 C    0.968
    61   1 H    0.998 --    24 C    0.968
    62   1 H    0.997 --    25 C    0.970
    63   1 H    0.997 --    26 C    0.969
    64   1 H    0.997 --    28 C    0.938
    65   1 H    0.880 --    30 O    0.854
    66   1 H    0.999 --    35 C    0.970
    67   1 H    0.997 --    36 C    0.970
    68   1 H    0.998 --    37 C    0.968
    69   1 H    0.998 --    40 C    0.964
    70   1 H    0.998 --    41 C    0.970
    71   1 H    0.998 --    42 C    0.971
    72   1 H    0.998 --    43 C    0.968
 ---------------------------------------------------------------------------

molecular dipole:
                 x           y           z       tot (Debye)
 q only:       -0.517       1.345      -0.082
   full:       -0.608       1.790      -0.106       4.813

           -------------------------------------------------
          | TOTAL ENERGY             -117.807669589858 Eh   |
          | GRADIENT NORM               0.000381765402 Eh/Î± |
          | HOMO-LUMO GAP               2.914908843814 eV   |
           -------------------------------------------------

 * finished run on 2022/03/16 at 21:47:31.100
