   * xtb version 6.3.3 (4ae9cef) compiled by 'conda@95abc7406d43' on 2020-10-14
          program call               : xtb acid_201.xyz --opt --chrg 0 --uhf 0 --gfn 2
          number of atoms            :                    62
          number of electrons        :                   194
          charge                     :                     0
          spin                       :                   0.0

   ID    Z sym.   atoms
    1    6 C      1, 3-16, 18, 20-22, 24, 25, 27, 28, 32-34, 36, 37
    2    8 O      2, 17, 26, 29, 30, 38
    3    7 N      19, 31
    4   16 S      23, 35
    5    1 H      39-62

          :  Hamiltonian                  GFN2-xTB          :
 * total energy  :  -108.9314578 Eh     change       -0.3600931E-08 Eh
 * total energy  :  -108.9439894 Eh     change       -0.1253154E-01 Eh
 * total energy  :  -108.9480243 Eh     change       -0.4034903E-02 Eh
 * total energy  :  -108.9493807 Eh     change       -0.1356484E-02 Eh
 * total energy  :  -108.9501575 Eh     change       -0.7767782E-03 Eh
 * total energy  :  -108.9506249 Eh     change       -0.4673559E-03 Eh
 * total energy  :  -108.9510068 Eh     change       -0.3819768E-03 Eh
 * total energy  :  -108.9513290 Eh     change       -0.3221423E-03 Eh
 * total energy  :  -108.9516025 Eh     change       -0.2735547E-03 Eh
 * total energy  :  -108.9518228 Eh     change       -0.2202785E-03 Eh
 * total energy  :  -108.9575472 Eh     change       -0.1913711E-04 Eh
 * total energy  :  -108.9575590 Eh     change       -0.1176913E-04 Eh
 * total energy  :  -108.9575593 Eh     change       -0.2892372E-06 Eh
 * total energy  :  -108.9575664 Eh     change       -0.7173575E-05 Eh
 * total energy  :  -108.9575761 Eh     change       -0.9669713E-05 Eh
 * total energy  :  -108.9575820 Eh     change       -0.5932623E-05 Eh
 * total energy  :  -108.9575907 Eh     change       -0.8653250E-05 Eh
 * total energy  :  -108.9575981 Eh     change       -0.7461464E-05 Eh
 * total energy  :  -108.9576024 Eh     change       -0.4291220E-05 Eh
   *** GEOMETRY OPTIMIZATION CONVERGED AFTER 71 ITERATIONS ***

 final structure:
================
62
 xtb: 6.3.3 (4ae9cef)
C        -1.13583055198138   -3.35970236672063   -0.33269772436707
O        -1.84508746004186   -2.94140691888352   -1.42030346603211
C        -2.66794356130197   -3.86815507380010   -2.08456481296347
C        -1.20490843168904   -4.63644077352601    0.21078497026311
C        -0.46399155729022   -4.95482414931692    1.33688445878862
C         0.34263147017952   -4.00849129003538    1.93864125788705
C         0.41802671738887   -2.73493139735748    1.40058915739503
C        -0.30052939673533   -2.40567706457971    0.26491271632187
C        -0.23730444014443   -1.02200911488034   -0.32630811424462
C        -1.12981123153160   -0.03336991594530    0.44492267084195
C        -2.32089555585791    0.40335678105238   -0.36526091939680
C        -3.58219879577617   -0.06508960168900   -0.04476093239318
C        -4.68903769465863    0.29267490938132   -0.79465973221032
C        -4.53158848697520    1.13918937596145   -1.87421617251486
C        -3.27755304412036    1.61972279420816   -2.21250773486895
C        -2.16300736836031    1.25179348745444   -1.47049964792960
O        -0.88663513985006    1.66266548637664   -1.74816132814492
C        -0.68343447658459    2.52876931521590   -2.83674622292890
N        -0.24461747663418    1.07305747565250    0.77669756139481
C        -0.70752439588027    2.12452640424000    1.49543899163379
C         0.29672791598449    3.19777801143837    1.74744400394542
C         0.80814662208184    4.01927336259864    0.79059257524383
S         1.89551232927292    5.17606900838693    1.44300484907820
C         1.65747647174868    4.55247850537019    3.02674723050430
C         0.78089129799360    3.51828978786058    3.04308648941983
O        -1.84804398621825    2.18350356058613    1.90165357472893
C         1.11712111255478    0.86099445350699    0.35939928279843
C         2.06260659824797    0.88480770975418    1.57823227656083
O         2.99007733647779    1.83371018999135    1.46700231154562
O         1.97365569118947    0.14729364471258    2.51817555740022
N         1.09493408429427   -0.44326907995808   -0.25116109274826
C         2.15682703450209   -1.07872771919188   -0.80449812930207
C         3.46269660785121   -0.38523002122626   -0.59191691474514
C         3.92003222273259    0.67592628749093   -1.30879968422950
S         5.48082131658054    1.17865376252305   -0.79783718847528
C         5.52395824520593   -0.05991221295648    0.39271805151802
C         4.39844073277322   -0.81611975972473    0.38585947604158
O         2.05768734977440   -2.13321100354405   -1.39146051042354
H        -2.09135592282551   -4.71367897583566   -2.47251615510867
H        -3.46575471276749   -4.23725120362402   -1.43192741533937
H        -3.11088057636756   -3.32150950261757   -2.91587206756849
H        -1.83114393080848   -5.39253741020285   -0.23560949054492
H        -0.52661401219220   -5.95321573223863    1.74396408560727
H         0.91161180158711   -4.25713164454498    2.82112587607672
H         1.04179452355001   -1.98720090178151    1.86789470996333
H        -0.54228901358638   -1.07951393601796   -1.37739011601125
H        -1.48769437347333   -0.48666875573740    1.37826952908439
H        -3.69437662991848   -0.71674824472107    0.80833458283618
H        -5.66637582743311   -0.08140063410285   -0.53210079615519
H        -5.38608423735265    1.43504265583589   -2.46451319929573
H        -3.18246707945124    2.28015397949010   -3.05983028796392
H        -1.21053944007328    3.47893653785461   -2.70054498732800
H        -0.99554502679216    2.07194411850944   -3.78112059918549
H         0.38991852248334    2.71485822249124   -2.87235887982238
H         0.59519117894148    4.02468447704393   -0.25957685578109
H         2.17630231218439    4.99748285065968    3.85218433782896
H         0.48274313174490    2.98665206392847    3.92831026125769
H         1.45217410677529    1.63494255217111   -0.34947049291162
H         3.57764941505734    1.84350318099262    2.24089136466628
H         3.43924756110076    1.18715108538761   -2.11869599243904
H         6.38639425514601   -0.15854338459963    1.02133719427690
H         4.21976786925433   -1.64791624876369    1.04278425844792

          :  Hamiltonian                  GFN2-xTB          :
         :: total energy            -108.957602436392 Eh    ::
         :: gradient norm              0.000435045843 Eh/a0 ::
         :: HOMO-LUMO gap              2.764302895036 eV    ::
         :: SCC energy              -110.415760445744 Eh    ::
         :: -> dispersion             -0.092648702826 Eh    ::
         :: repulsion energy           1.454993406187 Eh    ::

    * Orbital Energies and Occupations

         #    Occupation            Energy/Eh            Energy/eV
      -------------------------------------------------------------
         1        2.0000           -0.7776915             -21.1621
       ...           ...                  ...                  ...
        85        2.0000           -0.4220500             -11.4846
        86        2.0000           -0.4126549             -11.2289
        87        2.0000           -0.4097469             -11.1498
        88        2.0000           -0.4088933             -11.1266
        89        2.0000           -0.4082548             -11.1092
        90        2.0000           -0.4075772             -11.0907
        91        2.0000           -0.4036691             -10.9844
        92        2.0000           -0.4011887             -10.9169
        93        2.0000           -0.3973316             -10.8119
        94        2.0000           -0.3963844             -10.7862
        95        2.0000           -0.3921871             -10.6720
        96        2.0000           -0.3846005             -10.4655
        97        2.0000           -0.3758487             -10.2274 (HOMO)
        98                         -0.2742625              -7.4631 (LUMO)
        99                         -0.2588700              -7.0442
       100                         -0.2538132              -6.9066
       101                         -0.2312707              -6.2932
       102                         -0.2260316              -6.1506
       103                         -0.2243264              -6.1042
       104                         -0.2212226              -6.0198
       105                         -0.2178459              -5.9279
       106                         -0.2112891              -5.7495
       107                         -0.2071945              -5.6380
       108                         -0.2059731              -5.6048
       ...                                ...                  ...
       186                          0.6902533              18.7827
      -------------------------------------------------------------
                  HL-Gap            0.1015863 Eh            2.7643 eV

     #   Z          covCN         q      C6AA      Î±(0)
     1   6 C        2.868     0.142    24.910     8.181
     2   8 O        1.705    -0.275    18.555     5.816
     3   6 C        3.644     0.038    20.275     6.473
     4   6 C        2.918    -0.065    29.609     8.923
     5   6 C        2.921    -0.031    28.777     8.797
     6   6 C        2.918    -0.039    28.965     8.826
     7   6 C        2.923    -0.033    28.825     8.804
     8   6 C        2.974    -0.012    28.309     8.727
     9   6 C        3.823     0.047    19.767     6.327
    10   6 C        3.823     0.051    19.711     6.318
    11   6 C        2.972    -0.007    28.201     8.711
    12   6 C        2.926    -0.026    28.643     8.777
    13   6 C        2.918    -0.037    28.917     8.818
    14   6 C        2.921    -0.031    28.762     8.795
    15   6 C        2.918    -0.065    29.606     8.923
    16   6 C        2.867     0.141    24.921     8.183
    17   8 O        1.705    -0.282    18.686     5.836
    18   6 C        3.643     0.043    20.189     6.459
    19   7 N        2.766    -0.099    23.168     7.149
    20   6 C        2.761     0.273    22.388     7.749
    21   6 C        3.174    -0.034    28.448     8.711
    22   6 C        2.943    -0.025    28.636     8.777
    23  16 S        2.308     0.007   140.771    19.969
    24   6 C        2.940    -0.025    28.636     8.777
    25   6 C        3.119    -0.040    28.827     8.794
    26   8 O        0.859    -0.414    21.971     6.284
    27   6 C        3.748     0.090    19.146     6.241
    28   6 C        2.688     0.352    21.027     7.505
    29   8 O        1.659    -0.368    20.243     6.074
    30   8 O        0.856    -0.378    21.256     6.181
    31   7 N        2.766    -0.103    23.265     7.164
    32   6 C        2.760     0.273    22.386     7.748
    33   6 C        3.174    -0.035    28.465     8.714
    34   6 C        2.942    -0.025    28.628     8.775
    35  16 S        2.308     0.007   140.771    19.969
    36   6 C        2.940    -0.026    28.653     8.779
    37   6 C        3.119    -0.041    28.844     8.796
    38   8 O        0.859    -0.410    21.887     6.272
    39   1 H        0.924     0.046     2.374     2.409
    40   1 H        0.924     0.041     2.437     2.441
    41   1 H        0.925     0.061     2.189     2.314
    42   1 H        0.926     0.039     2.459     2.452
    43   1 H        0.926     0.038     2.479     2.462
    44   1 H        0.926     0.039     2.463     2.454
    45   1 H        0.926     0.053     2.287     2.365
    46   1 H        0.924     0.079     1.987     2.204
    47   1 H        0.924     0.065     2.136     2.286
    48   1 H        0.926     0.045     2.379     2.412
    49   1 H        0.926     0.042     2.426     2.436
    50   1 H        0.926     0.040     2.454     2.450
    51   1 H        0.926     0.039     2.461     2.453
    52   1 H        0.924     0.041     2.440     2.443
    53   1 H        0.924     0.043     2.406     2.426
    54   1 H        0.925     0.052     2.295     2.369
    55   1 H        0.926     0.046     2.375     2.410
    56   1 H        0.926     0.051     2.304     2.373
    57   1 H        0.926     0.050     2.321     2.382
    58   1 H        0.923     0.065     2.137     2.286
    59   1 H        0.804     0.344     0.602     1.218
    60   1 H        0.926     0.044     2.396     2.420
    61   1 H        0.926     0.052     2.300     2.372
    62   1 H        0.926     0.050     2.325     2.384

Wiberg/Mayer (AO) data.
largest (>0.10) Wiberg bond orders for each atom

     #   Z sym  total        # sym  WBO       # sym  WBO       # sym  WBO
 ---------------------------------------------------------------------------
     1   6 C    3.934 --     4 C    1.382     8 C    1.324     2 O    1.058
     2   8 O    2.229 --     1 C    1.058     3 C    0.983
     3   6 C    3.945 --     2 O    0.983    41 H    0.980    39 H    0.976
                            40 H    0.976
     4   6 C    3.987 --     5 C    1.434     1 C    1.382    42 H    0.966
                             7 C    0.103
     5   6 C    3.990 --     6 C    1.445     4 C    1.434    43 H    0.971
                             8 C    0.106
     6   6 C    3.991 --     5 C    1.445     7 C    1.425    44 H    0.971
     7   6 C    3.989 --     8 C    1.439     6 C    1.425    45 H    0.963
                             4 C    0.103
     8   6 C    3.982 --     7 C    1.439     1 C    1.324     9 C    0.990
                             5 C    0.106
     9   6 C    3.958 --     8 C    0.990    31 N    0.954    10 C    0.954
                            46 H    0.948
    10   6 C    3.961 --    11 C    0.991    19 N    0.954     9 C    0.954
                            47 H    0.953
    11   6 C    3.983 --    12 C    1.436    16 C    1.328    10 C    0.991
                            14 C    0.107
    12   6 C    3.988 --    11 C    1.436    13 C    1.426    48 H    0.967
                            15 C    0.103
    13   6 C    3.991 --    14 C    1.446    12 C    1.426    49 H    0.970
    14   6 C    3.990 --    13 C    1.446    15 C    1.432    50 H    0.971
                            11 C    0.107
    15   6 C    3.987 --    14 C    1.432    16 C    1.387    51 H    0.965
                            12 C    0.103
    16   6 C    3.932 --    15 C    1.387    11 C    1.328    17 O    1.047
    17   8 O    2.215 --    16 C    1.047    18 C    0.986
    18   6 C    3.948 --    17 O    0.986    54 H    0.980    52 H    0.976
                            53 H    0.976
    19   7 N    3.478 --    20 C    1.214    27 C    0.987    10 C    0.954
                            26 O    0.194
    20   6 C    3.950 --    26 O    1.691    19 N    1.214    21 C    0.957
    21   6 C    3.983 --    22 C    1.589    25 C    1.238    20 C    0.957
    22   6 C    3.951 --    21 C    1.589    23 S    1.203    55 H    0.970
                            24 C    0.115
    23  16 S    2.653 --    22 C    1.203    24 C    1.197
    24   6 C    3.950 --    25 C    1.637    23 S    1.197    56 H    0.970
                            22 C    0.115
    25   6 C    3.987 --    24 C    1.637    21 C    1.238    57 H    0.964
    26   8 O    2.029 --    20 C    1.691    19 N    0.194
    27   6 C    3.972 --    31 N    0.987    19 N    0.987    58 H    0.942
                            28 C    0.909
    28   6 C    3.919 --    30 O    1.782    29 O    1.149    27 C    0.909
    29   8 O    2.214 --    28 C    1.149    59 H    0.855    30 O    0.181
    30   8 O    2.070 --    28 C    1.782    29 O    0.181
    31   7 N    3.475 --    32 C    1.214    27 C    0.987     9 C    0.954
                            38 O    0.196
    32   6 C    3.950 --    38 O    1.698    31 N    1.214    33 C    0.950
    33   6 C    3.984 --    34 C    1.596    37 C    1.235    32 C    0.950
    34   6 C    3.951 --    33 C    1.596    35 S    1.199    60 H    0.971
                            36 C    0.115
    35  16 S    2.651 --    34 C    1.199    36 C    1.198
    36   6 C    3.950 --    37 C    1.636    35 S    1.198    61 H    0.970
                            34 C    0.115
    37   6 C    3.987 --    36 C    1.636    33 C    1.235    62 H    0.964
    38   8 O    2.034 --    32 C    1.698    31 N    0.196
    39   1 H    0.998 --     3 C    0.976
    40   1 H    0.998 --     3 C    0.976
    41   1 H    0.996 --     3 C    0.980
    42   1 H    0.998 --     4 C    0.966
    43   1 H    0.998 --     5 C    0.971
    44   1 H    0.998 --     6 C    0.971
    45   1 H    0.997 --     7 C    0.963
    46   1 H    0.993 --     9 C    0.948
    47   1 H    0.995 --    10 C    0.953
    48   1 H    0.997 --    12 C    0.967
    49   1 H    0.998 --    13 C    0.970
    50   1 H    0.998 --    14 C    0.971
    51   1 H    0.998 --    15 C    0.965
    52   1 H    0.998 --    18 C    0.976
    53   1 H    0.998 --    18 C    0.976
    54   1 H    0.997 --    18 C    0.980
    55   1 H    0.998 --    22 C    0.970
    56   1 H    0.997 --    24 C    0.970
    57   1 H    0.998 --    25 C    0.964
    58   1 H    0.995 --    27 C    0.942
    59   1 H    0.880 --    29 O    0.855
    60   1 H    0.998 --    34 C    0.971
    61   1 H    0.996 --    36 C    0.970
    62   1 H    0.998 --    37 C    0.964
 ---------------------------------------------------------------------------

molecular dipole:
                 x           y           z       tot (Debye)
 q only:        0.378       0.662      -0.628
   full:        0.292       0.514      -0.591       2.124

           -------------------------------------------------
          | TOTAL ENERGY             -108.957602436392 Eh   |
          | GRADIENT NORM               0.000435045843 Eh/Î± |
          | HOMO-LUMO GAP               2.764302895036 eV   |
           -------------------------------------------------

 * finished run on 2022/03/16 at 22:27:16.625
