   * xtb version 6.3.3 (4ae9cef) compiled by 'conda@95abc7406d43' on 2020-10-14
          program call               : xtb acid_84.xyz --opt --chrg 0 --uhf 0 --gfn 2
          number of atoms            :                    72
          number of electrons        :                   234
          charge                     :                     0
          spin                       :                   0.0

   ID    Z sym.   atoms
    1    6 C      1, 3-16, 18, 20-25, 29, 31, 32, 36-39, 43-45
    2    8 O      2, 17, 27, 28, 30, 33, 34, 41, 42, 46
    3    7 N      19, 26, 35, 40
    4    1 H      47-72

          :  Hamiltonian                  GFN2-xTB          :
 * total energy  :  -133.9572589 Eh     change       -0.2269616E-08 Eh
 * total energy  :  -133.9761029 Eh     change       -0.1884400E-01 Eh
 * total energy  :  -133.9810777 Eh     change       -0.4974794E-02 Eh
 * total energy  :  -133.9825577 Eh     change       -0.1479989E-02 Eh
 * total energy  :  -133.9836403 Eh     change       -0.1082565E-02 Eh
 * total energy  :  -133.9844936 Eh     change       -0.8533626E-03 Eh
 * total energy  :  -133.9852917 Eh     change       -0.7980237E-03 Eh
 * total energy  :  -133.9862203 Eh     change       -0.9286609E-03 Eh
 * total energy  :  -133.9870886 Eh     change       -0.8682440E-03 Eh
 * total energy  :  -133.9878293 Eh     change       -0.7407270E-03 Eh
 * total energy  :  -133.9932305 Eh     change       -0.2220621E-04 Eh
 * total energy  :  -133.9932438 Eh     change       -0.1329818E-04 Eh
 * total energy  :  -133.9932546 Eh     change       -0.1078735E-04 Eh
 * total energy  :  -133.9932699 Eh     change       -0.1531136E-04 Eh
 * total energy  :  -133.9932812 Eh     change       -0.1129181E-04 Eh
 * total energy  :  -133.9932935 Eh     change       -0.1231121E-04 Eh
 * total energy  :  -133.9932997 Eh     change       -0.6207452E-05 Eh
 * total energy  :  -133.9933054 Eh     change       -0.5691247E-05 Eh
 * total energy  :  -133.9933096 Eh     change       -0.4121911E-05 Eh
   *** GEOMETRY OPTIMIZATION CONVERGED AFTER 58 ITERATIONS ***

 final structure:
================
72
 xtb: 6.3.3 (4ae9cef)
C        -1.03800985501494   -1.32924924431546   -2.08943281876445
O        -0.72483486498012   -0.00683603298334   -2.24364196806058
C        -0.70331234367276    0.54435369134566   -3.53954197891869
C        -1.32515053798214   -2.18698502818319   -3.14312899778815
C        -1.62436560994680   -3.51658840352432   -2.90019526044265
C        -1.64480856022319   -4.00328950885746   -1.60778161071871
C        -1.37083496119696   -3.14855961473344   -0.55476221180588
C        -1.06382953196950   -1.81715587986252   -0.77457078944832
C        -0.76579048969747   -0.91748954478637    0.39849641073299
C         0.70751465012834   -0.42837640143637    0.44173386724447
C         1.32874999020780   -0.64148557116239    1.80457589952420
C         1.63110165379871    0.39672989564841    2.66941686547205
C         2.20914611391313    0.14442006340936    3.90259920564600
C         2.49782726003730   -1.15566896608038    4.26778341819136
C         2.22272448382808   -2.20618928767013    3.40846150249860
C         1.64111325064209   -1.95952046343863    2.17269258860802
O         1.33757898509828   -2.91391548380375    1.24607827840520
C         1.69390379399045   -4.25039042354684    1.51596304888470
N         0.63666019823202    0.96505118041330    0.04279621437632
C         1.36339544958793    1.53766030957438   -0.96078131244851
C         2.66204030621140    0.88410598773997   -1.30155708600112
C         3.06019283125988    0.89275393397703   -2.63789210761258
C         4.26301216678228    0.32639722290686   -3.02572861442152
C         5.09163092348582   -0.25439402669342   -2.08279718307077
C         4.69940967613802   -0.24398058307064   -0.74996868489624
N         5.54323565473427   -0.86393426688693    0.24480871669916
O         5.07266882539421   -1.03570760111265    1.34897304294756
O         6.65980418866845   -1.19022753042527   -0.09049532933119
C         3.50266967448347    0.33030275648330   -0.34601314297886
O         0.98776607757050    2.53705342262481   -1.53836382675891
C        -0.68687794321074    1.48769635834595    0.30356062416906
C        -0.72652449708970    2.30477007062726    1.62696783725168
O        -1.31547350360104    1.69740731612775    2.65488422853933
O        -0.27120032835454    3.40498834170869    1.70248689379600
N        -1.53576990563813    0.32332369952004    0.35961579801144
C        -2.88864194567740    0.31592495932730    0.23266280626002
C        -3.49840656106258    1.68327463291271    0.10275251151189
C        -4.17150065440184    2.23769210928818    1.17963718918181
C        -4.74665644383023    3.49327079459965    1.04010417009336
N        -5.44676776318511    4.07482646832402    2.16495832437157
O        -5.48164344858923    3.43708735427547    3.19301586364692
O        -5.95807987255796    5.16037097313293    2.00327532783984
C        -4.66906399859682    4.19723997270699   -0.15371412079464
C        -4.01354492825375    3.62547451653769   -1.22894799524831
C        -3.43132682226283    2.37477935083861   -1.10343537789401
O        -3.54302979950049   -0.70152018948137    0.27781793215103
H        -1.68850889956733    0.49468814984905   -4.01435919787814
H        -0.41132769031118    1.58582415476312   -3.40452408076291
H         0.03104618292340    0.04133920704663   -4.17643105265055
H        -1.32232633380451   -1.82670116702182   -4.15944447151206
H        -1.84644895749592   -4.16751590362894   -3.73229531398127
H        -1.88393157387038   -5.03784956013429   -1.41783478448353
H        -1.39933364504810   -3.51661397444931    0.45884886901759
H        -1.01154766997162   -1.46998147027518    1.31309636481639
H         1.28690343223456   -0.99765921106793   -0.29238391930939
H         1.43896069207227    1.41654435537235    2.37239375838274
H         2.43672245580420    0.96455991707242    4.56415625392047
H         2.95266227173664   -1.36210119684684    5.22407142807652
H         2.47514760604074   -3.21055923810308    3.70660739217414
H         2.77181887625892   -4.35318543915572    1.66991312658956
H         1.16139966247744   -4.63918776056840    2.38932014206790
H         1.39676978769840   -4.81323664130275    0.63247189504473
H         2.41222979015810    1.35841816454720   -3.36467561438294
H         4.55563072849184    0.33793241789400   -4.06408424292135
H         6.03107317514330   -0.71076834729012   -2.35479753599334
H         3.26158722929366    0.34702062213044    0.70539509218417
H        -0.93770667755797    2.18458206335021   -0.50998868418599
H        -1.61136232997349    0.79886489409952    2.43421980660293
H        -4.26147109931425    1.71558556671916    2.12047135328422
H        -5.12509405802343    5.17288599246193   -0.22176782404076
H        -3.95308179795778    4.15587174527285   -2.16623020053385
H        -2.92651214113869    1.92574932892791   -1.94551870822153

          :  Hamiltonian                  GFN2-xTB          :
         :: total energy            -133.993309563847 Eh    ::
         :: gradient norm              0.000829702321 Eh/a0 ::
         :: HOMO-LUMO gap              1.713765944029 eV    ::
         :: SCC energy              -135.704507032359 Eh    ::
         :: -> dispersion             -0.105452815229 Eh    ::
         :: repulsion energy           1.706732496956 Eh    ::

    * Orbital Energies and Occupations

         #    Occupation            Energy/Eh            Energy/eV
      -------------------------------------------------------------
         1        2.0000           -0.7865768             -21.4038
       ...           ...                  ...                  ...
       105        2.0000           -0.4528841             -12.3236
       106        2.0000           -0.4515206             -12.2865
       107        2.0000           -0.4475611             -12.1788
       108        2.0000           -0.4436436             -12.0722
       109        2.0000           -0.4432668             -12.0619
       110        2.0000           -0.4333883             -11.7931
       111        2.0000           -0.4274690             -11.6320
       112        2.0000           -0.4246298             -11.5548
       113        2.0000           -0.4229762             -11.5098
       114        2.0000           -0.4178789             -11.3711
       115        2.0000           -0.4134034             -11.2493
       116        2.0000           -0.4014027             -10.9227
       117        2.0000           -0.3982672             -10.8374 (HOMO)
       118                         -0.3352875              -9.1236 (LUMO)
       119                         -0.3264125              -8.8821
       120                         -0.2941295              -8.0037
       121                         -0.2744620              -7.4685
       122                         -0.2653238              -7.2198
       123                         -0.2596362              -7.0651
       124                         -0.2515869              -6.8460
       125                         -0.2493857              -6.7861
       126                         -0.2422861              -6.5929
       127                         -0.2379706              -6.4755
       128                         -0.2348736              -6.3912
       ...                                ...                  ...
       210                          0.6492414              17.6668
      -------------------------------------------------------------
                  HL-Gap            0.0629797 Eh            1.7138 eV

     #   Z          covCN         q      C6AA      Î±(0)
     1   6 C        2.865     0.139    24.967     8.190
     2   8 O        1.705    -0.289    18.798     5.854
     3   6 C        3.641     0.040    20.251     6.471
     4   6 C        2.918    -0.065    29.622     8.925
     5   6 C        2.921    -0.029    28.725     8.789
     6   6 C        2.918    -0.037    28.927     8.820
     7   6 C        2.926    -0.026    28.648     8.778
     8   6 C        2.970    -0.013    28.342     8.733
     9   6 C        3.818     0.051    19.712     6.319
    10   6 C        3.824     0.039    19.909     6.349
    11   6 C        2.971    -0.033    28.820     8.806
    12   6 C        2.922    -0.037    28.924     8.820
    13   6 C        2.918    -0.035    28.871     8.811
    14   6 C        2.921    -0.024    28.614     8.772
    15   6 C        2.917    -0.059    29.471     8.902
    16   6 C        2.869     0.137    25.003     8.197
    17   8 O        1.705    -0.281    18.672     5.834
    18   6 C        3.643     0.035    20.330     6.482
    19   7 N        2.756    -0.104    23.270     7.165
    20   6 C        2.770     0.276    22.336     7.740
    21   6 C        2.974    -0.003    28.090     8.694
    22   6 C        2.926    -0.009    28.246     8.716
    23   6 C        2.919    -0.021    28.534     8.760
    24   6 C        2.918    -0.018    28.456     8.748
    25   6 C        2.917     0.006    27.891     8.660
    26   7 N        2.760     0.547    13.507     5.458
    27   8 O        0.930    -0.387    21.387     6.202
    28   8 O        0.930    -0.377    21.200     6.175
    29   6 C        2.920    -0.025    28.628     8.774
    30   8 O        0.859    -0.414    21.955     6.282
    31   6 C        3.768     0.069    19.460     6.287
    32   6 C        2.685     0.345    21.137     7.524
    33   8 O        1.659    -0.351    19.926     6.026
    34   8 O        0.856    -0.341    20.529     6.075
    35   7 N        2.760    -0.125    23.714     7.232
    36   6 C        2.761     0.269    22.458     7.761
    37   6 C        2.977    -0.013    28.338     8.732
    38   6 C        2.922    -0.019    28.491     8.753
    39   6 C        2.917     0.009    27.825     8.650
    40   7 N        2.759     0.550    13.481     5.453
    41   8 O        0.930    -0.376    21.172     6.171
    42   8 O        0.930    -0.378    21.208     6.176
    43   6 C        2.918    -0.018    28.447     8.746
    44   6 C        2.920    -0.019    28.485     8.752
    45   6 C        2.922    -0.018    28.466     8.749
    46   8 O        0.859    -0.410    21.874     6.271
    47   1 H        0.924     0.040     2.452     2.449
    48   1 H        0.925     0.073     2.051     2.239
    49   1 H        0.924     0.037     2.487     2.466
    50   1 H        0.926     0.041     2.432     2.439
    51   1 H        0.926     0.043     2.410     2.428
    52   1 H        0.926     0.044     2.396     2.420
    53   1 H        0.926     0.049     2.331     2.387
    54   1 H        0.924     0.059     2.214     2.327
    55   1 H        0.924     0.067     2.115     2.275
    56   1 H        0.926     0.044     2.401     2.423
    57   1 H        0.926     0.050     2.320     2.382
    58   1 H        0.926     0.049     2.336     2.390
    59   1 H        0.926     0.047     2.352     2.398
    60   1 H        0.924     0.049     2.331     2.388
    61   1 H        0.924     0.045     2.383     2.414
    62   1 H        0.925     0.063     2.159     2.298
    63   1 H        0.926     0.074     2.044     2.236
    64   1 H        0.926     0.063     2.158     2.297
    65   1 H        0.926     0.085     1.927     2.171
    66   1 H        0.926     0.087     1.912     2.162
    67   1 H        0.923     0.102     1.765     2.077
    68   1 H        0.804     0.334     0.628     1.245
    69   1 H        0.926     0.086     1.919     2.166
    70   1 H        0.926     0.088     1.895     2.153
    71   1 H        0.926     0.065     2.145     2.290
    72   1 H        0.926     0.059     2.209     2.324

Wiberg/Mayer (AO) data.
largest (>0.10) Wiberg bond orders for each atom

     #   Z sym  total        # sym  WBO       # sym  WBO       # sym  WBO
 ---------------------------------------------------------------------------
     1   6 C    3.933 --     4 C    1.385     8 C    1.328     2 O    1.050
     2   8 O    2.215 --     1 C    1.050     3 C    0.981
     3   6 C    3.942 --     2 O    0.981    47 H    0.977    49 H    0.977
                            48 H    0.975
     4   6 C    3.988 --     5 C    1.434     1 C    1.385    50 H    0.965
                             7 C    0.103
     5   6 C    3.990 --     6 C    1.444     4 C    1.434    51 H    0.971
                             8 C    0.107
     6   6 C    3.991 --     5 C    1.444     7 C    1.428    52 H    0.970
     7   6 C    3.987 --     8 C    1.434     6 C    1.428    53 H    0.966
                             4 C    0.103
     8   6 C    3.982 --     7 C    1.434     1 C    1.328     9 C    0.991
                             5 C    0.107
     9   6 C    3.963 --     8 C    0.991    54 H    0.955    35 N    0.952
                            10 C    0.946
    10   6 C    3.963 --    11 C    0.986    19 N    0.971    55 H    0.947
                             9 C    0.946
    11   6 C    3.979 --    12 C    1.436    16 C    1.318    10 C    0.986
                            14 C    0.105
    12   6 C    3.989 --    11 C    1.436    13 C    1.421    56 H    0.962
                            15 C    0.103
    13   6 C    3.991 --    14 C    1.446    12 C    1.421    57 H    0.970
    14   6 C    3.990 --    13 C    1.446    15 C    1.433    58 H    0.970
                            11 C    0.105
    15   6 C    3.988 --    14 C    1.433    16 C    1.386    59 H    0.965
                            12 C    0.103
    16   6 C    3.934 --    15 C    1.386    11 C    1.318    17 O    1.058
    17   8 O    2.225 --    16 C    1.058    18 C    0.980
    18   6 C    3.941 --    17 O    0.980    62 H    0.979    60 H    0.977
                            61 H    0.977
    19   7 N    3.460 --    20 C    1.194    31 C    0.983    10 C    0.971
                            30 O    0.183
    20   6 C    3.948 --    30 O    1.688    19 N    1.194    21 C    0.982
    21   6 C    3.988 --    29 C    1.409    22 C    1.389    20 C    0.982
                            24 C    0.101
    22   6 C    3.984 --    23 C    1.440    21 C    1.389    63 H    0.964
    23   6 C    3.989 --    24 C    1.446    22 C    1.440    64 H    0.967
                            29 C    0.104
    24   6 C    3.983 --    23 C    1.446    25 C    1.381    65 H    0.960
                            21 C    0.101
    25   6 C    3.964 --    29 C    1.390    24 C    1.381    26 N    0.958
    26   7 N    3.912 --    28 O    1.458    27 O    1.452    25 C    0.958
    27   8 O    1.936 --    26 N    1.452    28 O    0.365
    28   8 O    1.941 --    26 N    1.458    27 O    0.365
    29   6 C    3.984 --    21 C    1.409    25 C    1.390    66 H    0.950
                            23 C    0.104
    30   8 O    2.029 --    20 C    1.688    19 N    0.183
    31   6 C    3.956 --    35 N    0.984    19 N    0.983    67 H    0.926
                            32 C    0.897
    32   6 C    3.925 --    34 O    1.808    33 O    1.153    31 C    0.897
    33   8 O    2.232 --    32 C    1.153    68 H    0.850    34 O    0.174
    34   8 O    2.099 --    32 C    1.808    33 O    0.174
    35   7 N    3.477 --    36 C    1.208    31 C    0.984     9 C    0.952
                            46 O    0.196
    36   6 C    3.951 --    46 O    1.703    35 N    1.208    37 C    0.951
    37   6 C    3.988 --    38 C    1.425    45 C    1.396    36 C    0.951
                            43 C    0.105
    38   6 C    3.985 --    37 C    1.425    39 C    1.386    69 H    0.959
                            44 C    0.107
    39   6 C    3.966 --    43 C    1.390    38 C    1.386    40 N    0.955
    40   7 N    3.914 --    41 O    1.460    42 O    1.457    39 C    0.955
    41   8 O    1.945 --    40 N    1.460    42 O    0.368
    42   8 O    1.942 --    40 N    1.457    41 O    0.368
    43   6 C    3.984 --    44 C    1.444    39 C    1.390    70 H    0.959
                            37 C    0.105
    44   6 C    3.989 --    43 C    1.444    45 C    1.438    71 H    0.967
                            38 C    0.107
    45   6 C    3.989 --    44 C    1.438    37 C    1.396    72 H    0.966
    46   8 O    2.032 --    36 C    1.703    35 N    0.196
    47   1 H    0.998 --     3 C    0.977
    48   1 H    0.994 --     3 C    0.975
    49   1 H    0.999 --     3 C    0.977
    50   1 H    0.998 --     4 C    0.965
    51   1 H    0.998 --     5 C    0.971
    52   1 H    0.998 --     6 C    0.970
    53   1 H    0.997 --     7 C    0.966
    54   1 H    0.996 --     9 C    0.955
    55   1 H    0.995 --    10 C    0.947
    56   1 H    0.997 --    12 C    0.962
    57   1 H    0.997 --    13 C    0.970
    58   1 H    0.997 --    14 C    0.970
    59   1 H    0.997 --    15 C    0.965
    60   1 H    0.998 --    18 C    0.977
    61   1 H    0.998 --    18 C    0.977
    62   1 H    0.996 --    18 C    0.979
    63   1 H    0.994 --    22 C    0.964
    64   1 H    0.995 --    23 C    0.967
    65   1 H    0.992 --    24 C    0.960
    66   1 H    0.992 --    29 C    0.950
    67   1 H    0.989 --    31 C    0.926
    68   1 H    0.889 --    33 O    0.850
    69   1 H    0.993 --    38 C    0.959
    70   1 H    0.992 --    43 C    0.959
    71   1 H    0.995 --    44 C    0.967
    72   1 H    0.996 --    45 C    0.966
 ---------------------------------------------------------------------------

molecular dipole:
                 x           y           z       tot (Debye)
 q only:        0.911      -2.292      -2.748
   full:        0.964      -2.676      -3.088      10.672

           -------------------------------------------------
          | TOTAL ENERGY             -133.993309563847 Eh   |
          | GRADIENT NORM               0.000829702321 Eh/Î± |
          | HOMO-LUMO GAP               1.713765944029 eV   |
           -------------------------------------------------

 * finished run on 2022/03/17 at 02:09:54.132
