   * xtb version 6.3.3 (4ae9cef) compiled by 'conda@95abc7406d43' on 2020-10-14
          program call               : xtb acid_339.xyz --opt --chrg 0 --uhf 0 --gfn 2
          number of atoms            :                    66
          number of electrons        :                   218
          charge                     :                     0
          spin                       :                   0.0

   ID    Z sym.   atoms
    1    6 C      1-22, 24-26, 28, 29, 32, 33, 37-39, 41, 42
    2    7 N      23, 36
    3   35 Br     27, 40
    4   16 S      30, 43
    5    8 O      31, 34, 35, 44
    6    1 H      45-66

          :  Hamiltonian                  GFN2-xTB          :
 * total energy  :  -120.7752003 Eh     change       -0.3328523E-08 Eh
 * total energy  :  -120.8012785 Eh     change       -0.2607814E-01 Eh
 * total energy  :  -120.8092897 Eh     change       -0.8011283E-02 Eh
 * total energy  :  -120.8119542 Eh     change       -0.2664476E-02 Eh
 * total energy  :  -120.8134578 Eh     change       -0.1503555E-02 Eh
 * total energy  :  -120.8143858 Eh     change       -0.9280492E-03 Eh
 * total energy  :  -120.8152804 Eh     change       -0.8945846E-03 Eh
 * total energy  :  -120.8162754 Eh     change       -0.9950318E-03 Eh
 * total energy  :  -120.8173161 Eh     change       -0.1040709E-02 Eh
 * total energy  :  -120.8182941 Eh     change       -0.9779193E-03 Eh
 * total energy  :  -120.8367479 Eh     change       -0.5135717E-05 Eh
 * total energy  :  -120.8367538 Eh     change       -0.5937067E-05 Eh
 * total energy  :  -120.8367608 Eh     change       -0.6991816E-05 Eh
 * total energy  :  -120.8367684 Eh     change       -0.7580748E-05 Eh
 * total energy  :  -120.8367757 Eh     change       -0.7269270E-05 Eh
 * total energy  :  -120.8367823 Eh     change       -0.6596955E-05 Eh
 * total energy  :  -120.8367883 Eh     change       -0.5981603E-05 Eh
 * total energy  :  -120.8367934 Eh     change       -0.5162790E-05 Eh
 * total energy  :  -120.8367977 Eh     change       -0.4293094E-05 Eh
   *** GEOMETRY OPTIMIZATION CONVERGED AFTER 90 ITERATIONS ***

 final structure:
================
66
 xtb: 6.3.3 (4ae9cef)
C        -3.99317216669321   -3.30608000916071   -1.16020933403262
C        -3.67651331993521   -4.16312969055502   -0.14631995437571
C        -2.73531321838700   -3.77956733973269    0.81863425139009
C        -2.12823321684195   -2.55714620816465    0.75344909685522
C        -2.41548210307956   -1.64970781785881   -0.29034707970237
C        -3.37524684176486   -2.04205051873741   -1.26453059204314
C        -3.68340364255980   -1.17638369712886   -2.33376453798139
C        -3.04344087931646    0.02205446850791   -2.46534292936579
C        -2.07402303847665    0.40111358705125   -1.52984316165897
C        -1.77646761800620   -0.39051393952312   -0.44917444836220
C        -0.68546734932880    0.04551907973148    0.49306218859611
C         0.70681528832200   -0.27448480852296   -0.08796049682670
C         1.20275896507899   -1.60743093842817    0.40922940056122
C         1.86827858293561   -1.67250458182949    1.60732837513820
C         2.27611165622648   -2.89807812194400    2.14815085992150
C         1.97553226881742   -4.06184273843930    1.50149626147166
C         1.26983461696385   -4.04359349586752    0.28106995549834
C         0.89033284372605   -2.80050085303689   -0.29702498230603
C         0.19912665741324   -2.82942612388745   -1.52852308325278
C        -0.12969255618137   -4.01228078142286   -2.12876024531480
C         0.22391523008933   -5.23503708264282   -1.54214180249888
C         0.92004725958901   -5.24638230113617   -0.36809984703900
N         1.52584801628280    0.84382309266255    0.36130432026631
C         2.82542687752003    0.92186682519183   -0.03914983783475
C         3.54662627652243    2.13511667837478    0.42184700048856
C         4.22839987734650    3.02925547763586   -0.35327549416956
Br        4.20425418721446    2.97808687944626   -2.23519712237122
C         4.87518332522249    4.05048362474636    0.37959249663101
C         4.69164620420749    3.90159342783001    1.71356659502903
S         3.72296518760177    2.53534047432808    2.09561007274188
O         3.36354442588917    0.05820114773501   -0.69276131262998
C         0.72290676748740    1.97592913437298    0.76274869514101
C         0.93599613944643    3.16254654000757   -0.20785592416472
O         0.59618472357275    2.82875132350015   -1.44007336387934
O         1.38005280638332    4.22911575394501    0.12010380184863
N        -0.63247978203362    1.48618824395020    0.70542877688886
C        -1.73240310148591    2.21634586319623    1.01300837575296
C        -1.45854716913891    3.67513440369539    1.18134438665161
C        -1.75141892832333    4.66790594575013    0.29186971571066
Br       -2.44277386742649    4.33325749028536   -1.43031620955206
C        -1.42518477962211    5.96606483490933    0.74848228476009
C        -0.90203618323437    5.93738855794280    1.99727645223968
S        -0.79494349377883    4.34338892956929    2.63033709766498
O        -2.84278790846306    1.74966153727875    1.11000985626936
H        -4.72037333656372   -3.58517331089190   -1.90939417769945
H        -4.14547734731838   -5.13352034205710   -0.07870137708045
H        -2.48826733450448   -4.46007594956720    1.62012036585840
H        -1.40702499153049   -2.30269578522891    1.51415751931697
H        -4.42694858972435   -1.48677433243886   -3.05360920425951
H        -3.26804483849134    0.68398869699415   -3.28788143088282
H        -1.55665832233010    1.33873351319712   -1.66985385574784
H        -0.80213241940023   -0.43268689064045    1.47250504371858
H         0.67703828820228   -0.25712811271822   -1.18351534693610
H         2.08896131574155   -0.76426405240303    2.15075513354140
H         2.81438483600648   -2.90920562583689    3.08423655873178
H         2.26696965744103   -5.01524629428357    1.91780677325112
H        -0.08605118596421   -1.91007080923965   -2.01377870828998
H        -0.66793956565278   -4.00761633446604   -3.06486426784057
H        -0.04903730022557   -6.15968563313302   -2.02876154472940
H         1.21351166945915   -6.18075275504227    0.08901490415022
H         5.43912865540032    4.84058154168753   -0.08022668706549
H         5.06877875718693    4.51310489048527    2.50824916421460
H         0.99052295913754    2.31799492658729    1.77835637657927
H         0.75099700866251    3.54768298958852   -2.07719035702503
H        -1.57762584231471    6.85394147717334    0.16333659140317
H        -0.56746409299362    6.76087691850750    2.59495796862046

          :  Hamiltonian                  GFN2-xTB          :
         :: total energy            -120.836797722765 Eh    ::
         :: gradient norm              0.000402205936 Eh/a0 ::
         :: HOMO-LUMO gap              2.402330220241 eV    ::
         :: SCC energy              -122.555600259236 Eh    ::
         :: -> dispersion             -0.119151643944 Eh    ::
         :: repulsion energy           1.714963980582 Eh    ::

    * Orbital Energies and Occupations

         #    Occupation            Energy/Eh            Energy/eV
      -------------------------------------------------------------
         1        2.0000           -0.8493120             -23.1110
       ...           ...                  ...                  ...
        97        2.0000           -0.4249043             -11.5622
        98        2.0000           -0.4239150             -11.5353
        99        2.0000           -0.4207399             -11.4489
       100        2.0000           -0.4204299             -11.4405
       101        2.0000           -0.4190088             -11.4018
       102        2.0000           -0.4128265             -11.2336
       103        2.0000           -0.4109368             -11.1822
       104        2.0000           -0.4084901             -11.1156
       105        2.0000           -0.4075151             -11.0890
       106        2.0000           -0.4065473             -11.0627
       107        2.0000           -0.4036701             -10.9844
       108        2.0000           -0.3842701             -10.4565
       109        2.0000           -0.3793965             -10.3239 (HOMO)
       110                         -0.2911125              -7.9216 (LUMO)
       111                         -0.2861153              -7.7856
       112                         -0.2748595              -7.4793
       113                         -0.2678670              -7.2890
       114                         -0.2631013              -7.1594
       115                         -0.2509681              -6.8292
       116                         -0.2493071              -6.7840
       117                         -0.2387796              -6.4975
       118                         -0.2350310              -6.3955
       119                         -0.2339912              -6.3672
       120                         -0.2314423              -6.2979
       ...                                ...                  ...
       218                          0.6921379              18.8340
      -------------------------------------------------------------
                  HL-Gap            0.0882840 Eh            2.4023 eV

     #   Z          covCN         q      C6AA      Î±(0)
     1   6 C        2.921    -0.033    28.827     8.805
     2   6 C        2.915    -0.029    28.721     8.788
     3   6 C        2.917    -0.028    28.700     8.785
     4   6 C        2.917    -0.033    28.829     8.805
     5   6 C        2.983     0.012    27.729     8.638
     6   6 C        2.989     0.017    27.611     8.620
     7   6 C        2.921    -0.033    28.830     8.805
     8   6 C        2.914    -0.027    28.669     8.780
     9   6 C        2.923    -0.029    28.732     8.790
    10   6 C        2.968     0.005    27.903     8.664
    11   6 C        3.825     0.050    19.725     6.320
    12   6 C        3.829     0.049    19.729     6.320
    13   6 C        2.969     0.004    27.922     8.667
    14   6 C        2.922    -0.032    28.794     8.800
    15   6 C        2.914    -0.029    28.727     8.789
    16   6 C        2.920    -0.034    28.852     8.808
    17   6 C        2.989     0.017    27.619     8.621
    18   6 C        2.984     0.013    27.725     8.637
    19   6 C        2.917    -0.032    28.808     8.802
    20   6 C        2.917    -0.027    28.672     8.781
    21   6 C        2.915    -0.028    28.692     8.784
    22   6 C        2.921    -0.033    28.833     8.806
    23   7 N        2.765    -0.120    23.607     7.216
    24   6 C        2.779     0.278    22.292     7.733
    25   6 C        3.053    -0.032    28.753     8.794
    26   6 C        3.134     0.075    26.106     8.364
    27  35 Br       1.035    -0.135   188.740    22.151
    28   6 C        3.151    -0.044    28.799     8.778
    29   6 C        2.948    -0.015    28.396     8.740
    30  16 S        2.337     0.017   140.360    19.940
    31   8 O        0.859    -0.393    21.542     6.223
    32   6 C        3.753     0.092    19.115     6.234
    33   6 C        2.687     0.352    21.028     7.504
    34   8 O        1.660    -0.343    19.772     6.003
    35   8 O        0.856    -0.401    21.696     6.245
    36   7 N        2.766    -0.112    23.443     7.191
    37   6 C        2.773     0.280    22.267     7.729
    38   6 C        3.051    -0.033    28.778     8.798
    39   6 C        3.137     0.068    26.259     8.387
    40  35 Br       1.033    -0.141   188.934    22.162
    41   6 C        3.149    -0.046    28.845     8.785
    42   6 C        2.949    -0.015    28.395     8.740
    43  16 S        2.337     0.025   140.056    19.918
    44   8 O        0.859    -0.394    21.568     6.227
    45   1 H        0.926     0.037     2.493     2.469
    46   1 H        0.926     0.034     2.527     2.486
    47   1 H        0.926     0.032     2.558     2.501
    48   1 H        0.926     0.024     2.670     2.555
    49   1 H        0.926     0.039     2.465     2.455
    50   1 H        0.926     0.042     2.425     2.435
    51   1 H        0.926     0.040     2.446     2.446
    52   1 H        0.924     0.055     2.259     2.351
    53   1 H        0.924     0.065     2.140     2.288
    54   1 H        0.926     0.027     2.631     2.537
    55   1 H        0.926     0.037     2.494     2.470
    56   1 H        0.926     0.039     2.468     2.457
    57   1 H        0.926     0.030     2.586     2.515
    58   1 H        0.926     0.034     2.526     2.485
    59   1 H        0.926     0.035     2.510     2.477
    60   1 H        0.926     0.037     2.492     2.469
    61   1 H        0.926     0.069     2.102     2.267
    62   1 H        0.926     0.068     2.109     2.271
    63   1 H        0.923     0.063     2.164     2.301
    64   1 H        0.804     0.356     0.574     1.190
    65   1 H        0.926     0.067     2.115     2.274
    66   1 H        0.926     0.068     2.104     2.268

Wiberg/Mayer (AO) data.
largest (>0.10) Wiberg bond orders for each atom

     #   Z sym  total        # sym  WBO       # sym  WBO       # sym  WBO
 ---------------------------------------------------------------------------
     1   6 C    3.991 --     2 C    1.558     6 C    1.279    45 H    0.968
                             4 C    0.118
     2   6 C    3.992 --     1 C    1.558     3 C    1.321    46 H    0.971
     3   6 C    3.992 --     4 C    1.555     2 C    1.321    47 H    0.971
     4   6 C    3.992 --     3 C    1.555     5 C    1.282    48 H    0.961
                             1 C    0.118
     5   6 C    3.988 --     4 C    1.282    10 C    1.252     6 C    1.252
     6   6 C    3.990 --     7 C    1.280     1 C    1.279     5 C    1.252
     7   6 C    3.990 --     8 C    1.552     6 C    1.280    49 H    0.968
                            10 C    0.114
     8   6 C    3.991 --     7 C    1.552     9 C    1.327    50 H    0.970
     9   6 C    3.990 --    10 C    1.522     8 C    1.327    51 H    0.965
    10   6 C    3.982 --     9 C    1.522     5 C    1.252    11 C    0.991
                             7 C    0.114
    11   6 C    3.956 --    10 C    0.991    36 N    0.950    12 C    0.949
                            52 H    0.946
    12   6 C    3.956 --    13 C    0.990    23 N    0.953    11 C    0.949
                            53 H    0.945
    13   6 C    3.982 --    14 C    1.524    18 C    1.252    12 C    0.990
                            16 C    0.114
    14   6 C    3.990 --    13 C    1.524    15 C    1.326    54 H    0.968
    15   6 C    3.992 --    16 C    1.553    14 C    1.326    55 H    0.970
    16   6 C    3.990 --    15 C    1.553    17 C    1.280    56 H    0.968
                            13 C    0.114
    17   6 C    3.990 --    16 C    1.280    22 C    1.279    18 C    1.253
    18   6 C    3.989 --    19 C    1.282    17 C    1.253    13 C    1.252
    19   6 C    3.992 --    20 C    1.555    18 C    1.282    57 H    0.962
                            22 C    0.119
    20   6 C    3.992 --    19 C    1.555    21 C    1.322    58 H    0.971
    21   6 C    3.992 --    22 C    1.558    20 C    1.322    59 H    0.971
    22   6 C    3.991 --    21 C    1.558    17 C    1.279    60 H    0.968
                            19 C    0.119
    23   7 N    3.448 --    24 C    1.191    32 C    0.983    12 C    0.953
                            31 O    0.190
    24   6 C    3.956 --    31 O    1.702    23 N    1.191    25 C    0.983
    25   6 C    3.945 --    26 C    1.538    30 S    1.151    24 C    0.983
                            29 C    0.109
    26   6 C    3.938 --    25 C    1.538    28 C    1.251    27 Br   0.995
    27  35 Br   1.147 --    26 C    0.995
    28   6 C    3.984 --    29 C    1.630    26 C    1.251    61 H    0.961
    29   6 C    3.951 --    28 C    1.630    30 S    1.197    62 H    0.966
                            25 C    0.109
    30  16 S    2.652 --    29 C    1.197    25 C    1.151
    31   8 O    2.054 --    24 C    1.702    23 N    0.190
    32   6 C    3.970 --    36 N    0.986    23 N    0.983    63 H    0.942
                            33 C    0.905
    33   6 C    3.924 --    35 O    1.759    34 O    1.182    32 C    0.905
    34   8 O    2.249 --    33 C    1.182    64 H    0.846    35 O    0.187
    35   8 O    2.050 --    33 C    1.759    34 O    0.187
    36   7 N    3.470 --    37 C    1.213    32 C    0.986    11 C    0.950
                            44 O    0.200
    37   6 C    3.955 --    44 O    1.704    36 N    1.213    38 C    0.961
    38   6 C    3.946 --    39 C    1.544    43 S    1.160    37 C    0.961
                            42 C    0.109
    39   6 C    3.935 --    38 C    1.544    41 C    1.248    40 Br   0.990
    40  35 Br   1.143 --    39 C    0.990
    41   6 C    3.984 --    42 C    1.632    39 C    1.248    65 H    0.961
    42   6 C    3.950 --    41 C    1.632    43 S    1.196    66 H    0.966
                            38 C    0.109
    43  16 S    2.657 --    42 C    1.196    38 C    1.160
    44   8 O    2.054 --    37 C    1.704    36 N    0.200
    45   1 H    0.998 --     1 C    0.968
    46   1 H    0.998 --     2 C    0.971
    47   1 H    0.999 --     3 C    0.971
    48   1 H    0.999 --     4 C    0.961
    49   1 H    0.997 --     7 C    0.968
    50   1 H    0.997 --     8 C    0.970
    51   1 H    0.998 --     9 C    0.965
    52   1 H    0.996 --    11 C    0.946
    53   1 H    0.995 --    12 C    0.945
    54   1 H    0.999 --    14 C    0.968
    55   1 H    0.998 --    15 C    0.970
    56   1 H    0.997 --    16 C    0.968
    57   1 H    0.999 --    19 C    0.962
    58   1 H    0.998 --    20 C    0.971
    59   1 H    0.998 --    21 C    0.971
    60   1 H    0.998 --    22 C    0.968
    61   1 H    0.995 --    28 C    0.961
    62   1 H    0.995 --    29 C    0.966
    63   1 H    0.996 --    32 C    0.942
    64   1 H    0.873 --    34 O    0.846
    65   1 H    0.995 --    41 C    0.961
    66   1 H    0.994 --    42 C    0.966
 ---------------------------------------------------------------------------

molecular dipole:
                 x           y           z       tot (Debye)
 q only:        0.191      -0.062       0.887
   full:        0.450       0.472       1.520       4.203

           -------------------------------------------------
          | TOTAL ENERGY             -120.836797722765 Eh   |
          | GRADIENT NORM               0.000402205936 Eh/Î± |
          | HOMO-LUMO GAP               2.402330220241 eV   |
           -------------------------------------------------

 * finished run on 2022/03/17 at 00:01:14.557
