   * xtb version 6.3.3 (4ae9cef) compiled by 'conda@95abc7406d43' on 2020-10-14
          program call               : xtb acid_73.xyz --opt --chrg 0 --uhf 0 --gfn 2
          number of atoms            :                    60
          number of electrons        :                   218
          charge                     :                     0
          spin                       :                   0.0

   ID    Z sym.   atoms
    1    6 C      1, 2, 6-15, 19-22, 24-28, 31, 32, 36-40
    2    9 F      3-5, 16-18
    3    7 N      23, 35
    4   16 S      29, 41
    5    8 O      30, 33, 34, 42
    6    1 H      43-60

          :  Hamiltonian                  GFN2-xTB          :
 * total energy  :  -126.1557819 Eh     change       -0.5324509E-08 Eh
 * total energy  :  -126.1700610 Eh     change       -0.1427905E-01 Eh
 * total energy  :  -126.1744621 Eh     change       -0.4401151E-02 Eh
 * total energy  :  -126.1755875 Eh     change       -0.1125355E-02 Eh
 * total energy  :  -126.1762811 Eh     change       -0.6935892E-03 Eh
 * total energy  :  -126.1767094 Eh     change       -0.4283418E-03 Eh
 * total energy  :  -126.1770946 Eh     change       -0.3851391E-03 Eh
 * total energy  :  -126.1774002 Eh     change       -0.3055830E-03 Eh
 * total energy  :  -126.1776458 Eh     change       -0.2456856E-03 Eh
 * total energy  :  -126.1778641 Eh     change       -0.2183119E-03 Eh
 * total energy  :  -126.1816244 Eh     change       -0.1028564E-04 Eh
 * total energy  :  -126.1816375 Eh     change       -0.1306602E-04 Eh
 * total energy  :  -126.1816492 Eh     change       -0.1164520E-04 Eh
 * total energy  :  -126.1816578 Eh     change       -0.8646491E-05 Eh
 * total energy  :  -126.1816647 Eh     change       -0.6931452E-05 Eh
 * total energy  :  -126.1816710 Eh     change       -0.6269683E-05 Eh
 * total energy  :  -126.1816769 Eh     change       -0.5904417E-05 Eh
 * total energy  :  -126.1816822 Eh     change       -0.5257387E-05 Eh
 * total energy  :  -126.1816871 Eh     change       -0.4947105E-05 Eh
   *** GEOMETRY OPTIMIZATION CONVERGED AFTER 77 ITERATIONS ***

 final structure:
================
60
 xtb: 6.3.3 (4ae9cef)
C         1.25464706298615    2.24851774332832   -2.00689157533413
C         1.78925251027815    0.97271422534346   -2.59767731736422
F         2.92655662527850    0.55365009495984   -2.01735803294511
F         2.08528650587321    1.08853258315479   -3.90216158396532
F         0.92946156759774   -0.06656534417495   -2.53975448276952
C         1.22471302783269    3.35189786193961   -2.86100638923386
C         0.79608069922875    4.58602589473134   -2.42156850616084
C         0.40307528256249    4.73609624216331   -1.10293740191477
C         0.43181155960440    3.64854488138919   -0.25723527116766
C         0.84113804905621    2.38191753223212   -0.68100099849667
C         0.74616506345455    1.32978574690295    0.40933880656667
C        -0.73999073011259    1.07392337136637    0.74643216345253
C        -1.04039126649276    0.76802096869718    2.19884370791030
C        -2.36636455125966    0.68511528023492    2.64865445468449
C        -3.53532836244988    0.95584340944668    1.73391353117506
F        -4.70870765522124    0.93463560662069    2.38879915267570
F        -3.47289587720109    2.16555399480742    1.15349854373647
F        -3.66020506533064    0.04889496213875    0.75163765401236
C        -2.64982748298726    0.35608255759823    3.96853115330921
C        -1.62689473797853    0.10894895437857    4.86574856028053
C        -0.31542854623236    0.19855220322066    4.43945716702176
C        -0.03030666892367    0.52319452331426    3.12404622485084
N        -1.02912460118673   -0.10369064103901   -0.07178395877962
C        -1.68859534220569    0.11257694093709   -1.27793021724563
C        -1.90761577403893   -1.07597716535313   -2.09459051094129
C        -2.03678731984298   -2.39304349531215   -1.73446311140682
C        -2.32241912347981   -3.22601804117993   -2.82979911261203
C        -2.40801977108008   -2.53368037599371   -4.00043429484354
S        -2.16364869626194   -0.85340441849382   -3.79033484001150
O        -2.10174232532770    1.20946340115397   -1.58534219461077
C         0.13320222149217   -0.94176941094862    0.03461805003248
C         0.06625301888240   -1.82942289625726    1.29086996941361
O        -1.12967049026851   -2.39502370666138    1.42115319026417
O         0.97697422544000   -2.02639125066150    2.04414568105468
N         1.24903339021474   -0.00479374888272    0.10638707750248
C         2.51601194126701   -0.32742789442501    0.55417720926143
C         3.03580344077231   -1.64450271357936    0.19092629114716
C         2.77688299340801   -2.47296432667635   -0.86832336863768
C         3.59100635195910   -3.61967232696868   -0.87129759060809
C         4.45501662222789   -3.64620563964587    0.18081953000227
S         4.30546063492298   -2.26782133349851    1.18322447023264
O         3.18251083701080    0.48588565722796    1.16392714741761
H         1.54257398633953    3.23542382126233   -3.88496465858363
H         0.77648242850959    5.42243867296845   -3.10194233422743
H         0.07490902914734    5.69555597845267   -0.73434545304591
H         0.12730791377757    3.77212712476482    0.77185636425600
H         1.31474718052829    1.72992704534506    1.25621981677049
H        -1.36839876667900    1.89086870995659    0.38246099448598
H        -3.67654033001462    0.29750666691202    4.29436288594747
H        -1.85825807044144   -0.14598769360916    5.88796398127954
H         0.49704759188775    0.01127636334697    5.12394177291438
H         1.00684863973799    0.56423025598260    2.83429953822226
H        -1.97199510778190   -2.73525365042496   -0.71832789078548
H        -2.46029536164800   -4.28949538097123   -2.75190378253855
H        -2.60592832753388   -2.92250334596676   -4.97972285997469
H         0.20055371991545   -1.61260565798155   -0.82831491887491
H        -1.16094195448689   -2.96134952451980    2.21046472766136
H         2.06591404900747   -2.25964885993481   -1.64536836086612
H         3.53782372993205   -4.38574164809293   -1.62416645822332
H         5.17577040631674   -4.40277078503852    0.42022765862720

          :  Hamiltonian                  GFN2-xTB          :
         :: total energy            -126.181687114282 Eh    ::
         :: gradient norm              0.000679818031 Eh/a0 ::
         :: HOMO-LUMO gap              3.089940740379 eV    ::
         :: SCC energy              -127.586772308292 Eh    ::
         :: -> dispersion             -0.096262276703 Eh    ::
         :: repulsion energy           1.401275510931 Eh    ::

    * Orbital Energies and Occupations

         #    Occupation            Energy/Eh            Energy/eV
      -------------------------------------------------------------
         1        2.0000           -0.8798653             -23.9424
       ...           ...                  ...                  ...
        97        2.0000           -0.4532432             -12.3334
        98        2.0000           -0.4479332             -12.1889
        99        2.0000           -0.4433579             -12.0644
       100        2.0000           -0.4375427             -11.9061
       101        2.0000           -0.4334500             -11.7948
       102        2.0000           -0.4223544             -11.4928
       103        2.0000           -0.4146815             -11.2841
       104        2.0000           -0.4101566             -11.1609
       105        2.0000           -0.4087350             -11.1222
       106        2.0000           -0.4075598             -11.0903
       107        2.0000           -0.4049384             -11.0189
       108        2.0000           -0.4000417             -10.8857
       109        2.0000           -0.3958157             -10.7707 (HOMO)
       110                         -0.2822625              -7.6808 (LUMO)
       111                         -0.2809815              -7.6459
       112                         -0.2720939              -7.4041
       113                         -0.2680694              -7.2945
       114                         -0.2644956              -7.1973
       115                         -0.2606979              -7.0940
       116                         -0.2531581              -6.8888
       117                         -0.2177858              -5.9263
       118                         -0.2092295              -5.6934
       119                         -0.2039972              -5.5510
       120                         -0.1962958              -5.3415
       ...                                ...                  ...
       196                          0.6952699              18.9193
      -------------------------------------------------------------
                  HL-Gap            0.1135532 Eh            3.0899 eV

     #   Z          covCN         q      C6AA      Î±(0)
     1   6 C        2.973    -0.026    28.644     8.779
     2   6 C        3.337     0.490    17.229     6.572
     3   9 F        0.791    -0.208    11.316     3.974
     4   9 F        0.793    -0.206    11.293     3.970
     5   9 F        0.791    -0.223    11.472     4.001
     6   6 C        2.928    -0.022    28.552     8.763
     7   6 C        2.919    -0.022    28.550     8.762
     8   6 C        2.918    -0.016    28.400     8.739
     9   6 C        2.936    -0.030    28.751     8.794
    10   6 C        2.966     0.018    27.616     8.620
    11   6 C        3.840     0.041    19.863     6.340
    12   6 C        3.861     0.035    19.954     6.353
    13   6 C        2.966     0.005    27.897     8.664
    14   6 C        2.977    -0.031    28.760     8.797
    15   6 C        3.335     0.487    17.288     6.586
    16   9 F        0.792    -0.207    11.305     3.972
    17   9 F        0.791    -0.204    11.277     3.967
    18   9 F        0.791    -0.206    11.301     3.971
    19   6 C        2.923    -0.026    28.654     8.778
    20   6 C        2.918    -0.026    28.645     8.777
    21   6 C        2.918    -0.019    28.489     8.753
    22   6 C        2.924    -0.032    28.797     8.800
    23   7 N        2.767    -0.142    24.070     7.287
    24   6 C        2.806     0.281    22.255     7.729
    25   6 C        2.998    -0.018    28.446     8.749
    26   6 C        3.109    -0.047    29.025     8.827
    27   6 C        3.111    -0.044    28.928     8.811
    28   6 C        2.944    -0.024    28.597     8.771
    29  16 S        2.336     0.071   138.187    19.785
    30   8 O        0.859    -0.406    21.803     6.260
    31   6 C        3.793     0.094    19.043     6.214
    32   6 C        2.688     0.350    21.060     7.510
    33   8 O        1.659    -0.359    20.078     6.049
    34   8 O        0.856    -0.385    21.387     6.200
    35   7 N        2.758    -0.153    24.306     7.322
    36   6 C        2.814     0.282    22.226     7.724
    37   6 C        2.996    -0.013    28.315     8.729
    38   6 C        3.114    -0.046    28.980     8.818
    39   6 C        3.114    -0.045    28.947     8.813
    40   6 C        2.944    -0.026    28.663     8.781
    41  16 S        2.355     0.071   138.175    19.784
    42   8 O        0.859    -0.422    22.123     6.306
    43   1 H        0.926     0.068     2.110     2.271
    44   1 H        0.926     0.058     2.227     2.334
    45   1 H        0.926     0.058     2.225     2.333
    46   1 H        0.926     0.050     2.323     2.384
    47   1 H        0.924     0.088     1.899     2.155
    48   1 H        0.924     0.097     1.812     2.105
    49   1 H        0.926     0.067     2.115     2.274
    50   1 H        0.926     0.057     2.238     2.339
    51   1 H        0.926     0.062     2.173     2.305
    52   1 H        0.926     0.071     2.072     2.251
    53   1 H        0.926     0.055     2.255     2.348
    54   1 H        0.926     0.048     2.348     2.396
    55   1 H        0.926     0.060     2.204     2.321
    56   1 H        0.924     0.088     1.897     2.154
    57   1 H        0.804     0.345     0.601     1.218
    58   1 H        0.926     0.039     2.462     2.454
    59   1 H        0.926     0.044     2.392     2.418
    60   1 H        0.926     0.056     2.245     2.343

Wiberg/Mayer (AO) data.
largest (>0.10) Wiberg bond orders for each atom

     #   Z sym  total        # sym  WBO       # sym  WBO       # sym  WBO
 ---------------------------------------------------------------------------
     1   6 C    3.968 --    10 C    1.401     6 C    1.394     2 C    0.952
                             8 C    0.102
     2   6 C    3.816 --     1 C    0.952     4 F    0.950     3 F    0.945
                             5 F    0.930
     3   9 F    1.074 --     2 C    0.945
     4   9 F    1.072 --     2 C    0.950
     5   9 F    1.058 --     2 C    0.930
     6   6 C    3.987 --     7 C    1.458     1 C    1.394    43 H    0.965
                             9 C    0.112
     7   6 C    3.989 --     6 C    1.458     8 C    1.419    44 H    0.969
                            10 C    0.109
     8   6 C    3.989 --     9 C    1.465     7 C    1.419    45 H    0.968
                             1 C    0.102
     9   6 C    3.990 --     8 C    1.465    10 C    1.391    46 H    0.967
                             6 C    0.112
    10   6 C    3.985 --     1 C    1.401     9 C    1.391    11 C    0.989
                             7 C    0.109
    11   6 C    3.968 --    10 C    0.989    35 N    0.975    12 C    0.957
                            47 H    0.931
    12   6 C    3.965 --    13 C    0.991    23 N    0.958    11 C    0.957
                            48 H    0.939
    13   6 C    3.985 --    22 C    1.419    14 C    1.375    12 C    0.991
                            20 C    0.108
    14   6 C    3.972 --    19 C    1.424    13 C    1.375    15 C    0.948
                            21 C    0.107
    15   6 C    3.824 --    14 C    0.948    16 F    0.947    17 F    0.946
                            18 F    0.946
    16   9 F    1.070 --    15 C    0.947
    17   9 F    1.077 --    15 C    0.946
    18   9 F    1.075 --    15 C    0.946
    19   6 C    3.987 --    20 C    1.434    14 C    1.424    49 H    0.965
                            22 C    0.107
    20   6 C    3.989 --    21 C    1.443    19 C    1.434    50 H    0.969
                            13 C    0.108
    21   6 C    3.989 --    20 C    1.443    22 C    1.435    51 H    0.968
                            14 C    0.107
    22   6 C    3.987 --    21 C    1.435    13 C    1.419    52 H    0.958
                            19 C    0.107
    23   7 N    3.376 --    24 C    1.110    31 C    0.997    12 C    0.958
                            30 O    0.155
    24   6 C    3.947 --    30 O    1.704    23 N    1.110    25 C    1.050
    25   6 C    3.950 --    26 C    1.518    29 S    1.163    24 C    1.050
                            28 C    0.103
    26   6 C    3.987 --    25 C    1.518    27 C    1.313    53 H    0.958
                            29 S    0.102
    27   6 C    3.987 --    28 C    1.583    26 C    1.313    54 H    0.965
    28   6 C    3.954 --    27 C    1.583    29 S    1.244    55 H    0.970
                            25 C    0.103
    29  16 S    2.691 --    28 C    1.244    25 C    1.163    26 C    0.102
    30   8 O    2.041 --    24 C    1.704    23 N    0.155
    31   6 C    3.973 --    23 N    0.997    35 N    0.971    56 H    0.921
                            32 C    0.920
    32   6 C    3.918 --    34 O    1.776    33 O    1.154    31 C    0.920
    33   8 O    2.222 --    32 C    1.154    57 H    0.855    34 O    0.178
    34   8 O    2.070 --    32 C    1.776    33 O    0.178
    35   7 N    3.386 --    36 C    1.137    11 C    0.975    31 C    0.971
                            42 O    0.160
    36   6 C    3.948 --    42 O    1.679    35 N    1.137    37 C    1.043
    37   6 C    3.952 --    38 C    1.531    41 S    1.166    36 C    1.043
                            40 C    0.104
    38   6 C    3.988 --    37 C    1.531    39 C    1.308    58 H    0.960
    39   6 C    3.987 --    40 C    1.587    38 C    1.308    59 H    0.965
    40   6 C    3.954 --    39 C    1.587    41 S    1.240    60 H    0.970
                            37 C    0.104
    41  16 S    2.687 --    40 C    1.240    37 C    1.166
    42   8 O    2.020 --    36 C    1.679    35 N    0.160
    43   1 H    0.995 --     6 C    0.965
    44   1 H    0.996 --     7 C    0.969
    45   1 H    0.996 --     8 C    0.968
    46   1 H    0.997 --     9 C    0.967
    47   1 H    0.992 --    11 C    0.931
    48   1 H    0.990 --    12 C    0.939
    49   1 H    0.995 --    19 C    0.965
    50   1 H    0.996 --    20 C    0.969
    51   1 H    0.995 --    21 C    0.968
    52   1 H    0.994 --    22 C    0.958
    53   1 H    0.997 --    26 C    0.958
    54   1 H    0.997 --    27 C    0.965
    55   1 H    0.996 --    28 C    0.970
    56   1 H    0.992 --    31 C    0.921
    57   1 H    0.881 --    33 O    0.855
    58   1 H    0.998 --    38 C    0.960
    59   1 H    0.997 --    39 C    0.965
    60   1 H    0.996 --    40 C    0.970
 ---------------------------------------------------------------------------

molecular dipole:
                 x           y           z       tot (Debye)
 q only:       -0.227      -0.884       0.935
   full:       -0.487      -1.335       0.954       4.350

           -------------------------------------------------
          | TOTAL ENERGY             -126.181687114282 Eh   |
          | GRADIENT NORM               0.000679818031 Eh/Î± |
          | HOMO-LUMO GAP               3.089940740379 eV   |
           -------------------------------------------------

 * finished run on 2022/03/17 at 02:02:04.500
