   * xtb version 6.3.3 (4ae9cef) compiled by 'conda@95abc7406d43' on 2020-10-14
          program call               : xtb sub_11.xyz --opt --chrg 0 --uhf 0 --gfn 2
          number of atoms            :                    32
          number of electrons        :                    90
          charge                     :                     0
          spin                       :                   0.0

   ID    Z sym.   atoms
    1    6 C      1, 3-6, 8-10, 12-18
    2    8 O      2
    3    7 N      7, 11
    4    1 H      19-32

          :  Hamiltonian                  GFN2-xTB          :
 * total energy  :   -49.1799017 Eh     change       -0.7351133E-09 Eh
 * total energy  :   -49.1869434 Eh     change       -0.7041679E-02 Eh
 * total energy  :   -49.1884450 Eh     change       -0.1501596E-02 Eh
 * total energy  :   -49.1886069 Eh     change       -0.1619093E-03 Eh
 * total energy  :   -49.1887140 Eh     change       -0.1071100E-03 Eh
 * total energy  :   -49.1887680 Eh     change       -0.5392877E-04 Eh
 * total energy  :   -49.1888329 Eh     change       -0.6493130E-04 Eh
 * total energy  :   -49.1888844 Eh     change       -0.5152743E-04 Eh
 * total energy  :   -49.1889230 Eh     change       -0.3857084E-04 Eh
 * total energy  :   -49.1889439 Eh     change       -0.2086388E-04 Eh
 * total energy  :   -49.1890078 Eh     change       -0.1971330E-04 Eh
 * total energy  :   -49.1890263 Eh     change       -0.1851772E-04 Eh
 * total energy  :   -49.1890402 Eh     change       -0.1384344E-04 Eh
 * total energy  :   -49.1890478 Eh     change       -0.7587722E-05 Eh
 * total energy  :   -49.1890509 Eh     change       -0.3092400E-05 Eh
 * total energy  :   -49.1890492 Eh     change        0.1709032E-05 Eh
 * total energy  :   -49.1890555 Eh     change       -0.6295117E-05 Eh
 * total energy  :   -49.1890605 Eh     change       -0.5062205E-05 Eh
 * total energy  :   -49.1890652 Eh     change       -0.4698187E-05 Eh
   *** GEOMETRY OPTIMIZATION CONVERGED AFTER 21 ITERATIONS ***

 final structure:
================
32
 xtb: 6.3.3 (4ae9cef)
C        -5.82029817856189   -0.38611380102424    0.45159792003694
O        -4.68935635956399   -1.20215134837669    0.61731607709455
C        -3.46184181329574   -0.67141153106279    0.32881179839030
C        -3.24440773761295    0.61124213072616   -0.13672558356111
C        -1.93089408652824    1.01360760309797   -0.37738853088930
C        -0.84757201935195    0.14063774971082   -0.12669543983968
N         0.31472116308943    0.80734204673212   -0.46217464337313
C        -0.03051512656212    2.05049432124158   -0.94124741796726
C        -1.37501209868205    2.22133323403682   -0.89131266350206
C         1.63141195028792    0.38911824819484   -0.32825589700435
N         2.49152767355094    0.91267511787980   -1.19518183319295
C         3.76265159809463    0.56980684074977   -1.11725859230681
C         4.27436987726686   -0.31567437634589   -0.17716368624593
C         5.72800276782779   -0.66388337902754   -0.12894970064918
C         3.37034034550462   -0.83609452829855    0.74615523069994
C         2.03739006449470   -0.48385987310704    0.68448873916139
C        -1.08090470240609   -1.16376676018234    0.29390089067025
C        -2.38163310979565   -1.54981388708815    0.52134304469597
H        -5.77169336049570    0.50367005334485    1.08860752952148
H        -5.94572624839705   -0.07735491480172   -0.59179772636788
H        -6.67197796006059   -0.99572960418456    0.75028428688796
H        -4.05153402455194    1.29955687743178   -0.32995208509990
H         0.74253052323182    2.71828965785903   -1.26647682863493
H        -1.91976111586018    3.09705714485582   -1.18326555799556
H         4.40807862506453    1.03163539720081   -1.85342566530855
H         6.20843610477783   -0.44985667896716   -1.08045398379449
H         6.22690965281951   -0.07882844856828    0.64442395117668
H         5.86343663477993   -1.71706944049454    0.10882835649204
H         3.71703065837172   -1.50590907050850    1.52111354510248
H         1.33521733287602   -0.83999547276981    1.41979214764338
H        -0.28154524026146   -1.87726010631677    0.41725570687621
H        -2.60738179004837   -2.55169220193982    0.85000261128341

          :  Hamiltonian                  GFN2-xTB          :
         :: total energy             -49.189065217310 Eh    ::
         :: gradient norm              0.000663705761 Eh/a0 ::
         :: HOMO-LUMO gap              2.928366362531 eV    ::
         :: SCC energy               -49.986850616451 Eh    ::
         :: -> dispersion             -0.033322410997 Eh    ::
         :: repulsion energy           0.797996297248 Eh    ::

    * Orbital Energies and Occupations

         #    Occupation            Energy/Eh            Energy/eV
      -------------------------------------------------------------
         1        2.0000           -0.7060606             -19.2129
       ...           ...                  ...                  ...
        33        2.0000           -0.4635120             -12.6128
        34        2.0000           -0.4628570             -12.5950
        35        2.0000           -0.4539459             -12.3525
        36        2.0000           -0.4487440             -12.2109
        37        2.0000           -0.4403947             -11.9838
        38        2.0000           -0.4340625             -11.8114
        39        2.0000           -0.4323343             -11.7644
        40        2.0000           -0.4218156             -11.4782
        41        2.0000           -0.4138500             -11.2614
        42        2.0000           -0.4013080             -10.9201
        43        2.0000           -0.3738161             -10.1721
        44        2.0000           -0.3675935             -10.0027
        45        2.0000           -0.3578498              -9.7376 (HOMO)
        46                         -0.2502343              -6.8092 (LUMO)
        47                         -0.2408022              -6.5526
        48                         -0.2231315              -6.0717
        49                         -0.1855934              -5.0503
        50                         -0.1535177              -4.1774
        51                         -0.1057414              -2.8774
        52                         -0.0666591              -1.8139
        53                          0.0235935               0.6420
        54                          0.0430086               1.1703
        55                          0.0985456               2.6816
        56                          0.1135434               3.0897
       ...                                ...                  ...
        86                          0.7298024              19.8589
      -------------------------------------------------------------
                  HL-Gap            0.1076155 Eh            2.9284 eV

     #   Z          covCN         q      C6AA      Î±(0)
     1   6 C        3.645     0.040    20.228     6.464
     2   8 O        1.705    -0.276    18.586     5.821
     3   6 C        2.866     0.134    25.068     8.207
     4   6 C        2.910    -0.076    29.885     8.964
     5   6 C        3.115    -0.009    28.072     8.679
     6   6 C        3.083     0.027    27.312     8.567
     7   7 N        2.833    -0.016    21.553     6.895
     8   6 C        3.038     0.001    27.979     8.676
     9   6 C        3.004    -0.070    29.733     8.945
    10   6 C        2.903     0.143    24.895     8.181
    11   7 N        1.846    -0.247    27.282     7.741
    12   6 C        2.912     0.051    26.850     8.497
    13   6 C        2.961     0.000    28.020     8.682
    14   6 C        3.757    -0.110    22.649     6.785
    15   6 C        2.935    -0.023    28.573     8.766
    16   6 C        2.913    -0.059    29.473     8.902
    17   6 C        2.909    -0.048    29.195     8.860
    18   6 C        2.925    -0.060    29.496     8.906
    19   1 H        0.924     0.037     2.486     2.466
    20   1 H        0.924     0.037     2.484     2.465
    21   1 H        0.925     0.058     2.224     2.332
    22   1 H        0.926     0.034     2.525     2.485
    23   1 H        0.926     0.053     2.282     2.362
    24   1 H        0.926     0.033     2.539     2.492
    25   1 H        0.925     0.039     2.458     2.452
    26   1 H        0.925     0.045     2.378     2.411
    27   1 H        0.924     0.051     2.310     2.377
    28   1 H        0.925     0.048     2.350     2.397
    29   1 H        0.925     0.037     2.495     2.470
    30   1 H        0.926     0.044     2.394     2.420
    31   1 H        0.926     0.034     2.535     2.490
    32   1 H        0.926     0.046     2.365     2.405

Wiberg/Mayer (AO) data.
largest (>0.10) Wiberg bond orders for each atom

     #   Z sym  total        # sym  WBO       # sym  WBO       # sym  WBO
 ---------------------------------------------------------------------------
     1   6 C    3.950 --     2 O    0.990    21 H    0.980    19 H    0.977
                            20 H    0.976
     2   8 O    2.212 --     3 C    1.047     1 C    0.990
     3   6 C    3.927 --     4 C    1.431    18 C    1.304     2 O    1.047
     4   6 C    3.982 --     3 C    1.431     5 C    1.329    22 H    0.965
                            17 C    0.102
     5   6 C    3.982 --     4 C    1.329     6 C    1.261     9 C    1.208
     6   6 C    3.954 --    17 C    1.343     5 C    1.261     7 N    1.120
     7   7 N    3.623 --     8 C    1.157     6 C    1.120    10 C    1.078
     8   6 C    3.951 --     9 C    1.632     7 N    1.157    23 H    0.967
     9   6 C    3.970 --     8 C    1.632     5 C    1.208    24 H    0.973
    10   6 C    3.969 --    11 N    1.373    16 C    1.340     7 N    1.078
    11   7 N    3.055 --    12 C    1.441    10 C    1.373
    12   6 C    3.981 --    11 N    1.441    13 C    1.400    25 H    0.962
                            16 C    0.109
    13   6 C    3.972 --    12 C    1.400    15 C    1.390    14 C    1.027
    14   6 C    3.995 --    13 C    1.027    26 H    0.984    28 H    0.979
                            27 H    0.967
    15   6 C    3.990 --    16 C    1.474    13 C    1.390    29 H    0.969
    16   6 C    3.987 --    15 C    1.474    10 C    1.340    30 H    0.964
                            12 C    0.109
    17   6 C    3.987 --    18 C    1.501     6 C    1.343    31 H    0.964
                             4 C    0.102
    18   6 C    3.985 --    17 C    1.501     3 C    1.304    32 H    0.969
    19   1 H    0.998 --     1 C    0.977
    20   1 H    0.998 --     1 C    0.976
    21   1 H    0.996 --     1 C    0.980
    22   1 H    0.998 --     4 C    0.965
    23   1 H    0.996 --     8 C    0.967
    24   1 H    0.998 --     9 C    0.973
    25   1 H    0.998 --    12 C    0.962
    26   1 H    0.997 --    14 C    0.984
    27   1 H    0.996 --    14 C    0.967
    28   1 H    0.997 --    14 C    0.979
    29   1 H    0.998 --    15 C    0.969
    30   1 H    0.998 --    16 C    0.964
    31   1 H    0.998 --    17 C    0.964
    32   1 H    0.997 --    18 C    0.969
 ---------------------------------------------------------------------------

molecular dipole:
                 x           y           z       tot (Debye)
 q only:        0.450       0.092       0.197
   full:        0.617      -0.042       0.426       1.910

           -------------------------------------------------
          | TOTAL ENERGY              -49.189065217310 Eh   |
          | GRADIENT NORM               0.000663705761 Eh/Î± |
          | HOMO-LUMO GAP               2.928366362531 eV   |
           -------------------------------------------------

 * finished run on 2022/03/17 at 02:20:12.303
