   * xtb version 6.3.3 (4ae9cef) compiled by 'conda@95abc7406d43' on 2020-10-14
          program call               : xtb acid_56.xyz --opt --chrg 0 --uhf 0 --gfn 2
          number of atoms            :                    62
          number of electrons        :                   194
          charge                     :                     0
          spin                       :                   0.0

   ID    Z sym.   atoms
    1    6 C      1, 3-16, 18, 20-24, 27, 28, 32-36
    2    8 O      2, 17, 25, 26, 29, 30, 37, 38
    3    7 N      19, 31
    4    1 H      39-62

          :  Hamiltonian                  GFN2-xTB          :
 * total energy  :  -110.5935609 Eh     change       -0.3501853E-08 Eh
 * total energy  :  -110.6082719 Eh     change       -0.1471098E-01 Eh
 * total energy  :  -110.6130470 Eh     change       -0.4775110E-02 Eh
 * total energy  :  -110.6144896 Eh     change       -0.1442558E-02 Eh
 * total energy  :  -110.6153689 Eh     change       -0.8793201E-03 Eh
 * total energy  :  -110.6160183 Eh     change       -0.6493858E-03 Eh
 * total energy  :  -110.6165837 Eh     change       -0.5654488E-03 Eh
 * total energy  :  -110.6170075 Eh     change       -0.4237966E-03 Eh
 * total energy  :  -110.6174407 Eh     change       -0.4331313E-03 Eh
 * total energy  :  -110.6178371 Eh     change       -0.3964621E-03 Eh
 * total energy  :  -110.6240887 Eh     change        0.9912800E-05 Eh
 * total energy  :  -110.6241020 Eh     change       -0.1332834E-04 Eh
 * total energy  :  -110.6241092 Eh     change       -0.7120630E-05 Eh
 * total energy  :  -110.6240983 Eh     change        0.1089174E-04 Eh
 * total energy  :  -110.6241116 Eh     change       -0.1338054E-04 Eh
 * total energy  :  -110.6241167 Eh     change       -0.5051029E-05 Eh
 * total energy  :  -110.6241153 Eh     change        0.1421743E-05 Eh
 * total energy  :  -110.6241216 Eh     change       -0.6286729E-05 Eh
 * total energy  :  -110.6241241 Eh     change       -0.2565551E-05 Eh
   *** GEOMETRY OPTIMIZATION CONVERGED AFTER 98 ITERATIONS ***

 final structure:
================
62
 xtb: 6.3.3 (4ae9cef)
C        -2.00758757438070    0.57798665930387   -1.24969938930010
O        -1.08013222391531    1.48461890439798   -1.66333890530799
C        -1.27356758906855    2.14079584322476   -2.89666731917519
C        -3.18844657972634    0.30415320830105   -1.93258769239806
C        -4.07823748993381   -0.63818255450384   -1.44845690107994
C        -3.80968666437152   -1.31779272244535   -0.27558273789450
C        -2.64271139191509   -1.04256294651638    0.41372687251495
C        -1.73878471231832   -0.10251023643872   -0.05268550759790
C        -0.44747490386751    0.09535073184981    0.69486417680328
C         0.68707965830018   -0.72476261849648    0.04520572756340
C         0.81465695132065   -2.07299648750714    0.69608383875773
C         1.51333709920979   -2.24113130325696    1.87779863264064
C         1.59497897911646   -3.48370467422540    2.48271882912841
C         0.96145931964807   -4.56475212496837    1.90095430215333
C         0.24348504506387   -4.41237708911792    0.72627065653706
C         0.15892200708866   -3.16766689396979    0.11479604465624
O        -0.54324339247372   -2.91142323682024   -1.02488479461437
C        -1.18648407245720   -3.97824003748336   -1.67662747343740
N         1.86190155078458    0.11881981659722    0.21886513921557
C         3.04768368693104   -0.33575055018100   -0.30330878464746
C         4.18968019102261    0.58592060904809   -0.32872129372538
C         5.43156801183273    0.32509974759494   -0.85233795444870
C         6.19018368133229    1.50157326024877   -0.68376884208149
C         5.36233489972020    2.39278712137808   -0.07102313696357
O         4.15487126315847    1.85350357124166    0.14949611759552
O         3.17678763824906   -1.48978250524718   -0.66305665726224
C         1.45087296167535    1.49504314654107    0.23943442247180
C         1.61090811896390    2.13587807478015   -1.18068017124476
O         1.29243450440033    3.40725369666105   -1.25231304021642
O         2.04225030059985    1.50048144998117   -2.10008605293242
N         0.07099713788753    1.45107751252678    0.69568008276987
C        -0.55824251529041    2.57081534467385    1.08441646781241
C        -1.88327290684761    2.48656234483038    1.69207849258716
C        -2.76508717073573    3.52651714268581    1.87384265140098
C        -3.89683202088053    2.97659468225295    2.50623091789110
C        -3.62171972896805    1.65055119034994    2.67207870933073
O        -2.41454901571623    1.34636132524753    2.18778891964271
O        -0.03324083499073    3.68398848515678    0.93935399588726
H        -1.34095091259996    1.42530114816997   -3.72067787992899
H        -0.39417421987854    2.76637825353909   -3.03617143738736
H        -2.16841441280222    2.77065888591956   -2.87563074125601
H        -3.41810756305044    0.81836362014432   -2.85181281226309
H        -4.98536363854704   -0.83906290223305   -1.99864930902876
H        -4.50123495327722   -2.05640846014971    0.09947629553058
H        -2.41794851805020   -1.56857671327935    1.32994652202753
H        -0.58035150034708   -0.23595934916801    1.73369410627383
H         0.49032870701080   -0.86545776424894   -1.02510022243085
H         2.01196199731692   -1.38994818702273    2.31727348794647
H         2.15179754324099   -3.60517731121759    3.39903546473649
H         1.02101556210093   -5.54056591589925    2.35991578556339
H        -0.24348578221754   -5.27216508957445    0.29382896975163
H        -0.47493626344502   -4.74939214622574   -1.98724644286167
H        -1.65344547280435   -3.54186078308853   -2.55844598142804
H        -1.96118449871427   -4.42564106603487   -1.04479729373397
H         5.73569518782959   -0.59842009970210   -1.29881693854424
H         7.20634405946475    1.66449484586425   -0.97820823126660
H         5.50867622484382    3.40576514657838    0.24980265557610
H         2.04388521418439    2.09502532270817    0.94673789273932
H         0.86020216878285    3.72704600734885   -0.40066986656615
H        -2.60131160456034    4.54337041213849    1.58254713191501
H        -4.78758964372784    3.49245275364261    2.79927393395397
H        -4.18849889920565    0.85168150408984    3.10883556764930

          :  Hamiltonian                  GFN2-xTB          :
         :: total energy            -110.624124126597 Eh    ::
         :: gradient norm              0.000607247961 Eh/a0 ::
         :: HOMO-LUMO gap              2.646527615687 eV    ::
         :: SCC energy              -112.061735804447 Eh    ::
         :: -> dispersion             -0.087458594434 Eh    ::
         :: repulsion energy           1.434765694406 Eh    ::

    * Orbital Energies and Occupations

         #    Occupation            Energy/Eh            Energy/eV
      -------------------------------------------------------------
         1        2.0000           -0.7647798             -20.8107
       ...           ...                  ...                  ...
        85        2.0000           -0.4343447             -11.8191
        86        2.0000           -0.4294910             -11.6870
        87        2.0000           -0.4271278             -11.6227
        88        2.0000           -0.4237097             -11.5297
        89        2.0000           -0.4192593             -11.4086
        90        2.0000           -0.4144268             -11.2771
        91        2.0000           -0.4063125             -11.0563
        92        2.0000           -0.4047835             -11.0147
        93        2.0000           -0.3967443             -10.7960
        94        2.0000           -0.3931143             -10.6972
        95        2.0000           -0.3897367             -10.6053
        96        2.0000           -0.3828282             -10.4173
        97        2.0000           -0.3757120             -10.2236 (HOMO)
        98                         -0.2784539              -7.5771 (LUMO)
        99                         -0.2544412              -6.9237
       100                         -0.2388801              -6.5003
       101                         -0.2308917              -6.2829
       102                         -0.2260999              -6.1525
       103                         -0.2233808              -6.0785
       104                         -0.2134272              -5.8077
       105                         -0.2048395              -5.5740
       106                         -0.1833113              -4.9882
       107                         -0.1589878              -4.3263
       108                         -0.1331371              -3.6228
       ...                                ...                  ...
       176                          0.7117036              19.3664
      -------------------------------------------------------------
                  HL-Gap            0.0972581 Eh            2.6465 eV

     #   Z          covCN         q      C6AA      Î±(0)
     1   6 C        2.865     0.143    24.875     8.175
     2   8 O        1.705    -0.280    18.645     5.830
     3   6 C        3.643     0.037    20.292     6.476
     4   6 C        2.918    -0.065    29.629     8.926
     5   6 C        2.921    -0.032    28.791     8.799
     6   6 C        2.917    -0.041    29.011     8.832
     7   6 C        2.926    -0.030    28.748     8.793
     8   6 C        2.972    -0.016    28.416     8.744
     9   6 C        3.822     0.042    19.852     6.341
    10   6 C        3.846     0.052    19.668     6.308
    11   6 C        2.974    -0.007    28.182     8.708
    12   6 C        2.923    -0.030    28.740     8.791
    13   6 C        2.918    -0.040    28.988     8.829
    14   6 C        2.921    -0.031    28.785     8.798
    15   6 C        2.918    -0.065    29.614     8.924
    16   6 C        2.869     0.143    24.889     8.178
    17   8 O        1.705    -0.273    18.526     5.811
    18   6 C        3.644     0.038    20.270     6.472
    19   7 N        2.760    -0.118    23.576     7.212
    20   6 C        2.764     0.272    22.408     7.752
    21   6 C        3.109     0.086    25.944     8.345
    22   6 C        3.028    -0.042    29.007     8.834
    23   6 C        3.009    -0.057    29.405     8.895
    24   6 C        3.070     0.079    26.167     8.388
    25   8 O        1.729    -0.194    17.238     5.606
    26   8 O        0.860    -0.417    22.015     6.291
    27   6 C        3.770     0.076    19.345     6.268
    28   6 C        2.683     0.361    20.873     7.477
    29   8 O        1.653    -0.378    20.426     6.101
    30   8 O        0.856    -0.375    21.188     6.171
    31   7 N        2.760    -0.083    22.856     7.101
    32   6 C        2.761     0.258    22.652     7.794
    33   6 C        3.121     0.086    25.915     8.337
    34   6 C        3.028    -0.044    29.056     8.842
    35   6 C        3.011    -0.059    29.437     8.900
    36   6 C        3.078     0.080    26.140     8.382
    37   8 O        1.729    -0.174    16.926     5.555
    38   8 O        0.862    -0.475    23.231     6.462
    39   1 H        0.924     0.047     2.364     2.404
    40   1 H        0.925     0.080     1.979     2.200
    41   1 H        0.924     0.039     2.467     2.456
    42   1 H        0.926     0.044     2.400     2.423
    43   1 H        0.926     0.040     2.452     2.449
    44   1 H        0.926     0.038     2.478     2.462
    45   1 H        0.926     0.038     2.478     2.462
    46   1 H        0.923     0.061     2.193     2.316
    47   1 H        0.924     0.077     2.011     2.218
    48   1 H        0.926     0.039     2.463     2.454
    49   1 H        0.926     0.038     2.471     2.458
    50   1 H        0.926     0.038     2.469     2.457
    51   1 H        0.926     0.040     2.450     2.448
    52   1 H        0.924     0.048     2.349     2.397
    53   1 H        0.925     0.061     2.185     2.312
    54   1 H        0.924     0.039     2.463     2.454
    55   1 H        0.927     0.068     2.112     2.273
    56   1 H        0.926     0.050     2.314     2.379
    57   1 H        0.926     0.056     2.246     2.344
    58   1 H        0.923     0.078     1.995     2.209
    59   1 H        0.799     0.370     0.545     1.160
    60   1 H        0.926     0.068     2.103     2.268
    61   1 H        0.927     0.054     2.264     2.353
    62   1 H        0.926     0.061     2.193     2.316

Wiberg/Mayer (AO) data.
largest (>0.10) Wiberg bond orders for each atom

     #   Z sym  total        # sym  WBO       # sym  WBO       # sym  WBO
 ---------------------------------------------------------------------------
     1   6 C    3.936 --     4 C    1.373     8 C    1.326     2 O    1.067
     2   8 O    2.235 --     1 C    1.067     3 C    0.975
     3   6 C    3.936 --    41 H    0.977    39 H    0.977    40 H    0.975
                             2 O    0.975
     4   6 C    3.987 --     5 C    1.441     1 C    1.373    42 H    0.965
                             7 C    0.102
     5   6 C    3.990 --     4 C    1.441     6 C    1.438    43 H    0.971
                             8 C    0.106
     6   6 C    3.991 --     5 C    1.438     7 C    1.430    44 H    0.971
     7   6 C    3.989 --     6 C    1.430     8 C    1.430    45 H    0.968
                             4 C    0.102
     8   6 C    3.982 --     7 C    1.430     1 C    1.326     9 C    0.992
                             5 C    0.106
     9   6 C    3.962 --     8 C    0.992    31 N    0.961    46 H    0.950
                            10 C    0.947
    10   6 C    3.963 --    11 C    0.995    19 N    0.960    47 H    0.948
                             9 C    0.947
    11   6 C    3.983 --    12 C    1.439    16 C    1.323    10 C    0.995
                            14 C    0.106
    12   6 C    3.989 --    11 C    1.439    13 C    1.425    48 H    0.968
                            15 C    0.102
    13   6 C    3.991 --    14 C    1.444    12 C    1.425    49 H    0.971
    14   6 C    3.991 --    13 C    1.444    15 C    1.434    50 H    0.971
                            11 C    0.106
    15   6 C    3.987 --    14 C    1.434    16 C    1.382    51 H    0.966
                            12 C    0.102
    16   6 C    3.934 --    15 C    1.382    11 C    1.323    17 O    1.060
    17   8 O    2.232 --    16 C    1.060    18 C    0.983
    18   6 C    3.944 --    17 O    0.983    53 H    0.980    54 H    0.976
                            52 H    0.976
    19   7 N    3.419 --    20 C    1.162    27 C    1.001    10 C    0.960
                            26 O    0.172
    20   6 C    3.958 --    26 O    1.668    19 N    1.162    21 C    1.030
    21   6 C    3.905 --    22 C    1.527    25 O    1.098    20 C    1.030
                            24 C    0.139
    22   6 C    3.984 --    21 C    1.527    23 C    1.319    55 H    0.972
    23   6 C    3.984 --    24 C    1.586    22 C    1.319    56 H    0.974
    24   6 C    3.906 --    23 C    1.586    25 O    1.142    57 H    0.965
                            21 C    0.139
    25   8 O    2.437 --    24 C    1.142    21 C    1.098
    26   8 O    2.013 --    20 C    1.668    19 N    0.172
    27   6 C    3.956 --    19 N    1.001    31 N    0.969    58 H    0.936
                            28 C    0.881
    28   6 C    3.928 --    30 O    1.772    29 O    1.211    27 C    0.881
    29   8 O    2.230 --    28 C    1.211    59 H    0.744    30 O    0.180
    30   8 O    2.081 --    28 C    1.772    29 O    0.180
    31   7 N    3.527 --    32 C    1.275    27 C    0.969     9 C    0.961
                            38 O    0.180
    32   6 C    3.959 --    38 O    1.526    31 N    1.275    33 C    1.046
    33   6 C    3.906 --    34 C    1.511    37 O    1.102    32 C    1.046
                            36 C    0.136
    34   6 C    3.982 --    33 C    1.511    35 C    1.330    60 H    0.972
    35   6 C    3.983 --    36 C    1.573    34 C    1.330    61 H    0.973
    36   6 C    3.907 --    35 C    1.573    37 O    1.157    62 H    0.965
                            33 C    0.136
    37   8 O    2.456 --    36 C    1.157    33 C    1.102
    38   8 O    1.984 --    32 C    1.526    31 N    0.180
    39   1 H    0.998 --     3 C    0.977
    40   1 H    0.993 --     3 C    0.975
    41   1 H    0.998 --     3 C    0.977
    42   1 H    0.998 --     4 C    0.965
    43   1 H    0.998 --     5 C    0.971
    44   1 H    0.998 --     6 C    0.971
    45   1 H    0.998 --     7 C    0.968
    46   1 H    0.996 --     9 C    0.950
    47   1 H    0.993 --    10 C    0.948
    48   1 H    0.998 --    12 C    0.968
    49   1 H    0.998 --    13 C    0.971
    50   1 H    0.998 --    14 C    0.971
    51   1 H    0.998 --    15 C    0.966
    52   1 H    0.998 --    18 C    0.976
    53   1 H    0.996 --    18 C    0.980
    54   1 H    0.998 --    18 C    0.976
    55   1 H    0.995 --    22 C    0.972
    56   1 H    0.997 --    23 C    0.974
    57   1 H    0.996 --    24 C    0.965
    58   1 H    0.993 --    27 C    0.936
    59   1 H    0.863 --    29 O    0.744
    60   1 H    0.995 --    34 C    0.972
    61   1 H    0.997 --    35 C    0.973
    62   1 H    0.996 --    36 C    0.965
 ---------------------------------------------------------------------------

molecular dipole:
                 x           y           z       tot (Debye)
 q only:       -2.068      -0.334       1.016
   full:       -2.350      -0.234       1.175       6.704

           -------------------------------------------------
          | TOTAL ENERGY             -110.624124126597 Eh   |
          | GRADIENT NORM               0.000607247961 Eh/Î± |
          | HOMO-LUMO GAP               2.646527615687 eV   |
           -------------------------------------------------

 * finished run on 2022/03/17 at 01:51:06.509
