   * xtb version 6.3.3 (4ae9cef) compiled by 'conda@95abc7406d43' on 2020-10-14
          program call               : xtb acid_330.xyz --opt --chrg 0 --uhf 0 --gfn 2
          number of atoms            :                    62
          number of electrons        :                   180
          charge                     :                     0
          spin                       :                   0.0

   ID    Z sym.   atoms
    1    6 C      1-11, 13, 14, 18-28, 30-35
    2    7 N      12, 17
    3    8 O      15, 16, 29, 36
    4    1 H      37-62

          :  Hamiltonian                  GFN2-xTB          :
 * total energy  :   -99.6609277 Eh     change       -0.3714234E-08 Eh
 * total energy  :   -99.6748423 Eh     change       -0.1391460E-01 Eh
 * total energy  :   -99.6777853 Eh     change       -0.2943030E-02 Eh
 * total energy  :   -99.6784879 Eh     change       -0.7026488E-03 Eh
 * total energy  :   -99.6788506 Eh     change       -0.3626994E-03 Eh
 * total energy  :   -99.6790972 Eh     change       -0.2465329E-03 Eh
 * total energy  :   -99.6792373 Eh     change       -0.1401024E-03 Eh
 * total energy  :   -99.6793708 Eh     change       -0.1335164E-03 Eh
 * total energy  :   -99.6794662 Eh     change       -0.9546614E-04 Eh
 * total energy  :   -99.6795527 Eh     change       -0.8646283E-04 Eh
 * total energy  :   -99.6802976 Eh     change       -0.1158898E-04 Eh
 * total energy  :   -99.6803103 Eh     change       -0.1274095E-04 Eh
 * total energy  :   -99.6803235 Eh     change       -0.1317262E-04 Eh
 * total energy  :   -99.6803338 Eh     change       -0.1029680E-04 Eh
 * total energy  :   -99.6803341 Eh     change       -0.3447407E-06 Eh
 * total energy  :   -99.6803419 Eh     change       -0.7822878E-05 Eh
 * total energy  :   -99.6803481 Eh     change       -0.6188639E-05 Eh
 * total energy  :   -99.6803542 Eh     change       -0.6029922E-05 Eh
 * total energy  :   -99.6803556 Eh     change       -0.1435718E-05 Eh
   *** GEOMETRY OPTIMIZATION CONVERGED AFTER 40 ITERATIONS ***

 final structure:
================
62
 xtb: 6.3.3 (4ae9cef)
C         3.64788604552986    1.25326068511018   -1.28317224438759
C         4.65075252449913    0.67432802516600   -2.00704928656035
C         5.61783915846721   -0.14076544482714   -1.38110412469622
C         6.66001414234763   -0.75767980669133   -2.10372938309384
C         7.58745772417261   -1.53263208046272   -1.46564344944877
C         7.51533007444952   -1.72709772674589   -0.07703884245371
C         6.51703696222441   -1.14377021688637    0.65145252763415
C         5.54467663429200   -0.33755227476949    0.02332074804944
C         4.50638851718978    0.28217165853749    0.74779594110130
C         3.56619193474821    1.04714844954494    0.10881821196222
C         2.49734638243782    1.72577732134166    0.89858368178382
N         1.23223234363619    1.27532964988595    0.69338692264907
C         0.15278231141820    1.93219036680770    1.38981676643318
C         0.18550891404537    1.60299960060098    2.90871190665484
O        -0.60022673045202    2.36992059248019    3.64270632644312
O         0.82409514378704    0.68953341734823    3.34350933820685
N        -1.06147115908586    1.38040210653364    0.80455339891015
C        -2.23476414613356    2.00656906265903    1.02031750227982
C        -3.46940028893722    1.37371908421765    0.48467630144836
C        -3.96631924209020    0.23605678000209    1.06782975074495
C        -5.17340974566296   -0.33478885974629    0.61613950584905
C        -5.70648981803200   -1.50762828323205    1.19116686623783
C        -6.87386224521984   -2.04309539465315    0.72442743248107
C        -7.56125733550664   -1.43151750025998   -0.33627442277234
C        -7.07122056531224   -0.29321346172798   -0.91268781453227
C        -5.86927126105408    0.28559995581038   -0.45511398490551
C        -5.34187675063567    1.46610484602540   -1.01980530423736
C        -4.17642221133772    2.00571424291767   -0.55634884403318
O        -2.26802552475391    3.06242942953324    1.64553126034989
C        -0.72124840788678    0.07589201918720    0.26303798082707
C         0.71819843731883    0.28395230944373   -0.22774278520272
C         1.41192818344644   -1.07587226022046   -0.27512917731104
C         0.40425647587883   -2.13262931498497   -0.76730663324707
C        -0.67377174092534   -1.51002247280067   -1.65707520846700
C        -1.54831535440909   -0.50807749058007   -0.87675614641806
O         2.71647884808079    2.63756413893495    1.66913991523797
H         2.91972399915784    1.88862489687649   -1.76660596028845
H         4.72018122640810    0.83641881287033   -3.07341819274364
H         6.71258453757315   -0.60392572919954   -3.17234026651682
H         8.38432950647509   -2.00051472458575   -2.02496717825513
H         8.25842621437264   -2.34139032065338    0.40986339855397
H         6.45705576551259   -1.28761002123450    1.72040481573402
H         4.44993400499497    0.14581607319325    1.81760423200017
H         0.19280600600133    3.02364604083842    1.25413277797660
H        -1.17275703180473    2.95588832098026    3.09161878925920
H        -3.44238877628646   -0.23050537150559    1.89067834409997
H        -5.17450534499477   -1.97309664060366    2.00846245638156
H        -7.27762937151816   -2.94045971071818    1.16911772472727
H        -8.48295057487871   -1.86854850616442   -0.69085475891113
H        -7.59819031964288    0.18208284023129   -1.72746328288901
H        -5.88245432549390    1.94299847890913   -1.82440001503214
H        -3.78032602562450    2.91761719149050   -0.97721597169827
H        -0.69612375061325   -0.63027576717682    1.10481842758964
H         0.69159641228620    0.72255977646994   -1.23600670857913
H         2.26970950063573   -1.03506689435462   -0.94539454232091
H         1.77447429901842   -1.33187036827772    0.72062436853663
H         0.93460329251374   -2.90380070107146   -1.32626827075965
H        -0.07715744536156   -2.62154031067366    0.08050239126428
H        -0.19081753068225   -1.01437199681556   -2.50028794959264
H        -1.30955509504181   -2.29613542834237   -2.06516184873462
H        -1.89071535242645    0.28727799144267   -1.54007024587417
H        -2.42890305112003   -1.01414108542390   -0.48287616745909

          :  Hamiltonian                  GFN2-xTB          :
         :: total energy             -99.680355600444 Eh    ::
         :: gradient norm              0.000403185206 Eh/a0 ::
         :: HOMO-LUMO gap              2.895788293822 eV    ::
         :: SCC energy              -101.190982758548 Eh    ::
         :: -> dispersion             -0.080399248450 Eh    ::
         :: repulsion energy           1.509430528883 Eh    ::

    * Orbital Energies and Occupations

         #    Occupation            Energy/Eh            Energy/eV
      -------------------------------------------------------------
         1        2.0000           -0.7430341             -20.2190
       ...           ...                  ...                  ...
        78        2.0000           -0.4399536             -11.9717
        79        2.0000           -0.4342833             -11.8175
        80        2.0000           -0.4329604             -11.7815
        81        2.0000           -0.4316404             -11.7455
        82        2.0000           -0.4224807             -11.4963
        83        2.0000           -0.4197197             -11.4212
        84        2.0000           -0.4152162             -11.2986
        85        2.0000           -0.4133506             -11.2478
        86        2.0000           -0.4080795             -11.1044
        87        2.0000           -0.3975336             -10.8174
        88        2.0000           -0.3934426             -10.7061
        89        2.0000           -0.3921364             -10.6706
        90        2.0000           -0.3865309             -10.5180 (HOMO)
        91                         -0.2801126              -7.6223 (LUMO)
        92                         -0.2688082              -7.3146
        93                         -0.2547432              -6.9319
        94                         -0.2414842              -6.5711
        95                         -0.2385683              -6.4918
        96                         -0.2317050              -6.3050
        97                         -0.2109444              -5.7401
        98                         -0.2073713              -5.6429
        99                         -0.1956739              -5.3246
       100                         -0.1638951              -4.4598
       101                         -0.1528942              -4.1605
       ...                                ...                  ...
       170                          0.6897081              18.7679
      -------------------------------------------------------------
                  HL-Gap            0.1064183 Eh            2.8958 eV

     #   Z          covCN         q      C6AA      Î±(0)
     1   6 C        2.918    -0.031    28.784     8.798
     2   6 C        2.917    -0.036    28.884     8.813
     3   6 C        2.987     0.013    27.710     8.635
     4   6 C        2.918    -0.035    28.863     8.810
     5   6 C        2.916    -0.028    28.708     8.786
     6   6 C        2.916    -0.028    28.702     8.785
     7   6 C        2.918    -0.033    28.815     8.803
     8   6 C        2.987     0.016    27.649     8.625
     9   6 C        2.923    -0.028    28.701     8.785
    10   6 C        2.972    -0.014    28.353     8.734
    11   6 C        2.769     0.273    22.381     7.748
    12   7 N        2.763    -0.118    23.566     7.210
    13   6 C        3.796     0.084    19.191     6.238
    14   6 C        2.686     0.358    20.919     7.485
    15   8 O        1.657    -0.360    20.092     6.051
    16   8 O        0.856    -0.362    20.944     6.136
    17   7 N        2.762    -0.119    23.588     7.213
    18   6 C        2.767     0.269    22.461     7.762
    19   6 C        2.972    -0.013    28.333     8.731
    20   6 C        2.922    -0.035    28.863     8.810
    21   6 C        2.987     0.015    27.665     8.628
    22   6 C        2.918    -0.034    28.847     8.808
    23   6 C        2.916    -0.027    28.677     8.781
    24   6 C        2.916    -0.027    28.676     8.781
    25   6 C        2.918    -0.033    28.826     8.804
    26   6 C        2.987     0.015    27.663     8.628
    27   6 C        2.918    -0.032    28.806     8.801
    28   6 C        2.918    -0.026    28.640     8.776
    29   8 O        0.860    -0.462    22.948     6.423
    30   6 C        3.842     0.043    19.827     6.334
    31   6 C        3.829     0.044    19.807     6.332
    32   6 C        3.805    -0.069    21.825     6.651
    33   6 C        3.803    -0.064    21.729     6.636
    34   6 C        3.804    -0.063    21.715     6.634
    35   6 C        3.805    -0.066    21.762     6.641
    36   8 O        0.860    -0.426    22.209     6.318
    37   1 H        0.926     0.028     2.611     2.527
    38   1 H        0.926     0.036     2.498     2.472
    39   1 H        0.926     0.033     2.542     2.493
    40   1 H        0.926     0.033     2.538     2.491
    41   1 H        0.926     0.035     2.520     2.482
    42   1 H        0.926     0.039     2.459     2.452
    43   1 H        0.926     0.050     2.314     2.379
    44   1 H        0.923     0.079     1.993     2.208
    45   1 H        0.802     0.360     0.565     1.181
    46   1 H        0.925     0.035     2.516     2.481
    47   1 H        0.926     0.037     2.492     2.468
    48   1 H        0.926     0.037     2.488     2.466
    49   1 H        0.926     0.037     2.492     2.469
    50   1 H        0.926     0.037     2.486     2.466
    51   1 H        0.926     0.042     2.416     2.431
    52   1 H        0.926     0.042     2.419     2.432
    53   1 H        0.923     0.056     2.247     2.344
    54   1 H        0.923     0.044     2.402     2.424
    55   1 H        0.925     0.047     2.362     2.403
    56   1 H        0.925     0.057     2.235     2.338
    57   1 H        0.925     0.047     2.351     2.398
    58   1 H        0.924     0.044     2.397     2.421
    59   1 H        0.924     0.042     2.419     2.432
    60   1 H        0.924     0.047     2.360     2.402
    61   1 H        0.924     0.045     2.389     2.417
    62   1 H        0.925     0.047     2.354     2.399

Wiberg/Mayer (AO) data.
largest (>0.10) Wiberg bond orders for each atom

     #   Z sym  total        # sym  WBO       # sym  WBO       # sym  WBO
 ---------------------------------------------------------------------------
     1   6 C    3.991 --     2 C    1.562    10 C    1.285    37 H    0.969
     2   6 C    3.992 --     1 C    1.562     3 C    1.276    38 H    0.967
                             9 C    0.115
     3   6 C    3.991 --     4 C    1.281     2 C    1.276     8 C    1.251
     4   6 C    3.992 --     5 C    1.557     3 C    1.281    39 H    0.968
                             7 C    0.118
     5   6 C    3.990 --     4 C    1.557     6 C    1.321    40 H    0.971
     6   6 C    3.992 --     7 C    1.558     5 C    1.321    41 H    0.971
     7   6 C    3.989 --     6 C    1.558     8 C    1.278    42 H    0.968
                             4 C    0.118
     8   6 C    3.990 --     9 C    1.281     7 C    1.278     3 C    1.251
     9   6 C    3.989 --    10 C    1.521     8 C    1.281    43 H    0.966
                             2 C    0.115
    10   6 C    3.987 --     9 C    1.521     1 C    1.285    11 C    0.964
    11   6 C    3.943 --    36 O    1.690    12 N    1.204    10 C    0.964
    12   7 N    3.460 --    11 C    1.204    13 C    0.987    31 C    0.971
                            36 O    0.190
    13   6 C    3.955 --    12 N    0.987    17 N    0.964    44 H    0.942
                            14 C    0.894
    14   6 C    3.929 --    16 O    1.788    15 O    1.189    13 C    0.894
    15   8 O    2.238 --    14 C    1.189    45 H    0.801    16 O    0.179
    16   8 O    2.082 --    14 C    1.788    15 O    0.179
    17   7 N    3.490 --    18 C    1.258    13 C    0.964    30 C    0.963
                            29 O    0.188
    18   6 C    3.942 --    29 O    1.609    17 N    1.258    19 C    0.972
    19   6 C    3.987 --    20 C    1.511    28 C    1.289    18 C    0.972
    20   6 C    3.990 --    19 C    1.511    21 C    1.282    46 H    0.967
                            27 C    0.115
    21   6 C    3.990 --    20 C    1.282    22 C    1.278    26 C    1.250
    22   6 C    3.989 --    23 C    1.558    21 C    1.278    47 H    0.968
                            25 C    0.118
    23   6 C    3.992 --    22 C    1.558    24 C    1.320    48 H    0.971
    24   6 C    3.990 --    25 C    1.557    23 C    1.320    49 H    0.971
    25   6 C    3.992 --    24 C    1.557    26 C    1.281    50 H    0.968
                            22 C    0.118
    26   6 C    3.990 --    25 C    1.281    27 C    1.278    21 C    1.250
    27   6 C    3.991 --    28 C    1.560    26 C    1.278    51 H    0.967
                            20 C    0.115
    28   6 C    3.990 --    27 C    1.560    19 C    1.289    52 H    0.969
    29   8 O    1.991 --    18 C    1.609    17 N    0.188
    30   6 C    3.964 --    35 C    0.995    31 C    0.974    17 N    0.963
                            53 H    0.952
    31   6 C    3.970 --    32 C    0.991    30 C    0.974    12 N    0.971
                            54 H    0.955
    32   6 C    3.992 --    33 C    0.999    31 C    0.991    55 H    0.977
                            56 H    0.976
    33   6 C    3.995 --    34 C    1.011    32 C    0.999    58 H    0.979
                            57 H    0.978
    34   6 C    3.995 --    33 C    1.011    35 C    0.997    59 H    0.979
                            60 H    0.978
    35   6 C    3.992 --    34 C    0.997    30 C    0.995    61 H    0.976
                            62 H    0.975
    36   8 O    2.014 --    11 C    1.690    12 N    0.190
    37   1 H    0.999 --     1 C    0.969
    38   1 H    0.997 --     2 C    0.967
    39   1 H    0.998 --     4 C    0.968
    40   1 H    0.998 --     5 C    0.971
    41   1 H    0.998 --     6 C    0.971
    42   1 H    0.998 --     7 C    0.968
    43   1 H    0.997 --     9 C    0.966
    44   1 H    0.993 --    13 C    0.942
    45   1 H    0.870 --    15 O    0.801
    46   1 H    0.998 --    20 C    0.967
    47   1 H    0.998 --    22 C    0.968
    48   1 H    0.998 --    23 C    0.971
    49   1 H    0.998 --    24 C    0.971
    50   1 H    0.998 --    25 C    0.968
    51   1 H    0.997 --    27 C    0.967
    52   1 H    0.998 --    28 C    0.969
    53   1 H    0.997 --    30 C    0.952
    54   1 H    0.998 --    31 C    0.955
    55   1 H    0.997 --    32 C    0.977
    56   1 H    0.997 --    32 C    0.976
    57   1 H    0.997 --    33 C    0.978
    58   1 H    0.998 --    33 C    0.979
    59   1 H    0.998 --    34 C    0.979
    60   1 H    0.997 --    34 C    0.978
    61   1 H    0.998 --    35 C    0.976
    62   1 H    0.997 --    35 C    0.975
 ---------------------------------------------------------------------------

molecular dipole:
                 x           y           z       tot (Debye)
 q only:       -1.095      -2.259      -2.701
   full:       -1.290      -2.121      -3.029       9.954

           -------------------------------------------------
          | TOTAL ENERGY              -99.680355600444 Eh   |
          | GRADIENT NORM               0.000403185206 Eh/Î± |
          | HOMO-LUMO GAP               2.895788293822 eV   |
           -------------------------------------------------

 * finished run on 2022/03/16 at 23:54:02.649
