   * xtb version 6.3.3 (4ae9cef) compiled by 'conda@95abc7406d43' on 2020-10-14
          program call               : xtb acid_485.xyz --opt --chrg 0 --uhf 0 --gfn 2
          number of atoms            :                    78
          number of electrons        :                   230
          charge                     :                     0
          spin                       :                   0.0

   ID    Z sym.   atoms
    1    6 C      1-22, 24-30, 33, 34, 38-44
    2    7 N      23, 37
    3    8 O      31, 32, 35, 36, 45, 46
    4    1 H      47-78

          :  Hamiltonian                  GFN2-xTB          :
 * total energy  :  -127.9865685 Eh     change       -0.8307438E-08 Eh
 * total energy  :  -128.0022912 Eh     change       -0.1572268E-01 Eh
 * total energy  :  -128.0075677 Eh     change       -0.5276491E-02 Eh
 * total energy  :  -128.0091918 Eh     change       -0.1624145E-02 Eh
 * total energy  :  -128.0101330 Eh     change       -0.9411815E-03 Eh
 * total energy  :  -128.0105590 Eh     change       -0.4260261E-03 Eh
 * total energy  :  -128.0109815 Eh     change       -0.4225199E-03 Eh
 * total energy  :  -128.0113785 Eh     change       -0.3969954E-03 Eh
 * total energy  :  -128.0117010 Eh     change       -0.3225156E-03 Eh
 * total energy  :  -128.0119379 Eh     change       -0.2368296E-03 Eh
 * total energy  :  -128.0160282 Eh     change       -0.5931192E-05 Eh
 * total energy  :  -128.0160387 Eh     change       -0.1055240E-04 Eh
 * total energy  :  -128.0160459 Eh     change       -0.7216739E-05 Eh
 * total energy  :  -128.0160529 Eh     change       -0.6955643E-05 Eh
 * total energy  :  -128.0160600 Eh     change       -0.7108301E-05 Eh
 * total energy  :  -128.0160669 Eh     change       -0.6856403E-05 Eh
 * total energy  :  -128.0160744 Eh     change       -0.7485919E-05 Eh
 * total energy  :  -128.0160810 Eh     change       -0.6662422E-05 Eh
 * total energy  :  -128.0160856 Eh     change       -0.4613758E-05 Eh
   *** GEOMETRY OPTIMIZATION CONVERGED AFTER 52 ITERATIONS ***

 final structure:
================
78
 xtb: 6.3.3 (4ae9cef)
C        -3.90209036300525   -4.71867771617914   -0.71314287422600
C        -3.20009239514287   -5.53915749291248    0.12141080467193
C        -2.13759771617049   -5.01897435338797    0.87254781969160
C        -1.78742934958847   -3.70239847963909    0.76684170414599
C        -2.47044585558058   -2.82746776263496   -0.10696552971368
C        -3.56197154731526   -3.35653083823222   -0.85055862150741
C        -4.28013495793622   -2.52196627680823   -1.73082198796151
C        -3.92080220765112   -1.21581147237016   -1.89575866980210
C        -2.82305156952827   -0.69668140163826   -1.19861451954391
C        -2.11309398760298   -1.46660682139647   -0.31209104644864
C        -0.88719150398435   -0.88772200471671    0.34619408445984
C         0.34860492850428   -1.02224545147103   -0.56854808340411
C         1.07703556648347   -2.31096811622024   -0.29683596669824
C         1.97758023401755   -2.36289992543413    0.73755427696316
C         2.61706921640058   -3.55733047213999    1.08934563987129
C         2.31906800961154   -4.71144833521291    0.42449861903324
C         1.38057733892823   -4.71067725330912   -0.62715528442318
C         0.75641872247812   -3.49323905023283   -1.01723871416133
C        -0.17245490223952   -3.54087416468374   -2.08036477973348
C        -0.48872615901604   -4.72016944146183   -2.69369361433562
C         0.11341552893349   -5.91999909372813   -2.29118440573421
C         1.03679068699414   -5.90963201770119   -1.28630016613901
N         1.13129045167168    0.16084794098720   -0.22870635016985
C         2.35112423556363    0.34891301885920   -0.83410072873610
C         3.10562604210483    1.53087651231790   -0.37767339208567
C         3.24932025684268    2.12216317953712    0.85240448823068
C         4.20594504364241    3.15144573376655    0.69922401091637
C         4.71119822817535    4.07383292614074    1.75400068774416
C         4.58220472920565    3.11234986657555   -0.62077608045819
C         5.54258837362013    3.94936802628238   -1.38707900123303
O         3.92807728015782    2.13148120375836   -1.26400414494270
O         2.79811358990797   -0.44663219342825   -1.63268639688712
C         0.23465693579292    1.22631403345581    0.17497552083088
C        -0.03836957416599    2.13929188391076   -1.03977783374682
O         0.87310855782925    3.10364936827756   -1.14343892170761
O        -0.92571849388791    1.97833966404872   -1.82800798744375
N        -0.95969418994281    0.54626604561016    0.59444569590223
C        -1.99346114889077    1.05707651904486    1.32178904228165
C        -2.04448527431786    2.50923578663148    1.50616626700033
C        -3.00543947027917    3.22676904215783    2.17356478117248
C        -2.65459397525158    4.59075125201241    2.06000052551411
C        -3.38310766703624    5.75995473419696    2.62566878910297
C        -1.49540497154732    4.61646571409815    1.32610461072382
C        -0.64118207742334    5.74860505769697    0.87981845760027
O        -1.12251676702165    3.36374475274203    0.98842352612083
O        -2.85605108036023    0.33487072253878    1.78770296128979
H        -4.73166559679063   -5.10140418319713   -1.29110045919538
H        -3.45991046111006   -6.58346474986449    0.21405423651161
H        -1.59123941160879   -5.66850360252759    1.54070392008943
H        -0.96487745470498   -3.34130975843271    1.36335248493920
H        -5.11369300302318   -2.93989777392280   -2.27742124733427
H        -4.46559303885866   -0.57472396016914   -2.57284189420247
H        -2.53260695621216    0.32801627323672   -1.37331023581342
H        -0.70283395135951   -1.38232975948833    1.30710328979140
H         0.04486907282180   -0.95761475991887   -1.62016015042026
H         2.20462941846969   -1.46443931759428    1.29328735570060
H         3.33336579839726   -3.55544703310084    1.89770626978459
H         2.79095012661481   -5.64416443534396    0.69859593341194
H        -0.65618101601814   -2.63879967106230   -2.41875691180573
H        -1.21109691707987   -4.73147764291973   -3.49644183830652
H        -0.15243454222101   -6.84328584363967   -2.78451397684134
H         1.51894744800971   -6.82474512187991   -0.97234069150261
H         2.76359526452233    1.84404024616316    1.76625409988834
H         4.00299603147479    4.13173867703628    2.57648856894282
H         5.66381420003851    3.71826623970777    2.14679398624539
H         4.86642289303301    5.07100484082522    1.34726261951045
H         5.27051392579410    5.00241265027424   -1.32471927053535
H         5.53794449459792    3.63847840113934   -2.42784612294427
H         6.54981344376708    3.83662520270988   -0.98818845302891
H         0.67220458621119    1.83514685457847    0.97439085998790
H         0.72143684018565    3.63207094275901   -1.94530195450127
H        -3.85312716244682    2.80924625956730    2.67611020752003
H        -2.79829429692125    6.22832206001741    3.41720611813421
H        -4.33470684474782    5.44082408919865    3.04046979569538
H        -3.56566143765522    6.50755090160645    1.85562000411668
H        -1.12700195579048    6.30335957841842    0.07680275263767
H        -0.46470767032681    6.43561691788989    1.70503098366455
H         0.30942242096257    5.36439162822291    0.51855450783078

          :  Hamiltonian                  GFN2-xTB          :
         :: total energy            -128.016085631960 Eh    ::
         :: gradient norm              0.000386669297 Eh/a0 ::
         :: HOMO-LUMO gap              2.749141769926 eV    ::
         :: SCC energy              -129.935757833649 Eh    ::
         :: -> dispersion             -0.113452507211 Eh    ::
         :: repulsion energy           1.916693187644 Eh    ::

    * Orbital Energies and Occupations

         #    Occupation            Energy/Eh            Energy/eV
      -------------------------------------------------------------
         1        2.0000           -0.7708440             -20.9757
       ...           ...                  ...                  ...
       103        2.0000           -0.4137641             -11.2591
       104        2.0000           -0.4118543             -11.2071
       105        2.0000           -0.4081120             -11.1053
       106        2.0000           -0.4046893             -11.0122
       107        2.0000           -0.3988083             -10.8521
       108        2.0000           -0.3967178             -10.7952
       109        2.0000           -0.3952036             -10.7540
       110        2.0000           -0.3929372             -10.6924
       111        2.0000           -0.3910981             -10.6423
       112        2.0000           -0.3886096             -10.5746
       113        2.0000           -0.3846619             -10.4672
       114        2.0000           -0.3727450             -10.1429
       115        2.0000           -0.3662491              -9.9661 (HOMO)
       116                         -0.2652200              -7.2170 (LUMO)
       117                         -0.2580119              -7.0209
       118                         -0.2566840              -6.9847
       119                         -0.2516692              -6.8483
       120                         -0.2496401              -6.7931
       121                         -0.2238842              -6.0922
       122                         -0.2190170              -5.9598
       123                         -0.1902754              -5.1777
       124                         -0.1887318              -5.1357
       125                         -0.1863407              -5.0706
       126                         -0.1798256              -4.8933
       ...                                ...                  ...
       216                          0.7039983              19.1568
      -------------------------------------------------------------
                  HL-Gap            0.1010291 Eh            2.7491 eV

     #   Z          covCN         q      C6AA      Î±(0)
     1   6 C        2.922    -0.035    28.861     8.810
     2   6 C        2.915    -0.030    28.754     8.793
     3   6 C        2.917    -0.029    28.731     8.790
     4   6 C        2.917    -0.033    28.813     8.802
     5   6 C        2.983     0.012    27.735     8.639
     6   6 C        2.989     0.016    27.648     8.625
     7   6 C        2.920    -0.036    28.899     8.816
     8   6 C        2.914    -0.028    28.691     8.783
     9   6 C        2.922    -0.033    28.822     8.804
    10   6 C        2.968     0.008    27.836     8.654
    11   6 C        3.831     0.048    19.747     6.323
    12   6 C        3.837     0.051    19.690     6.313
    13   6 C        2.969     0.009    27.822     8.652
    14   6 C        2.922    -0.032    28.791     8.799
    15   6 C        2.914    -0.029    28.728     8.789
    16   6 C        2.921    -0.035    28.882     8.813
    17   6 C        2.989     0.017    27.629     8.622
    18   6 C        2.984     0.013    27.707     8.634
    19   6 C        2.917    -0.031    28.783     8.798
    20   6 C        2.917    -0.028    28.695     8.784
    21   6 C        2.915    -0.029    28.718     8.788
    22   6 C        2.921    -0.034    28.851     8.808
    23   7 N        2.765    -0.136    23.944     7.268
    24   6 C        2.758     0.267    22.494     7.767
    25   6 C        3.093     0.073    26.273     8.401
    26   6 C        3.019    -0.072    29.763     8.949
    27   6 C        3.053    -0.025    28.584     8.768
    28   6 C        3.754    -0.107    22.608     6.780
    29   6 C        3.103     0.110    25.450     8.267
    30   6 C        3.753    -0.117    22.806     6.810
    31   8 O        1.730    -0.173    16.912     5.553
    32   8 O        0.859    -0.401    21.693     6.245
    33   6 C        3.761     0.090    19.136     6.236
    34   6 C        2.689     0.357    20.944     7.490
    35   8 O        1.659    -0.368    20.242     6.074
    36   8 O        0.856    -0.382    21.318     6.190
    37   7 N        2.763    -0.108    23.365     7.179
    38   6 C        2.759     0.261    22.609     7.787
    39   6 C        3.079     0.072    26.305     8.408
    40   6 C        3.019    -0.055    29.344     8.886
    41   6 C        3.049    -0.021    28.492     8.754
    42   6 C        3.754    -0.109    22.635     6.784
    43   6 C        3.092     0.112    25.427     8.265
    44   6 C        3.753    -0.118    22.815     6.811
    45   8 O        1.727    -0.221    17.656     5.673
    46   8 O        0.860    -0.427    22.235     6.322
    47   1 H        0.926     0.033     2.542     2.493
    48   1 H        0.926     0.031     2.575     2.510
    49   1 H        0.926     0.029     2.597     2.520
    50   1 H        0.926     0.026     2.650     2.546
    51   1 H        0.926     0.034     2.531     2.488
    52   1 H        0.926     0.036     2.505     2.475
    53   1 H        0.926     0.052     2.295     2.369
    54   1 H        0.924     0.057     2.230     2.335
    55   1 H        0.924     0.055     2.254     2.348
    56   1 H        0.926     0.029     2.606     2.524
    57   1 H        0.926     0.034     2.528     2.486
    58   1 H        0.926     0.036     2.505     2.475
    59   1 H        0.926     0.031     2.579     2.511
    60   1 H        0.926     0.032     2.554     2.499
    61   1 H        0.926     0.033     2.547     2.496
    62   1 H        0.926     0.034     2.525     2.485
    63   1 H        0.926     0.035     2.516     2.481
    64   1 H        0.925     0.049     2.338     2.391
    65   1 H        0.925     0.050     2.324     2.384
    66   1 H        0.925     0.045     2.389     2.417
    67   1 H        0.925     0.057     2.236     2.339
    68   1 H        0.925     0.068     2.106     2.270
    69   1 H        0.925     0.063     2.168     2.303
    70   1 H        0.924     0.076     2.020     2.223
    71   1 H        0.804     0.343     0.605     1.222
    72   1 H        0.927     0.064     2.155     2.296
    73   1 H        0.925     0.048     2.346     2.395
    74   1 H        0.925     0.055     2.260     2.351
    75   1 H        0.925     0.048     2.344     2.394
    76   1 H        0.924     0.060     2.196     2.317
    77   1 H        0.925     0.061     2.182     2.310
    78   1 H        0.925     0.064     2.149     2.293

Wiberg/Mayer (AO) data.
largest (>0.10) Wiberg bond orders for each atom

     #   Z sym  total        # sym  WBO       # sym  WBO       # sym  WBO
 ---------------------------------------------------------------------------
     1   6 C    3.991 --     2 C    1.557     6 C    1.279    47 H    0.968
                             4 C    0.118
     2   6 C    3.992 --     1 C    1.557     3 C    1.322    48 H    0.971
     3   6 C    3.992 --     4 C    1.555     2 C    1.322    49 H    0.971
     4   6 C    3.992 --     3 C    1.555     5 C    1.282    50 H    0.961
                             1 C    0.118
     5   6 C    3.989 --     4 C    1.282     6 C    1.253    10 C    1.251
     6   6 C    3.990 --     7 C    1.279     1 C    1.279     5 C    1.253
     7   6 C    3.990 --     8 C    1.553     6 C    1.279    51 H    0.968
                            10 C    0.114
     8   6 C    3.992 --     7 C    1.553     9 C    1.326    52 H    0.970
     9   6 C    3.988 --    10 C    1.524     8 C    1.326    53 H    0.962
    10   6 C    3.982 --     9 C    1.524     5 C    1.251    11 C    0.991
                             7 C    0.114
    11   6 C    3.960 --    10 C    0.991    37 N    0.957    12 C    0.947
                            54 H    0.946
    12   6 C    3.961 --    13 C    0.994    23 N    0.957    11 C    0.947
                            55 H    0.947
    13   6 C    3.984 --    14 C    1.521    18 C    1.253    12 C    0.994
                            16 C    0.115
    14   6 C    3.990 --    13 C    1.521    15 C    1.328    56 H    0.968
    15   6 C    3.992 --    16 C    1.551    14 C    1.328    57 H    0.970
    16   6 C    3.990 --    15 C    1.551    17 C    1.281    58 H    0.968
                            13 C    0.115
    17   6 C    3.990 --    16 C    1.281    22 C    1.279    18 C    1.252
    18   6 C    3.989 --    19 C    1.282    13 C    1.253    17 C    1.252
    19   6 C    3.992 --    20 C    1.556    18 C    1.282    59 H    0.961
                            22 C    0.118
    20   6 C    3.992 --    19 C    1.556    21 C    1.321    60 H    0.971
    21   6 C    3.992 --    22 C    1.558    20 C    1.321    61 H    0.971
    22   6 C    3.991 --    21 C    1.558    17 C    1.279    62 H    0.968
                            19 C    0.118
    23   7 N    3.411 --    24 C    1.158    33 C    0.972    12 C    0.957
                            32 O    0.175
    24   6 C    3.954 --    32 O    1.696    23 N    1.158    25 C    1.008
    25   6 C    3.906 --    26 C    1.517    31 O    1.112    24 C    1.008
                            29 C    0.133
    26   6 C    3.982 --    25 C    1.517    27 C    1.301    63 H    0.971
    27   6 C    3.980 --    29 C    1.509    26 C    1.301    28 C    1.031
    28   6 C    3.996 --    27 C    1.031    64 H    0.984    66 H    0.979
                            65 H    0.970
    29   6 C    3.907 --    27 C    1.509    31 O    1.133    30 C    1.030
                            25 C    0.133
    30   6 C    3.993 --    29 C    1.030    68 H    0.982    67 H    0.970
                            69 H    0.968
    31   8 O    2.452 --    29 C    1.133    25 C    1.112
    32   8 O    2.036 --    24 C    1.696    23 N    0.175
    33   6 C    3.970 --    37 N    0.998    23 N    0.972    70 H    0.940
                            34 C    0.906
    34   6 C    3.916 --    36 O    1.783    35 O    1.148    33 C    0.906
    35   8 O    2.211 --    34 C    1.148    71 H    0.856    36 O    0.178
    36   8 O    2.069 --    34 C    1.783    35 O    0.178
    37   7 N    3.459 --    38 C    1.187    33 C    0.998    11 C    0.957
                            46 O    0.184
    38   6 C    3.958 --    46 O    1.646    37 N    1.187    39 C    1.036
    39   6 C    3.899 --    40 C    1.521    45 O    1.080    38 C    1.036
                            43 C    0.133
    40   6 C    3.983 --    39 C    1.521    41 C    1.300    72 H    0.971
    41   6 C    3.981 --    43 C    1.516    40 C    1.300    42 C    1.031
    42   6 C    3.995 --    41 C    1.031    74 H    0.985    75 H    0.976
                            73 H    0.971
    43   6 C    3.903 --    41 C    1.516    45 O    1.111    44 C    1.030
                            39 C    0.133
    44   6 C    3.993 --    43 C    1.030    78 H    0.981    77 H    0.973
                            76 H    0.965
    45   8 O    2.411 --    43 C    1.111    39 C    1.080
    46   8 O    1.997 --    38 C    1.646    37 N    0.184
    47   1 H    0.998 --     1 C    0.968
    48   1 H    0.998 --     2 C    0.971
    49   1 H    0.999 --     3 C    0.971
    50   1 H    0.999 --     4 C    0.961
    51   1 H    0.998 --     7 C    0.968
    52   1 H    0.998 --     8 C    0.970
    53   1 H    0.997 --     9 C    0.962
    54   1 H    0.996 --    11 C    0.946
    55   1 H    0.996 --    12 C    0.947
    56   1 H    0.999 --    14 C    0.968
    57   1 H    0.998 --    15 C    0.970
    58   1 H    0.998 --    16 C    0.968
    59   1 H    0.999 --    19 C    0.961
    60   1 H    0.998 --    20 C    0.971
    61   1 H    0.998 --    21 C    0.971
    62   1 H    0.998 --    22 C    0.968
    63   1 H    0.999 --    26 C    0.971
    64   1 H    0.998 --    28 C    0.984
    65   1 H    0.997 --    28 C    0.970
    66   1 H    0.997 --    28 C    0.979
    67   1 H    0.995 --    30 C    0.970
    68   1 H    0.995 --    30 C    0.982
    69   1 H    0.994 --    30 C    0.968
    70   1 H    0.994 --    33 C    0.940
    71   1 H    0.882 --    35 O    0.856
    72   1 H    0.996 --    40 C    0.971
    73   1 H    0.997 --    42 C    0.971
    74   1 H    0.997 --    42 C    0.985
    75   1 H    0.997 --    42 C    0.976
    76   1 H    0.994 --    44 C    0.965
    77   1 H    0.995 --    44 C    0.973
    78   1 H    0.995 --    44 C    0.981
 ---------------------------------------------------------------------------

molecular dipole:
                 x           y           z       tot (Debye)
 q only:        0.882       2.119       0.549
   full:        1.101       2.671       0.537       7.468

           -------------------------------------------------
          | TOTAL ENERGY             -128.016085631960 Eh   |
          | GRADIENT NORM               0.000386669297 Eh/Î± |
          | HOMO-LUMO GAP               2.749141769926 eV   |
           -------------------------------------------------

 * finished run on 2022/03/17 at 01:45:03.578
