   * xtb version 6.3.3 (4ae9cef) compiled by 'conda@95abc7406d43' on 2020-10-14
          program call               : xtb acid_37.xyz --opt --chrg 0 --uhf 0 --gfn 2
          number of atoms            :                    66
          number of electrons        :                   238
          charge                     :                     0
          spin                       :                   0.0

   ID    Z sym.   atoms
    1    6 C      1, 2, 6-15, 19-22, 24-28, 30, 31, 33, 34, 38-42, 44, 45
    2    9 F      3-5, 16-18
    3    7 N      23, 37
    4   17 Cl     29, 43
    5    8 O      32, 35, 36, 46
    6    1 H      47-66

          :  Hamiltonian                  GFN2-xTB          :
 * total energy  :  -138.3808528 Eh     change       -0.5015750E-08 Eh
 * total energy  :  -138.3981732 Eh     change       -0.1732035E-01 Eh
 * total energy  :  -138.4038423 Eh     change       -0.5669169E-02 Eh
 * total energy  :  -138.4056853 Eh     change       -0.1843008E-02 Eh
 * total energy  :  -138.4069765 Eh     change       -0.1291137E-02 Eh
 * total energy  :  -138.4076912 Eh     change       -0.7147631E-03 Eh
 * total energy  :  -138.4082227 Eh     change       -0.5314499E-03 Eh
 * total energy  :  -138.4087576 Eh     change       -0.5348801E-03 Eh
 * total energy  :  -138.4093282 Eh     change       -0.5706357E-03 Eh
 * total energy  :  -138.4098971 Eh     change       -0.5688641E-03 Eh
 * total energy  :  -138.4221060 Eh     change       -0.1879903E-04 Eh
 * total energy  :  -138.4221217 Eh     change       -0.1567426E-04 Eh
 * total energy  :  -138.4221370 Eh     change       -0.1532672E-04 Eh
 * total energy  :  -138.4221470 Eh     change       -0.9987083E-05 Eh
 * total energy  :  -138.4221619 Eh     change       -0.1491737E-04 Eh
 * total energy  :  -138.4221773 Eh     change       -0.1539882E-04 Eh
 * total energy  :  -138.4221850 Eh     change       -0.7738763E-05 Eh
 * total energy  :  -138.4221906 Eh     change       -0.5601181E-05 Eh
 * total energy  :  -138.4221950 Eh     change       -0.4390686E-05 Eh
   *** GEOMETRY OPTIMIZATION CONVERGED AFTER 46 ITERATIONS ***

 final structure:
================
66
 xtb: 6.3.3 (4ae9cef)
C        -2.98523785115006   -1.13826286760992   -0.49002439893707
C        -2.88045206352197   -2.47714807853247    0.18944022786931
F        -3.98018857771885   -3.22338924806692    0.04128721910797
F        -1.86410354887112   -3.21728663268161   -0.30318297729737
F        -2.66300263866271   -2.40815895884978    1.51615865109591
C        -4.16859568822546   -0.83321746255100   -1.15483728477567
C        -4.29050620060039    0.35089473125334   -1.85624600868335
C        -3.21857483577569    1.22452899843427   -1.91871991162314
C        -2.04524612386565    0.93003884268541   -1.25052889671823
C        -1.91610792735687   -0.23915196228842   -0.50618588668309
C        -0.61934700401179   -0.48200855407336    0.23379424529764
C         0.52814789159967   -0.80273473347830   -0.75481963561731
C         0.96571885795200   -2.25004838759267   -0.77105160104271
C         1.69021636662711   -2.89738267940498    0.23523160649155
C         2.18934284441739   -2.20928208565322    1.47764117655717
F         3.22171226899895   -1.37635237250644    1.23671103484666
F         2.63725492860297   -3.07094610553631    2.40185349893373
F         1.26517017898075   -1.46582187499108    2.11577460851285
C         2.03223187316571   -4.24034547890454    0.09742473143844
C         1.65526920415452   -4.95702549980419   -1.02064065554257
C         0.93684408739869   -4.32775905582577   -2.02048482759167
C         0.60470422953131   -2.99413908814273   -1.89014251580238
N         1.59734705694523    0.12928878427386   -0.42257580047228
C         2.59224609819709    0.28481327361941   -1.34700068664990
C         3.55256809357728    1.39723023745327   -1.10101916247534
C         3.69460847129244    2.36150812245458   -2.09413371712623
C         4.57287048665401    3.41530374064709   -1.92660302686830
C         5.33191503452462    3.48687010088277   -0.76846771472877
Cl        6.42601389756346    4.80414025876008   -0.54762644518493
C         5.22890440061264    2.51179948342803    0.21151313352349
C         4.33546149303197    1.46989856626845    0.04506758857428
O         2.66116929246830   -0.44883423889557   -2.31060987582895
C         1.20680765248486    1.08536549678706    0.58085471984711
C         1.22071002937432    2.54023460757611    0.05332635416981
O         2.06750631135908    3.30841029935920    0.71683866908860
O         0.60081907657775    2.87767038011059   -0.92119792894006
N        -0.15957646226209    0.72172080277460    0.90754818105232
C        -0.91833414868768    1.67692368141250    1.49874683101269
C        -2.29784701808863    1.28951575184625    1.89190625303587
C        -3.37213493171781    2.05849341896408    1.45698207670272
C        -4.66191584799431    1.71612448202653    1.81198686418859
C        -4.87129560024094    0.61901571787929    2.63516191443318
Cl       -6.48133979696816    0.17583185760156    3.06450034850375
C        -3.80490826630915   -0.12209442557888    3.12012271327510
C        -2.51787823057395    0.21279208482706    2.74210985824710
O        -0.45065925659114    2.78409415521962    1.70230014892079
H        -4.99160898301825   -1.52967975683726   -1.12396308686129
H        -5.21486390827866    0.58012461440133   -2.36245043701699
H        -3.29307677887815    2.13961637676565   -2.48535633914347
H        -1.21908288971989    1.62533422652810   -1.29582304043536
H        -0.73366335510437   -1.28997184398753    0.96042408524179
H         0.19831288664500   -0.57111028998531   -1.77816603122315
H         2.59856042412613   -4.72625705544703    0.87649694342371
H         1.92843568625079   -5.99671803917719   -1.10785411056869
H         0.64032388472724   -4.87051147839983   -2.90425827327464
H         0.05416414340359   -2.50816840491118   -2.68033740528964
H         3.10235293406784    2.28650411406833   -2.99305701673445
H         4.67314876655770    4.17248114933332   -2.68818064090085
H         5.84018598276593    2.57063057669569    1.09780488425461
H         4.26528737853371    0.70397919339412    0.79924895829043
H         1.84280013293016    1.03994180883693    1.47760613718793
H         2.01216429659378    4.22812306564936    0.41246358089092
H        -3.18793536611710    2.91673377128008    0.82972996591137
H        -5.50128902958104    2.29567222600024    1.46176763713228
H        -3.97846082226199   -0.95900820567449    3.77691782457700
H        -1.68406149056703   -0.35883713410544    3.11879966839394

          :  Hamiltonian                  GFN2-xTB          :
         :: total energy            -138.422195040747 Eh    ::
         :: gradient norm              0.000837637626 Eh/a0 ::
         :: HOMO-LUMO gap              3.342353386084 eV    ::
         :: SCC energy              -140.009200714779 Eh    ::
         :: -> dispersion             -0.106286154297 Eh    ::
         :: repulsion energy           1.583251407119 Eh    ::

    * Orbital Energies and Occupations

         #    Occupation            Energy/Eh            Energy/eV
      -------------------------------------------------------------
         1        2.0000           -1.0664614             -29.0199
       ...           ...                  ...                  ...
       107        2.0000           -0.4479389             -12.1890
       108        2.0000           -0.4438741             -12.0784
       109        2.0000           -0.4386312             -11.9358
       110        2.0000           -0.4377217             -11.9110
       111        2.0000           -0.4306657             -11.7190
       112        2.0000           -0.4298929             -11.6980
       113        2.0000           -0.4277789             -11.6405
       114        2.0000           -0.4240438             -11.5388
       115        2.0000           -0.4225324             -11.4977
       116        2.0000           -0.4145600             -11.2808
       117        2.0000           -0.4130775             -11.2404
       118        2.0000           -0.4066860             -11.0665
       119        2.0000           -0.4062395             -11.0543 (HOMO)
       120                         -0.2834103              -7.7120 (LUMO)
       121                         -0.2751722              -7.4878
       122                         -0.2725749              -7.4171
       123                         -0.2692641              -7.3270
       124                         -0.2650197              -7.2116
       125                         -0.2593497              -7.0573
       126                         -0.2561708              -6.9708
       127                         -0.2525859              -6.8732
       128                         -0.2486198              -6.7653
       129                         -0.2255463              -6.1374
       130                         -0.2172058              -5.9105
       ...                                ...                  ...
       214                          0.6410338              17.4434
      -------------------------------------------------------------
                  HL-Gap            0.1228292 Eh            3.3424 eV

     #   Z          covCN         q      C6AA      Î±(0)
     1   6 C        2.975    -0.037    28.914     8.820
     2   6 C        3.335     0.483    17.331     6.595
     3   9 F        0.792    -0.197    11.203     3.954
     4   9 F        0.791    -0.217    11.415     3.991
     5   9 F        0.791    -0.211    11.351     3.980
     6   6 C        2.923    -0.024    28.613     8.772
     7   6 C        2.919    -0.024    28.594     8.769
     8   6 C        2.918    -0.018    28.461     8.748
     9   6 C        2.925    -0.034    28.853     8.809
    10   6 C        2.971     0.005    27.913     8.666
    11   6 C        3.808     0.037    19.947     6.358
    12   6 C        3.830     0.049    19.725     6.319
    13   6 C        2.965     0.020    27.557     8.611
    14   6 C        2.974    -0.028    28.705     8.788
    15   6 C        3.336     0.487    17.260     6.578
    16   9 F        0.791    -0.214    11.380     3.985
    17   9 F        0.793    -0.202    11.259     3.964
    18   9 F        0.792    -0.216    11.405     3.989
    19   6 C        2.926    -0.022    28.560     8.764
    20   6 C        2.919    -0.020    28.504     8.755
    21   6 C        2.918    -0.013    28.348     8.731
    22   6 C        2.931    -0.018    28.457     8.749
    23   7 N        2.756    -0.121    23.625     7.219
    24   6 C        2.771     0.274    22.362     7.745
    25   6 C        2.974    -0.020    28.495     8.756
    26   6 C        2.928    -0.018    28.464     8.749
    27   6 C        2.954    -0.039    28.958     8.826
    28   6 C        2.889     0.101    25.756     8.321
    29  17 Cl       0.968    -0.167   104.386    15.631
    30   6 C        2.955    -0.035    28.862     8.812
    31   6 C        2.923    -0.027    28.669     8.781
    32   8 O        0.859    -0.414    21.964     6.283
    33   6 C        3.760     0.093    19.086     6.228
    34   6 C        2.689     0.369    20.738     7.453
    35   8 O        1.660    -0.353    19.968     6.032
    36   8 O        0.856    -0.413    21.935     6.279
    37   7 N        2.765    -0.104    23.279     7.166
    38   6 C        2.774     0.274    22.370     7.746
    39   6 C        2.975    -0.016    28.414     8.744
    40   6 C        2.926    -0.021    28.534     8.760
    41   6 C        2.956    -0.039    28.973     8.829
    42   6 C        2.889     0.101    25.759     8.321
    43  17 Cl       0.970    -0.159   104.139    15.612
    44   6 C        2.956    -0.035    28.881     8.815
    45   6 C        2.924    -0.027    28.664     8.780
    46   8 O        0.861    -0.416    21.993     6.288
    47   1 H        0.926     0.070     2.089     2.260
    48   1 H        0.926     0.061     2.184     2.311
    49   1 H        0.926     0.064     2.153     2.295
    50   1 H        0.926     0.083     1.943     2.180
    51   1 H        0.924     0.070     2.081     2.256
    52   1 H        0.923     0.072     2.069     2.249
    53   1 H        0.926     0.069     2.096     2.264
    54   1 H        0.926     0.061     2.189     2.314
    55   1 H        0.926     0.062     2.175     2.306
    56   1 H        0.926     0.058     2.219     2.329
    57   1 H        0.926     0.063     2.163     2.300
    58   1 H        0.926     0.065     2.139     2.287
    59   1 H        0.926     0.067     2.114     2.273
    60   1 H        0.926     0.065     2.146     2.291
    61   1 H        0.923     0.082     1.964     2.192
    62   1 H        0.804     0.349     0.590     1.207
    63   1 H        0.926     0.062     2.181     2.310
    64   1 H        0.926     0.066     2.133     2.284
    65   1 H        0.926     0.073     2.048     2.238
    66   1 H        0.926     0.063     2.165     2.301

Wiberg/Mayer (AO) data.
largest (>0.10) Wiberg bond orders for each atom

     #   Z sym  total        # sym  WBO       # sym  WBO       # sym  WBO
 ---------------------------------------------------------------------------
     1   6 C    3.968 --     6 C    1.410    10 C    1.386     2 C    0.950
                             8 C    0.104
     2   6 C    3.821 --     3 F    0.959     1 C    0.950     5 F    0.939
                             4 F    0.934
     3   9 F    1.082 --     2 C    0.959
     4   9 F    1.062 --     2 C    0.934
     5   9 F    1.070 --     2 C    0.939
     6   6 C    3.987 --     7 C    1.445     1 C    1.410    47 H    0.965
                             9 C    0.109
     7   6 C    3.988 --     6 C    1.445     8 C    1.431    48 H    0.968
                            10 C    0.108
     8   6 C    3.989 --     9 C    1.448     7 C    1.431    49 H    0.968
                             1 C    0.104
     9   6 C    3.984 --     8 C    1.448    10 C    1.408    50 H    0.954
                             6 C    0.109
    10   6 C    3.986 --     9 C    1.408     1 C    1.386    11 C    0.990
                             7 C    0.108
    11   6 C    3.968 --    10 C    0.990    37 N    0.966    51 H    0.952
                            12 C    0.949
    12   6 C    3.966 --    13 C    0.991    23 N    0.962    11 C    0.949
                            52 H    0.949
    13   6 C    3.985 --    22 C    1.409    14 C    1.387    12 C    0.991
                            20 C    0.108
    14   6 C    3.968 --    19 C    1.409    13 C    1.387    15 C    0.952
                            21 C    0.105
    15   6 C    3.818 --    17 F    0.954    14 C    0.952    18 F    0.937
                            16 F    0.936
    16   9 F    1.066 --    15 C    0.936
    17   9 F    1.076 --    15 C    0.954
    18   9 F    1.064 --    15 C    0.937
    19   6 C    3.987 --    20 C    1.445    14 C    1.409    53 H    0.965
                            22 C    0.109
    20   6 C    3.988 --    19 C    1.445    21 C    1.432    54 H    0.968
                            13 C    0.108
    21   6 C    3.989 --    22 C    1.448    20 C    1.432    55 H    0.968
                            14 C    0.105
    22   6 C    3.987 --    21 C    1.448    13 C    1.409    56 H    0.965
                            19 C    0.109
    23   7 N    3.441 --    24 C    1.185    33 C    0.987    12 C    0.962
                            32 O    0.183
    24   6 C    3.944 --    32 O    1.700    23 N    1.185    25 C    0.974
    25   6 C    3.987 --    31 C    1.397    26 C    1.395    24 C    0.974
    26   6 C    3.988 --    27 C    1.448    25 C    1.395    57 H    0.967
                            30 C    0.107
    27   6 C    3.988 --    26 C    1.448    28 C    1.400    58 H    0.966
                            31 C    0.107
    28   6 C    3.920 --    30 C    1.400    27 C    1.400    29 Cl   0.981
    29  17 Cl   1.119 --    28 C    0.981
    30   6 C    3.988 --    31 C    1.448    28 C    1.400    59 H    0.966
                            26 C    0.107
    31   6 C    3.989 --    30 C    1.448    25 C    1.397    60 H    0.965
                            27 C    0.107
    32   8 O    2.024 --    24 C    1.700    23 N    0.183
    33   6 C    3.960 --    23 N    0.987    37 N    0.974    61 H    0.943
                            34 C    0.905
    34   6 C    3.922 --    36 O    1.734    35 O    1.167    33 C    0.905
    35   8 O    2.226 --    34 C    1.167    62 H    0.852    36 O    0.171
    36   8 O    2.037 --    34 C    1.734    35 O    0.171
    37   7 N    3.467 --    38 C    1.220    33 C    0.974    11 C    0.966
                            46 O    0.185
    38   6 C    3.943 --    46 O    1.653    37 N    1.220    39 C    0.979
    39   6 C    3.988 --    45 C    1.398    40 C    1.392    38 C    0.979
    40   6 C    3.988 --    41 C    1.452    39 C    1.392    63 H    0.966
                            44 C    0.107
    41   6 C    3.988 --    40 C    1.452    42 C    1.395    64 H    0.966
                            45 C    0.106
    42   6 C    3.922 --    44 C    1.402    41 C    1.395    43 Cl   0.987
    43  17 Cl   1.126 --    42 C    0.987
    44   6 C    3.987 --    45 C    1.445    42 C    1.402    65 H    0.965
                            40 C    0.107
    45   6 C    3.989 --    44 C    1.445    39 C    1.398    66 H    0.966
                            41 C    0.106
    46   8 O    2.057 --    38 C    1.653    37 N    0.185
    47   1 H    0.995 --     6 C    0.965
    48   1 H    0.995 --     7 C    0.968
    49   1 H    0.995 --     8 C    0.968
    50   1 H    0.993 --     9 C    0.954
    51   1 H    0.994 --    11 C    0.952
    52   1 H    0.994 --    12 C    0.949
    53   1 H    0.995 --    19 C    0.965
    54   1 H    0.995 --    20 C    0.968
    55   1 H    0.995 --    21 C    0.968
    56   1 H    0.996 --    22 C    0.965
    57   1 H    0.996 --    26 C    0.967
    58   1 H    0.995 --    27 C    0.966
    59   1 H    0.995 --    30 C    0.966
    60   1 H    0.996 --    31 C    0.965
    61   1 H    0.992 --    33 C    0.943
    62   1 H    0.877 --    35 O    0.852
    63   1 H    0.996 --    40 C    0.966
    64   1 H    0.995 --    41 C    0.966
    65   1 H    0.994 --    44 C    0.965
    66   1 H    0.996 --    45 C    0.966
 ---------------------------------------------------------------------------

molecular dipole:
                 x           y           z       tot (Debye)
 q only:       -1.010      -0.510      -1.252
   full:       -1.047      -0.296      -0.968       3.700

           -------------------------------------------------
          | TOTAL ENERGY             -138.422195040747 Eh   |
          | GRADIENT NORM               0.000837637626 Eh/Î± |
          | HOMO-LUMO GAP               3.342353386084 eV   |
           -------------------------------------------------

 * finished run on 2022/03/17 at 00:21:29.899
