   * xtb version 6.3.3 (4ae9cef) compiled by 'conda@95abc7406d43' on 2020-10-14
          program call               : xtb acid_276.xyz --opt --chrg 0 --uhf 0 --gfn 2
          number of atoms            :                    54
          number of electrons        :                   170
          charge                     :                     0
          spin                       :                   0.0

   ID    Z sym.   atoms
    1    8 O      1, 5, 11, 12, 17, 20
    2    6 C      2-4, 6, 7, 9, 10, 14-16, 18, 19, 21-34
    3    7 N      8, 13
    4    1 H      35-54

          :  Hamiltonian                  GFN2-xTB          :
 * total energy  :   -96.1197533 Eh     change       -0.1355403E-08 Eh
 * total energy  :   -96.1310827 Eh     change       -0.1132938E-01 Eh
 * total energy  :   -96.1341377 Eh     change       -0.3054986E-02 Eh
 * total energy  :   -96.1349965 Eh     change       -0.8587985E-03 Eh
 * total energy  :   -96.1354603 Eh     change       -0.4638904E-03 Eh
 * total energy  :   -96.1357505 Eh     change       -0.2901796E-03 Eh
 * total energy  :   -96.1360455 Eh     change       -0.2949941E-03 Eh
 * total energy  :   -96.1363619 Eh     change       -0.3163548E-03 Eh
 * total energy  :   -96.1367027 Eh     change       -0.3408601E-03 Eh
 * total energy  :   -96.1370081 Eh     change       -0.3053368E-03 Eh
 * total energy  :   -96.1384995 Eh     change       -0.1268399E-04 Eh
 * total energy  :   -96.1384993 Eh     change        0.1776875E-06 Eh
 * total energy  :   -96.1385106 Eh     change       -0.1130909E-04 Eh
 * total energy  :   -96.1385247 Eh     change       -0.1406467E-04 Eh
 * total energy  :   -96.1385395 Eh     change       -0.1481544E-04 Eh
 * total energy  :   -96.1385561 Eh     change       -0.1666999E-04 Eh
 * total energy  :   -96.1385635 Eh     change       -0.7378177E-05 Eh
 * total energy  :   -96.1385644 Eh     change       -0.9036891E-06 Eh
 * total energy  :   -96.1385689 Eh     change       -0.4510839E-05 Eh
   *** GEOMETRY OPTIMIZATION CONVERGED AFTER 34 ITERATIONS ***

 final structure:
================
54
 xtb: 6.3.3 (4ae9cef)
O         2.87386619380639   -0.25410253788116    1.84841021593350
C         2.09743872497541   -0.93285877274749    1.21576493430494
C         2.31776472725500   -2.37553001520328    0.92619363129281
C         3.24521086868262   -2.90147621999548    0.07385206943258
O         3.18624661987625   -4.24023259129087    0.07650097004987
C         2.23052891581566   -4.59440162415034    0.94954597971085
C         1.65580563096429   -3.49534271531455    1.50546568052473
N         0.93835967791447   -0.44133711879957    0.70425212079642
C        -0.03741107300948   -1.21247539637979   -0.02340901238080
C         0.58663261840205   -1.82188259055924   -1.29728408805526
O         0.31956370786465   -3.12148607094523   -1.40584518078163
O         1.21129098295005   -1.19828276177799   -2.10716492435179
N        -1.05440957221163   -0.25071107297645   -0.37660042200202
C        -2.10753170996300   -0.47915036356547   -1.21568451540861
C        -2.45043776423429   -1.90470178963696   -1.43098289063251
C        -2.75361945321412   -2.86816435010244   -0.50972366811175
O        -3.08408069414114   -4.01477524051583   -1.11503518333788
C        -2.99645620552605   -3.80700956057335   -2.43806015093772
C        -2.62356003363813   -2.52692912439297   -2.69962844356712
O        -2.73084383396806    0.42803533586963   -1.72024866807290
C        -0.61294893731672    1.11933239327475   -0.14341311453634
C        -1.70272398262278    1.96717748307084    0.45578002611029
C        -1.84573214489969    3.29142839407010    0.06900022560069
C        -2.82164230035635    4.08433370863414    0.64602148536106
C        -3.66304346763066    3.55944999489523    1.61163326643258
C        -3.52125672380319    2.23930776670309    2.00408653126076
C        -2.54109036893878    1.44821802792540    1.43369489461233
C         0.58377231864139    0.96762717656401    0.81479482616609
C         1.71371017557224    1.89078350075992    0.44228813918023
C         1.97893310707965    3.01090065026608    1.21580235626393
C         2.99148543793633    3.88228560967932    0.85571505711359
C         3.74695511316670    3.63812808010418   -0.27783311301640
C         3.48204923560153    2.52286659045350   -1.05461831913054
C         2.46552685278164    1.65440366688094   -0.70172310677746
H         3.96122597605449   -2.42917581130804   -0.56836843702184
H         2.05271431662284   -5.64177542877284    1.08937019677144
H         0.88253279174190   -3.47377963713260    2.24540132017688
H        -0.44884958680261   -2.03377253854549    0.58180728037764
H         0.69806914963980   -3.48969692484260   -2.22192237692175
H        -2.80351559188269   -2.84450562368506    0.56087378681859
H        -3.22652718056515   -4.63160052588061   -3.08276950500357
H        -2.48014997843660   -2.06351365292341   -3.65340717083088
H        -0.28467387995148    1.56276065938999   -1.09308910054088
H        -1.19252166076861    3.69896204805147   -0.68837525622918
H        -2.92900492332123    5.11325941172957    0.33660206130199
H        -4.42987574669506    4.17622795810581    2.05606725013219
H        -4.17609230731165    1.82485039287588    2.75662960551722
H        -2.43229125746235    0.41711408177882    1.73972271583751
H         0.27121817421280    1.17279801487878    1.84813966683704
H         1.39299703203284    3.19874027333614    2.10377290748437
H         3.19415293071708    4.75066922897586    1.46497507845643
H         4.54228772374002    4.31432122565584   -0.55478284306636
H         4.06872934832203    2.32810393675126   -1.94026407565817
H         2.26122402630075    0.78658344921934   -1.31193171348667

          :  Hamiltonian                  GFN2-xTB          :
         :: total energy             -96.138568942549 Eh    ::
         :: gradient norm              0.000667575761 Eh/a0 ::
         :: HOMO-LUMO gap              3.188501983567 eV    ::
         :: SCC energy               -97.488959392942 Eh    ::
         :: -> dispersion             -0.075035001795 Eh    ::
         :: repulsion energy           1.348642260098 Eh    ::

    * Orbital Energies and Occupations

         #    Occupation            Energy/Eh            Energy/eV
      -------------------------------------------------------------
         1        2.0000           -0.7834333             -21.3183
       ...           ...                  ...                  ...
        73        2.0000           -0.4306421             -11.7184
        74        2.0000           -0.4275679             -11.6347
        75        2.0000           -0.4207292             -11.4486
        76        2.0000           -0.4182540             -11.3813
        77        2.0000           -0.4158682             -11.3164
        78        2.0000           -0.4132952             -11.2463
        79        2.0000           -0.4114175             -11.1952
        80        2.0000           -0.4112588             -11.1909
        81        2.0000           -0.4088059             -11.1242
        82        2.0000           -0.4041920             -10.9986
        83        2.0000           -0.4024487             -10.9512
        84        2.0000           -0.3980833             -10.8324
        85        2.0000           -0.3936022             -10.7105 (HOMO)
        86                         -0.2764269              -7.5220 (LUMO)
        87                         -0.2493030              -6.7839
        88                         -0.2369689              -6.4483
        89                         -0.2319850              -6.3126
        90                         -0.2270461              -6.1782
        91                         -0.2251494              -6.1266
        92                         -0.2224182              -6.0523
        93                         -0.2208785              -6.0104
        94                         -0.2203992              -5.9974
        95                         -0.1798500              -4.8940
        96                         -0.1692815              -4.6064
       ...                                ...                  ...
       156                          0.6808784              18.5276
      -------------------------------------------------------------
                  HL-Gap            0.1171753 Eh            3.1885 eV

     #   Z          covCN         q      C6AA      Î±(0)
     1   8 O        0.859    -0.407    21.817     6.262
     2   6 C        2.757     0.274    22.373     7.746
     3   6 C        3.076    -0.052    29.211     8.861
     4   6 C        3.077     0.073    26.287     8.406
     5   8 O        1.731    -0.163    16.748     5.526
     6   6 C        3.075     0.070    26.364     8.418
     7   6 C        3.018    -0.062    29.529     8.914
     8   7 N        2.767    -0.110    23.397     7.184
     9   6 C        3.751     0.087    19.191     6.247
    10   6 C        2.688     0.349    21.068     7.512
    11   8 O        1.659    -0.370    20.283     6.080
    12   8 O        0.856    -0.378    21.249     6.180
    13   7 N        2.764    -0.120    23.611     7.217
    14   6 C        2.759     0.273    22.389     7.749
    15   6 C        3.075    -0.050    29.149     8.852
    16   6 C        3.078     0.068    26.391     8.422
    17   8 O        1.731    -0.158    16.673     5.513
    18   6 C        3.076     0.068    26.403     8.425
    19   6 C        3.019    -0.056    29.358     8.888
    20   8 O        0.859    -0.403    21.749     6.253
    21   6 C        3.827     0.046    19.788     6.330
    22   6 C        2.974     0.013    27.711     8.635
    23   6 C        2.924    -0.028    28.705     8.786
    24   6 C        2.920    -0.025    28.620     8.773
    25   6 C        2.920    -0.028    28.705     8.786
    26   6 C        2.920    -0.027    28.669     8.780
    27   6 C        2.924    -0.030    28.760     8.795
    28   6 C        3.821     0.045    19.810     6.334
    29   6 C        2.974     0.012    27.738     8.639
    30   6 C        2.924    -0.029    28.729     8.790
    31   6 C        2.920    -0.026    28.645     8.777
    32   6 C        2.920    -0.028    28.707     8.786
    33   6 C        2.920    -0.026    28.643     8.777
    34   6 C        2.923    -0.033    28.818     8.803
    35   1 H        0.926     0.063     2.166     2.301
    36   1 H        0.926     0.060     2.197     2.318
    37   1 H        0.926     0.044     2.396     2.421
    38   1 H        0.923     0.065     2.145     2.290
    39   1 H        0.804     0.346     0.599     1.215
    40   1 H        0.926     0.052     2.296     2.370
    41   1 H        0.926     0.059     2.205     2.322
    42   1 H        0.927     0.055     2.253     2.347
    43   1 H        0.923     0.062     2.172     2.305
    44   1 H        0.926     0.038     2.477     2.461
    45   1 H        0.926     0.040     2.451     2.448
    46   1 H        0.926     0.038     2.481     2.463
    47   1 H        0.926     0.036     2.502     2.473
    48   1 H        0.926     0.027     2.633     2.537
    49   1 H        0.923     0.056     2.252     2.347
    50   1 H        0.926     0.033     2.547     2.496
    51   1 H        0.926     0.037     2.489     2.467
    52   1 H        0.926     0.036     2.506     2.476
    53   1 H        0.926     0.037     2.489     2.467
    54   1 H        0.926     0.048     2.348     2.396

Wiberg/Mayer (AO) data.
largest (>0.10) Wiberg bond orders for each atom

     #   Z sym  total        # sym  WBO       # sym  WBO       # sym  WBO
 ---------------------------------------------------------------------------
     1   8 O    2.036 --     2 C    1.703     8 N    0.195
     2   6 C    3.951 --     1 O    1.703     8 N    1.205     3 C    0.966
     3   6 C    3.979 --     4 C    1.569     7 C    1.255     2 C    0.966
     4   6 C    3.911 --     3 C    1.569     5 O    1.148    35 H    0.966
                             6 C    0.146
     5   8 O    2.465 --     4 C    1.148     6 C    1.140
     6   6 C    3.908 --     7 C    1.615     5 O    1.140    36 H    0.965
                             4 C    0.146
     7   6 C    3.981 --     6 C    1.615     3 C    1.255    37 H    0.974
     8   7 N    3.465 --     2 C    1.205     9 C    0.989    28 C    0.952
                             1 O    0.195
     9   6 C    3.973 --     8 N    0.989    13 N    0.983    38 H    0.944
                            10 C    0.907
    10   6 C    3.918 --    12 O    1.783    11 O    1.149     9 C    0.907
    11   8 O    2.213 --    10 C    1.149    39 H    0.854    12 O    0.181
    12   8 O    2.071 --    10 C    1.783    11 O    0.181
    13   7 N    3.444 --    14 C    1.184     9 C    0.983    21 C    0.954
                            20 O    0.186
    14   6 C    3.950 --    20 O    1.706    13 N    1.184    15 C    0.983
    15   6 C    3.979 --    16 C    1.556    19 C    1.258    14 C    0.983
    16   6 C    3.912 --    15 C    1.556    17 O    1.154    40 H    0.965
                            18 C    0.147
    17   8 O    2.472 --    16 C    1.154    18 C    1.139
    18   6 C    3.907 --    19 C    1.617    17 O    1.139    41 H    0.966
                            16 C    0.147
    19   6 C    3.983 --    18 C    1.617    15 C    1.258    42 H    0.974
    20   8 O    2.038 --    14 C    1.706    13 N    0.186
    21   6 C    3.960 --    22 C    0.990    28 C    0.954    13 N    0.954
                            43 H    0.952
    22   6 C    3.985 --    23 C    1.414    27 C    1.410    21 C    0.990
                            25 C    0.109
    23   6 C    3.990 --    24 C    1.443    22 C    1.414    44 H    0.968
                            26 C    0.111
    24   6 C    3.992 --    23 C    1.443    25 C    1.440    45 H    0.970
                            27 C    0.112
    25   6 C    3.991 --    24 C    1.440    26 C    1.437    46 H    0.971
                            22 C    0.109
    26   6 C    3.992 --    27 C    1.447    25 C    1.437    47 H    0.971
                            23 C    0.111
    27   6 C    3.992 --    26 C    1.447    22 C    1.410    48 H    0.969
                            24 C    0.112
    28   6 C    3.960 --    29 C    0.989    21 C    0.954    49 H    0.953
                             8 N    0.952
    29   6 C    3.984 --    30 C    1.416    34 C    1.410    28 C    0.989
                            32 C    0.109
    30   6 C    3.990 --    31 C    1.442    29 C    1.416    50 H    0.969
                            33 C    0.111
    31   6 C    3.992 --    30 C    1.442    32 C    1.441    51 H    0.971
                            34 C    0.112
    32   6 C    3.991 --    31 C    1.441    33 C    1.436    52 H    0.971
                            29 C    0.109
    33   6 C    3.992 --    34 C    1.448    32 C    1.436    53 H    0.971
                            30 C    0.111
    34   6 C    3.990 --    33 C    1.448    29 C    1.410    54 H    0.964
                            31 C    0.112
    35   1 H    0.996 --     4 C    0.966
    36   1 H    0.995 --     6 C    0.965
    37   1 H    0.998 --     7 C    0.974
    38   1 H    0.995 --     9 C    0.944
    39   1 H    0.880 --    11 O    0.854
    40   1 H    0.997 --    16 C    0.965
    41   1 H    0.996 --    18 C    0.966
    42   1 H    0.997 --    19 C    0.974
    43   1 H    0.996 --    21 C    0.952
    44   1 H    0.999 --    23 C    0.968
    45   1 H    0.998 --    24 C    0.970
    46   1 H    0.998 --    25 C    0.971
    47   1 H    0.998 --    26 C    0.971
    48   1 H    0.999 --    27 C    0.969
    49   1 H    0.996 --    28 C    0.953
    50   1 H    0.999 --    30 C    0.969
    51   1 H    0.998 --    31 C    0.971
    52   1 H    0.998 --    32 C    0.971
    53   1 H    0.998 --    33 C    0.971
    54   1 H    0.998 --    34 C    0.964
 ---------------------------------------------------------------------------

molecular dipole:
                 x           y           z       tot (Debye)
 q only:       -0.452      -0.912       0.045
   full:       -0.458      -1.520      -0.076       4.040

           -------------------------------------------------
          | TOTAL ENERGY              -96.138568942549 Eh   |
          | GRADIENT NORM               0.000667575761 Eh/Î± |
          | HOMO-LUMO GAP               3.188501983567 eV   |
           -------------------------------------------------

 * finished run on 2022/03/16 at 23:16:19.624
