   * xtb version 6.3.3 (4ae9cef) compiled by 'conda@95abc7406d43' on 2020-10-14
          program call               : xtb acid_397.xyz --opt --chrg 0 --uhf 0 --gfn 2
          number of atoms            :                    74
          number of electrons        :                   218
          charge                     :                     0
          spin                       :                   0.0

   ID    Z sym.   atoms
    1    6 C      1, 3-16, 18, 20-23, 25-27, 29, 30, 34-37, 39-41
    2    8 O      2, 17, 24, 28, 31, 32, 38, 42
    3    7 N      19, 33
    4    1 H      43-74

          :  Hamiltonian                  GFN2-xTB          :
 * total energy  :  -123.2685657 Eh     change       -0.2923557E-08 Eh
 * total energy  :  -123.2838286 Eh     change       -0.1526284E-01 Eh
 * total energy  :  -123.2890278 Eh     change       -0.5199223E-02 Eh
 * total energy  :  -123.2916424 Eh     change       -0.2614649E-02 Eh
 * total energy  :  -123.2941222 Eh     change       -0.2479763E-02 Eh
 * total energy  :  -123.2960363 Eh     change       -0.1914090E-02 Eh
 * total energy  :  -123.2972862 Eh     change       -0.1249920E-02 Eh
 * total energy  :  -123.2979082 Eh     change       -0.6219969E-03 Eh
 * total energy  :  -123.2986495 Eh     change       -0.7413533E-03 Eh
 * total energy  :  -123.2992663 Eh     change       -0.6167294E-03 Eh
 * total energy  :  -123.3047100 Eh     change       -0.3522664E-04 Eh
 * total energy  :  -123.3047252 Eh     change       -0.1518500E-04 Eh
 * total energy  :  -123.3047578 Eh     change       -0.3262670E-04 Eh
 * total energy  :  -123.3047682 Eh     change       -0.1034383E-04 Eh
 * total energy  :  -123.3047780 Eh     change       -0.9864758E-05 Eh
 * total energy  :  -123.3047911 Eh     change       -0.1301555E-04 Eh
 * total energy  :  -123.3047991 Eh     change       -0.8039946E-05 Eh
 * total energy  :  -123.3048069 Eh     change       -0.7804904E-05 Eh
 * total energy  :  -123.3048111 Eh     change       -0.4198295E-05 Eh
   *** GEOMETRY OPTIMIZATION CONVERGED AFTER 59 ITERATIONS ***

 final structure:
================
74
 xtb: 6.3.3 (4ae9cef)
C         0.95376277338645   -1.23596818862547    2.74939664961311
O         0.19228842344385   -0.10288029794497    2.80854368212848
C        -0.34018481491491    0.29387320988337    4.05031537023272
C         1.31491647024370   -1.97410335487514    3.87093178889128
C         2.10071606668684   -3.10639862815171    3.74573938487522
C         2.53254620881689   -3.51779177421193    2.50035578027114
C         2.16503279319379   -2.79170663144987    1.38138954628360
C         1.37543957491825   -1.65614854882439    1.47930042737757
C         1.03231572832710   -0.91294153884362    0.21060807145559
C        -0.46822304554130   -0.55880928567538    0.02749986166147
C        -1.05644562154753   -1.28801041945136   -1.15399237529549
C        -0.54307753539349   -1.07689319717492   -2.42329208020512
C        -1.06581325214180   -1.73148038998383   -3.52468675273271
C        -2.12443242219780   -2.60311521942074   -3.35414471023367
C        -2.65067346834293   -2.83083753068713   -2.09428536828272
C        -2.11756763600393   -2.18819235038914   -0.98310071554586
O        -2.56523616759868   -2.36675591415840    0.29249473515963
C        -3.70660864278562   -3.16537144548779    0.49935344903995
N        -0.46691420144186    0.88181013575077   -0.18591602316314
C        -1.35802941427581    1.61861202611989   -0.90685511420078
C        -2.70253805967919    1.03100352120646   -1.02428427318303
C        -3.50135595085258    0.60808715166472    0.00631524431387
C        -3.29347165077805    0.62758805677773    1.47682798566480
O        -4.68850103444686    0.19364718895833   -0.47751960621991
C        -4.66050310171712    0.36196397551303   -1.81949156727182
C        -3.47644394423264    0.89334755061981   -2.22108893897689
C        -3.04099378878323    1.26703027473632   -3.59163903153541
O        -1.04936130191533    2.69991175695266   -1.37521584346904
C         0.80197308831328    1.45264347649289    0.17801091550821
C         0.72431442488106    2.09968356642227    1.56854261700060
O         1.92281060370759    2.18047218786415    2.14131585810694
O        -0.27536959271184    2.56453726396800    2.04189045755930
N         1.72687968376672    0.36340358175417    0.08991503027078
C         3.01285808781403    0.41632915374891   -0.34259868967417
C         3.51401033509590    1.77774100459477   -0.65184232784584
C         4.42903054181480    2.49680127450469    0.06474251557435
C         5.12639358026061    2.18676737706680    1.33833953367162
O         4.68072332066198    3.66807298632673   -0.55300434671348
C         3.94331964759418    3.69471564264173   -1.68200732007854
C         3.19975693043590    2.56245497263840   -1.80981979864803
C         2.28090866485773    2.19473990319229   -2.92435250342231
O         3.68227972618286   -0.58935685936117   -0.46968307456532
H        -0.90773203465833    1.20057817833387    3.84433587028049
H        -1.00806307781238   -0.46999014778394    4.45951188627877
H         0.44832985623293    0.51534509339975    4.77717053130880
H         0.99042231657282   -1.67102614887587    4.85367569430356
H         2.37355412955103   -3.66071983371141    4.63139475527153
H         3.15118990874202   -4.39549847226392    2.39770640599953
H         2.50914359604435   -3.10139843287203    0.40681467570855
H         1.37576507719295   -1.54102251713182   -0.62150903474376
H        -1.02796366599204   -0.81543482555153    0.92838002331258
H         0.27054209109713   -0.37770658748884   -2.54970262643130
H        -0.65087399674606   -1.55979647544745   -4.50624020971375
H        -2.55073869381541   -3.11351221113924   -4.20459850427754
H        -3.47840202275032   -3.51365521515463   -1.98983706742822
H        -3.89286226124796   -3.13940727310575    1.57211877159092
H        -4.57615103879405   -2.76091997925758   -0.02802447058719
H        -3.53588933067965   -4.20139685246858    0.19110331257036
H        -4.18284863297754    1.02001322673814    1.96705322369446
H        -3.11470393146951   -0.37862305435801    1.85506847392950
H        -2.44041255802735    1.25733873677840    1.71438678985915
H        -5.53923412482878    0.08070739611867   -2.36458947768137
H        -2.50185350774887    2.21099176654287   -3.55338650545033
H        -2.37156914993643    0.50834100022766   -3.99584568150464
H        -3.90028520629277    1.36394817110295   -4.25019980530570
H         1.04838590541293    2.27603239327919   -0.50895023766727
H         1.86003610625541    2.63345530487664    2.99779879999204
H         6.20047415410743    2.11520366964647    1.17051371124237
H         4.76265263436043    1.24012120807444    1.72503903708071
H         4.94973885546581    2.97316291942607    2.07054422509129
H         4.03428420429260    4.55948669927316   -2.30809876581954
H         2.33098337786187    1.12334028432364   -3.11027741963243
H         2.56585969980399    2.72317871506382   -3.83085483643207
H         1.24768929367146    2.46038259873454   -2.69350598823907

          :  Hamiltonian                  GFN2-xTB          :
         :: total energy            -123.304811097322 Eh    ::
         :: gradient norm              0.000570799799 Eh/a0 ::
         :: HOMO-LUMO gap              3.573242562191 eV    ::
         :: SCC energy              -124.943671254973 Eh    ::
         :: -> dispersion             -0.106584525151 Eh    ::
         :: repulsion energy           1.633576252947 Eh    ::

    * Orbital Energies and Occupations

         #    Occupation            Energy/Eh            Energy/eV
      -------------------------------------------------------------
         1        2.0000           -0.7586138             -20.6429
       ...           ...                  ...                  ...
        97        2.0000           -0.4309214             -11.7260
        98        2.0000           -0.4181147             -11.3775
        99        2.0000           -0.4110663             -11.1857
       100        2.0000           -0.4070308             -11.0759
       101        2.0000           -0.4067091             -11.0671
       102        2.0000           -0.3954034             -10.7595
       103        2.0000           -0.3936971             -10.7130
       104        2.0000           -0.3905346             -10.6270
       105        2.0000           -0.3883038             -10.5663
       106        2.0000           -0.3843208             -10.4579
       107        2.0000           -0.3831091             -10.4249
       108        2.0000           -0.3774952             -10.2722
       109        2.0000           -0.3762492             -10.2383 (HOMO)
       110                         -0.2449350              -6.6650 (LUMO)
       111                         -0.2381555              -6.4805
       112                         -0.2316442              -6.3034
       113                         -0.2278940              -6.2013
       114                         -0.2232629              -6.0753
       115                         -0.2197168              -5.9788
       116                         -0.2148848              -5.8473
       117                         -0.2006865              -5.4610
       118                         -0.1974091              -5.3718
       119                         -0.1546782              -4.2090
       120                         -0.1422543              -3.8709
       ...                                ...                  ...
       200                          0.6888854              18.7455
      -------------------------------------------------------------
                  HL-Gap            0.1313142 Eh            3.5732 eV

     #   Z          covCN         q      C6AA      Î±(0)
     1   6 C        2.865     0.139    24.958     8.189
     2   8 O        1.705    -0.280    18.642     5.829
     3   6 C        3.642     0.036    20.306     6.479
     4   6 C        2.918    -0.067    29.677     8.933
     5   6 C        2.921    -0.031    28.782     8.798
     6   6 C        2.917    -0.039    28.962     8.825
     7   6 C        2.928    -0.029    28.719     8.789
     8   6 C        2.967    -0.017    28.430     8.746
     9   6 C        3.828     0.044    19.822     6.335
    10   6 C        3.818     0.032    20.025     6.369
    11   6 C        2.973    -0.021    28.537     8.762
    12   6 C        2.925    -0.033    28.812     8.803
    13   6 C        2.917    -0.040    28.998     8.830
    14   6 C        2.921    -0.032    28.786     8.798
    15   6 C        2.918    -0.065    29.617     8.924
    16   6 C        2.867     0.139    24.973     8.192
    17   8 O        1.705    -0.276    18.581     5.820
    18   6 C        3.644     0.039    20.259     6.470
    19   7 N        2.767    -0.113    23.471     7.195
    20   6 C        2.761     0.278    22.299     7.733
    21   6 C        3.082    -0.068    29.606     8.920
    22   6 C        3.079     0.120    25.276     8.242
    23   6 C        3.753    -0.122    22.890     6.823
    24   8 O        1.729    -0.196    17.267     5.611
    25   6 C        3.056     0.046    26.905     8.507
    26   6 C        3.043    -0.008    28.185     8.708
    27   6 C        3.754    -0.111    22.676     6.790
    28   8 O        0.859    -0.443    22.555     6.368
    29   6 C        3.774     0.090    19.116     6.230
    30   6 C        2.688     0.361    20.875     7.477
    31   8 O        1.659    -0.364    20.164     6.062
    32   8 O        0.856    -0.397    21.622     6.234
    33   7 N        2.763    -0.106    23.329     7.174
    34   6 C        2.758     0.275    22.346     7.741
    35   6 C        3.079    -0.074    29.749     8.942
    36   6 C        3.087     0.120    25.274     8.241
    37   6 C        3.753    -0.117    22.790     6.807
    38   8 O        1.729    -0.192    17.202     5.600
    39   6 C        3.059     0.051    26.808     8.491
    40   6 C        3.045    -0.018    28.418     8.743
    41   6 C        3.753    -0.107    22.608     6.780
    42   8 O        0.859    -0.431    22.318     6.334
    43   1 H        0.925     0.078     2.003     2.213
    44   1 H        0.924     0.041     2.441     2.443
    45   1 H        0.924     0.036     2.499     2.472
    46   1 H        0.926     0.038     2.470     2.458
    47   1 H        0.926     0.038     2.471     2.458
    48   1 H        0.926     0.042     2.422     2.433
    49   1 H        0.926     0.056     2.249     2.345
    50   1 H        0.924     0.068     2.104     2.268
    51   1 H        0.924     0.080     1.982     2.201
    52   1 H        0.926     0.043     2.415     2.430
    53   1 H        0.926     0.039     2.456     2.451
    54   1 H        0.926     0.040     2.446     2.446
    55   1 H        0.926     0.041     2.434     2.440
    56   1 H        0.925     0.061     2.193     2.316
    57   1 H        0.924     0.048     2.342     2.393
    58   1 H        0.924     0.042     2.425     2.435
    59   1 H        0.925     0.063     2.162     2.299
    60   1 H        0.925     0.065     2.140     2.287
    61   1 H        0.925     0.073     2.049     2.238
    62   1 H        0.926     0.044     2.391     2.418
    63   1 H        0.925     0.069     2.093     2.263
    64   1 H        0.925     0.048     2.347     2.396
    65   1 H        0.925     0.043     2.415     2.430
    66   1 H        0.923     0.103     1.761     2.075
    67   1 H        0.804     0.338     0.617     1.234
    68   1 H        0.925     0.067     2.121     2.278
    69   1 H        0.925     0.062     2.177     2.307
    70   1 H        0.925     0.059     2.208     2.324
    71   1 H        0.926     0.050     2.325     2.384
    72   1 H        0.925     0.045     2.388     2.417
    73   1 H        0.925     0.046     2.365     2.405
    74   1 H        0.924     0.061     2.189     2.314

Wiberg/Mayer (AO) data.
largest (>0.10) Wiberg bond orders for each atom

     #   Z sym  total        # sym  WBO       # sym  WBO       # sym  WBO
 ---------------------------------------------------------------------------
     1   6 C    3.932 --     4 C    1.382     8 C    1.331     2 O    1.049
     2   8 O    2.235 --     1 C    1.049     3 C    0.981
     3   6 C    3.941 --     2 O    0.981    44 H    0.977    45 H    0.976
                            43 H    0.972
     4   6 C    3.987 --     5 C    1.435     1 C    1.382    46 H    0.965
                             7 C    0.104
     5   6 C    3.990 --     6 C    1.443     4 C    1.435    47 H    0.971
                             8 C    0.107
     6   6 C    3.991 --     5 C    1.443     7 C    1.429    48 H    0.970
     7   6 C    3.988 --     8 C    1.433     6 C    1.429    49 H    0.965
                             4 C    0.104
     8   6 C    3.983 --     7 C    1.433     1 C    1.331     9 C    0.990
                             5 C    0.107
     9   6 C    3.965 --     8 C    0.990    33 N    0.956    10 C    0.953
                            50 H    0.952
    10   6 C    3.965 --    11 C    0.993    19 N    0.962     9 C    0.953
                            51 H    0.947
    11   6 C    3.984 --    12 C    1.433    16 C    1.327    10 C    0.993
                            14 C    0.107
    12   6 C    3.990 --    11 C    1.433    13 C    1.427    52 H    0.966
                            15 C    0.102
    13   6 C    3.992 --    14 C    1.439    12 C    1.427    53 H    0.970
    14   6 C    3.990 --    13 C    1.439    15 C    1.437    54 H    0.971
                            11 C    0.107
    15   6 C    3.987 --    14 C    1.437    16 C    1.380    55 H    0.965
                            12 C    0.102
    16   6 C    3.935 --    15 C    1.380    11 C    1.327    17 O    1.058
    17   8 O    2.228 --    16 C    1.058    18 C    0.981
    18   6 C    3.943 --    17 O    0.981    56 H    0.979    58 H    0.976
                            57 H    0.976
    19   7 N    3.456 --    20 C    1.194    29 C    0.988    10 C    0.962
                            28 O    0.181
    20   6 C    3.946 --    28 O    1.663    19 N    1.194    21 C    1.001
    21   6 C    3.973 --    22 C    1.523    26 C    1.215    20 C    1.001
    22   6 C    3.917 --    21 C    1.523    24 O    1.130    23 C    1.032
                            25 C    0.134
    23   6 C    3.991 --    22 C    1.032    61 H    0.975    59 H    0.972
                            60 H    0.960
    24   8 O    2.426 --    22 C    1.130    25 C    1.101
    25   6 C    3.895 --    26 C    1.603    24 O    1.101    62 H    0.967
                            22 C    0.134
    26   6 C    3.983 --    25 C    1.603    21 C    1.215    27 C    1.034
    27   6 C    3.995 --    26 C    1.034    65 H    0.984    63 H    0.974
                            64 H    0.964
    28   8 O    2.000 --    20 C    1.663    19 N    0.181
    29   6 C    3.969 --    33 N    0.994    19 N    0.988    30 C    0.918
                            66 H    0.910
    30   6 C    3.916 --    32 O    1.763    31 O    1.148    29 C    0.918
    31   8 O    2.212 --    30 C    1.148    67 H    0.860    32 O    0.174
    32   8 O    2.050 --    30 C    1.763    31 O    0.174
    33   7 N    3.475 --    34 C    1.209    29 C    0.994     9 C    0.956
                            42 O    0.190
    34   6 C    3.946 --    42 O    1.683    33 N    1.209    35 C    0.973
    35   6 C    3.971 --    36 C    1.545    40 C    1.216    34 C    0.973
    36   6 C    3.916 --    35 C    1.545    38 O    1.124    37 C    1.030
                            39 C    0.136
    37   6 C    3.993 --    36 C    1.030    69 H    0.983    70 H    0.971
                            68 H    0.967
    38   8 O    2.430 --    36 C    1.124    39 C    1.112
    39   6 C    3.898 --    40 C    1.596    38 O    1.112    71 H    0.966
                            36 C    0.136
    40   6 C    3.981 --    39 C    1.596    35 C    1.216    41 C    1.031
    41   6 C    3.995 --    40 C    1.031    73 H    0.982    72 H    0.979
                            74 H    0.962
    42   8 O    2.007 --    34 C    1.683    33 N    0.190
    43   1 H    0.994 --     3 C    0.972
    44   1 H    0.998 --     3 C    0.977
    45   1 H    0.999 --     3 C    0.976
    46   1 H    0.998 --     4 C    0.965
    47   1 H    0.998 --     5 C    0.971
    48   1 H    0.998 --     6 C    0.970
    49   1 H    0.996 --     7 C    0.965
    50   1 H    0.995 --     9 C    0.952
    51   1 H    0.993 --    10 C    0.947
    52   1 H    0.998 --    12 C    0.966
    53   1 H    0.998 --    13 C    0.970
    54   1 H    0.998 --    14 C    0.971
    55   1 H    0.998 --    15 C    0.965
    56   1 H    0.996 --    18 C    0.979
    57   1 H    0.998 --    18 C    0.976
    58   1 H    0.998 --    18 C    0.976
    59   1 H    0.996 --    23 C    0.972
    60   1 H    0.996 --    23 C    0.960
    61   1 H    0.995 --    23 C    0.975
    62   1 H    0.998 --    25 C    0.967
    63   1 H    0.995 --    27 C    0.974
    64   1 H    0.998 --    27 C    0.964
    65   1 H    0.998 --    27 C    0.984
    66   1 H    0.989 --    29 C    0.910
    67   1 H    0.885 --    31 O    0.860
    68   1 H    0.995 --    37 C    0.967
    69   1 H    0.996 --    37 C    0.983
    70   1 H    0.996 --    37 C    0.971
    71   1 H    0.997 --    39 C    0.966
    72   1 H    0.998 --    41 C    0.979
    73   1 H    0.997 --    41 C    0.982
    74   1 H    0.996 --    41 C    0.962
 ---------------------------------------------------------------------------

molecular dipole:
                 x           y           z       tot (Debye)
 q only:       -0.861      -1.326       1.167
   full:       -1.035      -1.291       1.379       5.475

           -------------------------------------------------
          | TOTAL ENERGY             -123.304811097322 Eh   |
          | GRADIENT NORM               0.000570799799 Eh/Î± |
          | HOMO-LUMO GAP               3.573242562191 eV   |
           -------------------------------------------------

 * finished run on 2022/03/17 at 00:42:55.926
