   * xtb version 6.3.3 (4ae9cef) compiled by 'conda@95abc7406d43' on 2020-10-14
          program call               : xtb acid_246.xyz --opt --chrg 0 --uhf 0 --gfn 2
          number of atoms            :                    92
          number of electrons        :                   250
          charge                     :                     0
          spin                       :                   0.0

   ID    Z sym.   atoms
    1    6 C      1, 3-16, 18, 20-30, 32, 33, 37-47
    2    8 O      2, 17, 31, 34, 35, 48
    3    7 N      19, 36
    4    1 H      49-92

          :  Hamiltonian                  GFN2-xTB          :
 * total energy  :  -138.3565323 Eh     change       -0.1598323E-08 Eh
 * total energy  :  -138.3755925 Eh     change       -0.1906013E-01 Eh
 * total energy  :  -138.3823102 Eh     change       -0.6717751E-02 Eh
 * total energy  :  -138.3850739 Eh     change       -0.2763659E-02 Eh
 * total energy  :  -138.3869389 Eh     change       -0.1865066E-02 Eh
 * total energy  :  -138.3882188 Eh     change       -0.1279849E-02 Eh
 * total energy  :  -138.3892247 Eh     change       -0.1005859E-02 Eh
 * total energy  :  -138.3902484 Eh     change       -0.1023742E-02 Eh
 * total energy  :  -138.3913307 Eh     change       -0.1082292E-02 Eh
 * total energy  :  -138.3921682 Eh     change       -0.8375297E-03 Eh
 * total energy  :  -138.4052416 Eh     change       -0.1109436E-04 Eh
 * total energy  :  -138.4052523 Eh     change       -0.1069823E-04 Eh
 * total energy  :  -138.4052629 Eh     change       -0.1057848E-04 Eh
 * total energy  :  -138.4052741 Eh     change       -0.1124541E-04 Eh
 * total energy  :  -138.4052873 Eh     change       -0.1318402E-04 Eh
 * total energy  :  -138.4053032 Eh     change       -0.1591904E-04 Eh
 * total energy  :  -138.4053201 Eh     change       -0.1684169E-04 Eh
 * total energy  :  -138.4053350 Eh     change       -0.1489845E-04 Eh
 * total energy  :  -138.4053374 Eh     change       -0.2447273E-05 Eh
   *** GEOMETRY OPTIMIZATION CONVERGED AFTER 94 ITERATIONS ***

 final structure:
================
92
 xtb: 6.3.3 (4ae9cef)
C        -1.44739450673965   -3.70848659591459    1.93528120586471
O        -1.03942329302457   -2.77639909990500    2.84690805744129
C        -1.68059232517427   -2.74393927796089    4.09847566716294
C        -2.30608192671310   -4.75926657191723    2.21612295877009
C        -2.64503401609082   -5.66162652461334    1.22044187916002
C        -2.13244036923778   -5.52196070080611   -0.05262510988131
C        -1.28090040144715   -4.46652352060074   -0.34228786674791
C        -0.93535028063100   -3.55399409685137    0.63508148862633
C        -0.00138376690700   -2.40133503459814    0.41046232862609
C         0.74023982736254   -2.29468642178949   -0.92657126116541
C         1.93881726796003   -3.19449819234295   -1.03785566977856
C         3.02462560996907   -3.01485338210590   -0.19757322087300
C         4.15022062151449   -3.81276066291738   -0.29934446641846
C         4.19220362549373   -4.80248548429697   -1.26194526783867
C         3.12109533941532   -4.99511927408046   -2.11682083838160
C         1.98744176988311   -4.19719969931335   -2.01646712769492
O         0.89047870950207   -4.32812676769691   -2.81232313073434
C         0.95590192830067   -5.19824491093371   -3.91598365535434
N         1.14728242440366   -0.88757800422989   -0.90357238186978
C         1.87732922819352   -0.37814315257334   -1.93418769814661
C         2.24203334978543    1.06148401982859   -1.79954899182532
C         1.96218087210285    1.93650129994685   -2.83905911955083
C         2.30629879239337    3.26908142745287   -2.70851957491567
C         2.93019482446613    3.71795419712014   -1.56025302264225
C         3.25047402619743    2.84902110335068   -0.51923021354709
C         3.92148880873293    3.39194910687610    0.73168290528188
C         4.19281973947980    2.30472391337378    1.77489572389050
C         5.26115850337938    4.03837984749522    0.35446954806108
C         2.98662221457850    4.43575090920322    1.35974728128187
C         2.90566204052522    1.51414436674072   -0.66482917471077
O         2.22978387876978   -1.06447945308616   -2.87093513300420
C         0.37733716225404   -0.12802887082982    0.07472892132027
C        -0.22466348040801    1.12896392778634   -0.57080595953561
O        -0.92860033364715    0.82319292434802   -1.65668238533406
O        -0.04864535326651    2.25024669708742   -0.18196203024228
N        -0.61650950732921   -1.07664813431703    0.52324350698737
C        -1.94239638802224   -0.81972182785502    0.70004694717912
C        -2.24290920897433    0.59649865041534    1.06626459677618
C        -3.25553689756629    1.26918044221884    0.39126386039103
C        -3.60423804163088    2.56859004055151    0.72882630641835
C        -4.68664388165300    3.34566386536468   -0.00392466785216
C        -5.79287423594246    3.71763011649675    0.99317596961944
C        -4.07139011905737    4.62006664621639   -0.59921104355129
C        -5.32221469660669    2.54077992326175   -1.14089033425758
C        -2.92420176130464    3.16419576036680    1.78931209024670
C        -1.94633355383795    2.48626867572703    2.49321978935850
C        -1.59755970334043    1.19717366451615    2.13864232984180
O        -2.81375650955770   -1.65974706368310    0.63371173058104
H        -1.27904799004480   -1.87249542469717    4.61455793659953
H        -2.76261802704544   -2.63004807471499    3.98526748870673
H        -1.46440360965554   -3.64118418083415    4.68813797982682
H        -2.72152146718055   -4.88436169725959    3.20353605834299
H        -3.31746915455448   -6.47458573506979    1.45182185430141
H        -2.39848030813092   -6.22521500643961   -0.82702158310707
H        -0.88791626946738   -4.36127051897000   -1.33949831972437
H         0.75378099093875   -2.44391735211356    1.21332621341086
H         0.06885043497809   -2.46252293994548   -1.77480707382651
H         2.99444548827492   -2.22441054815442    0.53882065669094
H         4.98895487995317   -3.65656971432955    0.36172242153578
H         5.06569194640891   -5.43008042482155   -1.35875092497332
H         3.18283766404455   -5.76863452785243   -2.86567725670273
H         1.04855745766343   -6.24297513748903   -3.60069220304222
H         1.78551751254534   -4.93841843861445   -4.57962067083949
H         0.01459805578294   -5.06761437465809   -4.44830456245873
H         1.47190017132392    1.56783453712433   -3.72776722859814
H         2.08242555957632    3.96435382789657   -3.50459326594964
H         3.17283770509001    4.76663012373444   -1.48105375699594
H         3.26389902886018    1.85090531708993    2.11266641530478
H         4.68330131878015    2.74761381619219    2.63953158976940
H         4.84826224724478    1.53289164281634    1.37761857804020
H         5.92008432908320    3.30058950763697   -0.09871035750369
H         5.12494058760642    4.85204244207204   -0.35220879163297
H         5.74734674437853    4.43686705232460    1.24249629483142
H         2.00319881370269    4.00100173338022    1.52599374261822
H         2.86881396146237    5.30014055509602    0.71259742061224
H         3.38813363249476    4.77548740530163    2.31221806023995
H         3.15384584954042    0.79410129743275    0.09772231383084
H         1.01885380485047    0.20162716340039    0.91155933865699
H        -1.28330523493091    1.62490533106947   -2.07301252735111
H        -3.74783809415119    0.74174338113080   -0.40978702472044
H        -6.22045043059396    2.81808469211852    1.43069983739148
H        -5.40969246765675    4.33915094712930    1.79762294977008
H        -6.58456442826356    4.26547725932017    0.48658134857647
H        -3.68037074544083    5.27154164514348    0.17693488513716
H        -4.82304840124172    5.17143469756892   -1.16014711685436
H        -3.25386893705680    4.36803452927517   -1.27165060640067
H        -5.78880486683510    1.63390601372362   -0.76438448345510
H        -6.09279674547944    3.14011381934190   -1.62171687537306
H        -4.58595620812822    2.27394955270965   -1.89579413920808
H        -3.16251366458428    4.17521036082184    2.08282398203833
H        -1.45033773582927    2.97058298461039    3.32132299800967
H        -0.84068740488175    0.65649365997734    2.68702065743468

          :  Hamiltonian                  GFN2-xTB          :
         :: total energy            -138.405337402660 Eh    ::
         :: gradient norm              0.000181545280 Eh/a0 ::
         :: HOMO-LUMO gap              2.745920297195 eV    ::
         :: SCC energy              -140.440963702963 Eh    ::
         :: -> dispersion             -0.122880335108 Eh    ::
         :: repulsion energy           2.031300234144 Eh    ::

    * Orbital Energies and Occupations

         #    Occupation            Energy/Eh            Energy/eV
      -------------------------------------------------------------
         1        2.0000           -0.7667232             -20.8636
       ...           ...                  ...                  ...
       113        2.0000           -0.4144488             -11.2777
       114        2.0000           -0.4074277             -11.0867
       115        2.0000           -0.4060717             -11.0498
       116        2.0000           -0.4029883             -10.9659
       117        2.0000           -0.4011243             -10.9151
       118        2.0000           -0.3986213             -10.8470
       119        2.0000           -0.3968098             -10.7977
       120        2.0000           -0.3934266             -10.7057
       121        2.0000           -0.3905796             -10.6282
       122        2.0000           -0.3849864             -10.4760
       123        2.0000           -0.3838822             -10.4460
       124        2.0000           -0.3731177             -10.1531
       125        2.0000           -0.3668610              -9.9828 (HOMO)
       126                         -0.2659503              -7.2369 (LUMO)
       127                         -0.2442777              -6.6471
       128                         -0.2365968              -6.4381
       129                         -0.2243624              -6.1052
       130                         -0.2228947              -6.0653
       131                         -0.2219093              -6.0385
       132                         -0.2169072              -5.9023
       133                         -0.2107730              -5.7354
       134                         -0.2059761              -5.6049
       135                         -0.1935537              -5.2669
       136                         -0.1855556              -5.0492
       ...                                ...                  ...
       236                          0.6826207              18.5751
      -------------------------------------------------------------
                  HL-Gap            0.1009107 Eh            2.7459 eV

     #   Z          covCN         q      C6AA      Î±(0)
     1   6 C        2.873     0.148    24.777     8.160
     2   8 O        1.705    -0.279    18.623     5.827
     3   6 C        3.644     0.042    20.208     6.461
     4   6 C        2.917    -0.062    29.545     8.913
     5   6 C        2.921    -0.030    28.756     8.794
     6   6 C        2.919    -0.039    28.959     8.825
     7   6 C        2.922    -0.036    28.897     8.815
     8   6 C        2.970    -0.003    28.107     8.696
     9   6 C        3.854     0.049    19.721     6.316
    10   6 C        3.828     0.045    19.800     6.331
    11   6 C        2.972    -0.008    28.222     8.714
    12   6 C        2.926    -0.033    28.824     8.805
    13   6 C        2.917    -0.041    29.014     8.833
    14   6 C        2.921    -0.031    28.776     8.797
    15   6 C        2.918    -0.064    29.585     8.920
    16   6 C        2.868     0.148    24.790     8.162
    17   8 O        1.705    -0.266    18.405     5.792
    18   6 C        3.644     0.038    20.275     6.473
    19   7 N        2.774    -0.126    23.738     7.236
    20   6 C        2.763     0.270    22.435     7.757
    21   6 C        2.977    -0.026    28.634     8.778
    22   6 C        2.923    -0.028    28.696     8.785
    23   6 C        2.918    -0.029    28.729     8.789
    24   6 C        2.928    -0.029    28.725     8.789
    25   6 C        2.974     0.018    27.605     8.618
    26   6 C        3.903     0.026    20.075     6.369
    27   6 C        3.761    -0.107    22.584     6.775
    28   6 C        3.761    -0.107    22.588     6.775
    29   6 C        3.762    -0.109    22.620     6.780
    30   6 C        2.929    -0.038    28.950     8.824
    31   8 O        0.859    -0.421    22.105     6.304
    32   6 C        3.773     0.093    19.079     6.224
    33   6 C        2.688     0.357    20.939     7.489
    34   8 O        1.660    -0.359    20.063     6.047
    35   8 O        0.856    -0.396    21.595     6.230
    36   7 N        2.767    -0.116    23.525     7.204
    37   6 C        2.758     0.277    22.311     7.735
    38   6 C        2.978    -0.026    28.650     8.780
    39   6 C        2.930    -0.034    28.848     8.808
    40   6 C        2.973     0.012    27.736     8.639
    41   6 C        3.903     0.026    20.087     6.371
    42   6 C        3.762    -0.107    22.591     6.775
    43   6 C        3.761    -0.106    22.570     6.772
    44   6 C        3.761    -0.109    22.630     6.781
    45   6 C        2.928    -0.029    28.728     8.790
    46   6 C        2.918    -0.025    28.628     8.774
    47   6 C        2.922    -0.031    28.765     8.795
    48   8 O        0.858    -0.416    21.998     6.288
    49   1 H        0.925     0.056     2.249     2.345
    50   1 H        0.924     0.046     2.370     2.408
    51   1 H        0.924     0.038     2.470     2.458
    52   1 H        0.926     0.037     2.484     2.465
    53   1 H        0.926     0.036     2.502     2.474
    54   1 H        0.926     0.036     2.498     2.472
    55   1 H        0.926     0.058     2.225     2.333
    56   1 H        0.923     0.058     2.225     2.333
    57   1 H        0.924     0.074     2.038     2.233
    58   1 H        0.926     0.031     2.575     2.509
    59   1 H        0.926     0.035     2.510     2.477
    60   1 H        0.926     0.037     2.486     2.466
    61   1 H        0.926     0.040     2.443     2.444
    62   1 H        0.924     0.039     2.459     2.452
    63   1 H        0.924     0.047     2.353     2.399
    64   1 H        0.925     0.063     2.167     2.302
    65   1 H        0.926     0.040     2.453     2.449
    66   1 H        0.926     0.035     2.519     2.482
    67   1 H        0.926     0.038     2.476     2.461
    68   1 H        0.925     0.033     2.539     2.492
    69   1 H        0.925     0.038     2.469     2.457
    70   1 H        0.925     0.036     2.502     2.474
    71   1 H        0.925     0.036     2.510     2.477
    72   1 H        0.925     0.038     2.482     2.464
    73   1 H        0.925     0.039     2.457     2.451
    74   1 H        0.925     0.044     2.399     2.422
    75   1 H        0.925     0.038     2.471     2.458
    76   1 H        0.925     0.038     2.470     2.458
    77   1 H        0.926     0.035     2.516     2.480
    78   1 H        0.922     0.056     2.250     2.346
    79   1 H        0.804     0.342     0.606     1.223
    80   1 H        0.926     0.051     2.303     2.373
    81   1 H        0.925     0.037     2.486     2.466
    82   1 H        0.925     0.038     2.481     2.463
    83   1 H        0.925     0.040     2.451     2.448
    84   1 H        0.925     0.040     2.455     2.450
    85   1 H        0.925     0.040     2.453     2.449
    86   1 H        0.925     0.031     2.568     2.506
    87   1 H        0.925     0.042     2.424     2.435
    88   1 H        0.925     0.039     2.464     2.454
    89   1 H        0.925     0.032     2.556     2.500
    90   1 H        0.926     0.038     2.474     2.460
    91   1 H        0.926     0.037     2.484     2.465
    92   1 H        0.926     0.031     2.577     2.510

Wiberg/Mayer (AO) data.
largest (>0.10) Wiberg bond orders for each atom

     #   Z sym  total        # sym  WBO       # sym  WBO       # sym  WBO
 ---------------------------------------------------------------------------
     1   6 C    3.934 --     4 C    1.395     8 C    1.313     2 O    1.054
     2   8 O    2.220 --     1 C    1.054     3 C    0.984
     3   6 C    3.946 --     2 O    0.984    49 H    0.980    50 H    0.977
                            51 H    0.976
     4   6 C    3.987 --     5 C    1.423     1 C    1.395    52 H    0.966
                             7 C    0.100
     5   6 C    3.991 --     6 C    1.454     4 C    1.423    53 H    0.971
                             8 C    0.107
     6   6 C    3.991 --     5 C    1.454     7 C    1.414    54 H    0.971
     7   6 C    3.987 --     8 C    1.448     6 C    1.414    55 H    0.960
                             4 C    0.100
     8   6 C    3.981 --     7 C    1.448     1 C    1.313     9 C    0.998
                             5 C    0.107
     9   6 C    3.963 --     8 C    0.998    10 C    0.964    36 N    0.946
                            56 H    0.941
    10   6 C    3.961 --    11 C    0.995     9 C    0.964    57 H    0.949
                            19 N    0.947
    11   6 C    3.983 --    12 C    1.435    16 C    1.325    10 C    0.995
                            14 C    0.106
    12   6 C    3.991 --    11 C    1.435    13 C    1.428    58 H    0.967
                            15 C    0.102
    13   6 C    3.991 --    14 C    1.441    12 C    1.428    59 H    0.971
    14   6 C    3.990 --    13 C    1.441    15 C    1.437    60 H    0.971
                            11 C    0.106
    15   6 C    3.987 --    14 C    1.437    16 C    1.379    61 H    0.965
                            12 C    0.102
    16   6 C    3.936 --    15 C    1.379    11 C    1.325    17 O    1.063
    17   8 O    2.240 --    16 C    1.063    18 C    0.982
    18   6 C    3.944 --    17 O    0.982    64 H    0.979    63 H    0.977
                            62 H    0.976
    19   7 N    3.443 --    20 C    1.201    32 C    0.969    10 C    0.947
                            31 O    0.188
    20   6 C    3.945 --    31 O    1.691    19 N    1.201    21 C    0.971
    21   6 C    3.987 --    22 C    1.404    30 C    1.391    20 C    0.971
                            24 C    0.107
    22   6 C    3.990 --    23 C    1.435    21 C    1.404    65 H    0.969
                            25 C    0.107
    23   6 C    3.991 --    24 C    1.452    22 C    1.435    66 H    0.970
                            30 C    0.106
    24   6 C    3.991 --    23 C    1.452    25 C    1.397    67 H    0.965
                            21 C    0.107
    25   6 C    3.986 --    30 C    1.429    24 C    1.397    26 C    0.984
                            22 C    0.107
    26   6 C    3.991 --    27 C    1.000    28 C    0.988    29 C    0.985
                            25 C    0.984
    27   6 C    3.996 --    26 C    1.000    68 H    0.985    70 H    0.984
                            69 H    0.984
    28   6 C    3.996 --    26 C    0.988    71 H    0.987    73 H    0.985
                            72 H    0.983
    29   6 C    3.995 --    74 H    0.986    26 C    0.985    76 H    0.984
                            75 H    0.984
    30   6 C    3.991 --    25 C    1.429    21 C    1.391    77 H    0.962
                            23 C    0.106
    31   8 O    2.020 --    20 C    1.691    19 N    0.188
    32   6 C    3.973 --    36 N    0.987    19 N    0.969    78 H    0.944
                            33 C    0.923
    33   6 C    3.921 --    35 O    1.766    34 O    1.153    32 C    0.923
    34   8 O    2.219 --    33 C    1.153    79 H    0.857    35 O    0.178
    35   8 O    2.051 --    33 C    1.766    34 O    0.178
    36   7 N    3.442 --    37 C    1.194    32 C    0.987     9 C    0.946
                            48 O    0.183
    37   6 C    3.944 --    48 O    1.696    36 N    1.194    38 C    0.969
    38   6 C    3.985 --    47 C    1.395    39 C    1.393    37 C    0.969
                            45 C    0.105
    39   6 C    3.989 --    40 C    1.427    38 C    1.393    80 H    0.963
                            46 C    0.104
    40   6 C    3.986 --    39 C    1.427    45 C    1.400    41 C    0.984
                            47 C    0.107
    41   6 C    3.991 --    44 C    1.000    43 C    0.987    42 C    0.987
                            40 C    0.984
    42   6 C    3.995 --    41 C    0.987    81 H    0.987    83 H    0.984
                            82 H    0.984
    43   6 C    3.996 --    86 H    0.987    41 C    0.987    85 H    0.984
                            84 H    0.983
    44   6 C    3.996 --    41 C    1.000    89 H    0.985    88 H    0.984
                            87 H    0.984
    45   6 C    3.991 --    46 C    1.447    40 C    1.400    90 H    0.965
                            38 C    0.105
    46   6 C    3.991 --    45 C    1.447    47 C    1.440    91 H    0.970
                            39 C    0.104
    47   6 C    3.991 --    46 C    1.440    38 C    1.395    92 H    0.969
                            40 C    0.107
    48   8 O    2.030 --    37 C    1.696    36 N    0.183
    49   1 H    0.996 --     3 C    0.980
    50   1 H    0.998 --     3 C    0.977
    51   1 H    0.999 --     3 C    0.976
    52   1 H    0.998 --     4 C    0.966
    53   1 H    0.998 --     5 C    0.971
    54   1 H    0.998 --     6 C    0.971
    55   1 H    0.996 --     7 C    0.960
    56   1 H    0.996 --     9 C    0.941
    57   1 H    0.994 --    10 C    0.949
    58   1 H    0.998 --    12 C    0.967
    59   1 H    0.998 --    13 C    0.971
    60   1 H    0.998 --    14 C    0.971
    61   1 H    0.998 --    15 C    0.965
    62   1 H    0.998 --    18 C    0.976
    63   1 H    0.998 --    18 C    0.977
    64   1 H    0.996 --    18 C    0.979
    65   1 H    0.998 --    22 C    0.969
    66   1 H    0.998 --    23 C    0.970
    67   1 H    0.998 --    24 C    0.965
    68   1 H    0.999 --    27 C    0.985
    69   1 H    0.998 --    27 C    0.984
    70   1 H    0.999 --    27 C    0.984
    71   1 H    0.999 --    28 C    0.987
    72   1 H    0.999 --    28 C    0.983
    73   1 H    0.998 --    28 C    0.985
    74   1 H    0.998 --    29 C    0.986
    75   1 H    0.999 --    29 C    0.984
    76   1 H    0.998 --    29 C    0.984
    77   1 H    0.999 --    30 C    0.962
    78   1 H    0.997 --    32 C    0.944
    79   1 H    0.883 --    34 O    0.857
    80   1 H    0.997 --    39 C    0.963
    81   1 H    0.999 --    42 C    0.987
    82   1 H    0.999 --    42 C    0.984
    83   1 H    0.998 --    42 C    0.984
    84   1 H    0.998 --    43 C    0.983
    85   1 H    0.998 --    43 C    0.984
    86   1 H    0.999 --    43 C    0.987
    87   1 H    0.998 --    44 C    0.984
    88   1 H    0.998 --    44 C    0.984
    89   1 H    0.999 --    44 C    0.985
    90   1 H    0.998 --    45 C    0.965
    91   1 H    0.997 --    46 C    0.970
    92   1 H    0.998 --    47 C    0.969
 ---------------------------------------------------------------------------

molecular dipole:
                 x           y           z       tot (Debye)
 q only:       -0.060       0.417       0.711
   full:       -0.066       0.634       0.780       2.560

           -------------------------------------------------
          | TOTAL ENERGY             -138.405337402660 Eh   |
          | GRADIENT NORM               0.000181545280 Eh/Î± |
          | HOMO-LUMO GAP               2.745920297195 eV   |
           -------------------------------------------------

 * finished run on 2022/03/16 at 22:56:07.455
