   * xtb version 6.3.3 (4ae9cef) compiled by 'conda@95abc7406d43' on 2020-10-14
          program call               : xtb acid_356.xyz --opt --chrg 0 --uhf 0 --gfn 2
          number of atoms            :                    54
          number of electrons        :                   170
          charge                     :                     0
          spin                       :                   0.0

   ID    Z sym.   atoms
    1    8 O      1, 11, 12, 20
    2    6 C      2-4, 6, 7, 9, 10, 14-16, 18, 19, 21-34
    3   16 S      5, 17
    4    7 N      8, 13
    5    1 H      35-54

          :  Hamiltonian                  GFN2-xTB          :
 * total energy  :   -94.4705660 Eh     change       -0.3046111E-08 Eh
 * total energy  :   -94.4826633 Eh     change       -0.1209722E-01 Eh
 * total energy  :   -94.4863759 Eh     change       -0.3712661E-02 Eh
 * total energy  :   -94.4873160 Eh     change       -0.9400422E-03 Eh
 * total energy  :   -94.4877161 Eh     change       -0.4001627E-03 Eh
 * total energy  :   -94.4880299 Eh     change       -0.3138265E-03 Eh
 * total energy  :   -94.4883583 Eh     change       -0.3283324E-03 Eh
 * total energy  :   -94.4887244 Eh     change       -0.3661612E-03 Eh
 * total energy  :   -94.4890917 Eh     change       -0.3672963E-03 Eh
 * total energy  :   -94.4894048 Eh     change       -0.3130190E-03 Eh
 * total energy  :   -94.4903501 Eh     change       -0.9468890E-05 Eh
 * total energy  :   -94.4903616 Eh     change       -0.1153241E-04 Eh
 * total energy  :   -94.4903762 Eh     change       -0.1462573E-04 Eh
 * total energy  :   -94.4903880 Eh     change       -0.1180795E-04 Eh
 * total energy  :   -94.4903965 Eh     change       -0.8432910E-05 Eh
 * total energy  :   -94.4904048 Eh     change       -0.8293561E-05 Eh
 * total energy  :   -94.4904128 Eh     change       -0.8013477E-05 Eh
 * total energy  :   -94.4904184 Eh     change       -0.5586941E-05 Eh
 * total energy  :   -94.4904229 Eh     change       -0.4504587E-05 Eh
   *** GEOMETRY OPTIMIZATION CONVERGED AFTER 36 ITERATIONS ***

 final structure:
================
54
 xtb: 6.3.3 (4ae9cef)
O        -2.72132896584235    1.78302769094855    0.71421263489501
C        -1.66265403497404    1.83240985190653    0.12880055283154
C        -1.19327332861594    3.02317161029282   -0.63447933981824
C        -1.01225625354306    4.24877610497669   -0.07160720242354
S        -0.47713152433078    5.41498626497780   -1.21077572860665
C        -0.52122397495376    4.24935394525826   -2.47190922607745
C        -0.91333185536980    3.02970092099475   -2.02832644813140
N        -0.79933605308114    0.78221152008019    0.09211185255869
C         0.58492484625562    0.84998532577530   -0.30390731329062
C         1.41260260480415    1.71720710198276    0.67253977212873
O         0.79323570069718    1.91336097387364    1.82665671124866
O         2.49934219658479    2.15570556215915    0.41123662373199
N         1.02607736010574   -0.51650000009652   -0.23854036570025
C         1.60072294219763   -1.24863644932227   -1.24635402273211
C         2.15275788917275   -0.50236264826849   -2.39699278320565
C         2.85981823608739    0.66690070898917   -2.37305628278561
S         3.37028184646767    1.14323393733626   -3.93788504627782
C         2.62816739745220   -0.24110790893028   -4.64317930177868
C         2.03625462090348   -1.02789634317630   -3.71502454154218
O         1.64752829615022   -2.45957457069314   -1.18404793686860
C         0.27359611612516   -1.19921812924239    0.80430752504519
C         0.98916085177401   -1.22190268250823    2.13419719223419
C         0.31383398011309   -1.68403238485064    3.25811040580722
C         0.94334944283374   -1.72259677490892    4.48837701501590
C         2.25829348985420   -1.30487212679176    4.61037478568336
C         2.94245519715406   -0.86430608649628    3.49177724742218
C         2.31360620239623   -0.82763627512116    2.25841674583810
C        -1.07427928284299   -0.43752650377668    0.84489289711196
C        -2.19647716133570   -1.21106780901427    0.20147222841486
C        -2.14156822550009   -1.51850414796976   -1.15262608698795
C        -3.16240466791380   -2.23592163172915   -1.74790465564176
C        -4.24808527951852   -2.65197913538042   -0.99577272801390
C        -4.30969102060362   -2.34492658030888    0.35225745672289
C        -3.28819463013223   -1.62672232308450    0.94851080107822
H        -1.15937225291091    4.52541909662061    0.95299820623520
H        -0.25685306733786    4.53919031601587   -3.46913087597684
H        -1.03571071000154    2.17155292056575   -2.66568840745570
H         0.72190501347949    1.26046675936763   -1.31164478906838
H         1.34430166373801    2.42737123217229    2.43966601638540
H         3.14139365228581    1.26311822050377   -1.52746800869347
H         2.68427188312110   -0.38733245241317   -5.70306042621720
H         1.52618422299802   -1.94935271108977   -3.92792047865706
H         0.12620639261595   -2.23560153709336    0.47336493949761
H        -0.70628691569712   -2.02655783797864    3.16394176300456
H         0.40782732224798   -2.08420065934687    5.35348164348893
H         2.75011836891837   -1.33374417775131    5.57118680507746
H         3.97277502836090   -0.55134930691179    3.57396003044298
H         2.86417998795207   -0.49990682442546    1.38879789429496
H        -1.35127814166388   -0.16595969158311    1.86954394192527
H        -1.29612438156821   -1.19605255808649   -1.74415832586695
H        -3.11085379406432   -2.47064509071821   -2.80092228612744
H        -5.04593692662132   -3.21100305389412   -1.46158895358868
H        -5.15755094084390   -2.66163313359500    0.94118399073217
H        -3.34396736358306   -1.37652151823575    1.99759588267990

          :  Hamiltonian                  GFN2-xTB          :
         :: total energy             -94.490422877343 Eh    ::
         :: gradient norm              0.000458130964 Eh/a0 ::
         :: HOMO-LUMO gap              3.358755659459 eV    ::
         :: SCC energy               -95.848577896660 Eh    ::
         :: -> dispersion             -0.079456583241 Eh    ::
         :: repulsion energy           1.355737107381 Eh    ::

    * Orbital Energies and Occupations

         #    Occupation            Energy/Eh            Energy/eV
      -------------------------------------------------------------
         1        2.0000           -0.7833514             -21.3161
       ...           ...                  ...                  ...
        73        2.0000           -0.4283984             -11.6573
        74        2.0000           -0.4220824             -11.4854
        75        2.0000           -0.4169322             -11.3453
        76        2.0000           -0.4157101             -11.3120
        77        2.0000           -0.4134544             -11.2507
        78        2.0000           -0.4127855             -11.2325
        79        2.0000           -0.4111758             -11.1887
        80        2.0000           -0.4106830             -11.1753
        81        2.0000           -0.4098979             -11.1539
        82        2.0000           -0.4078013             -11.0968
        83        2.0000           -0.4047026             -11.0125
        84        2.0000           -0.4025186             -10.9531
        85        2.0000           -0.3988773             -10.8540 (HOMO)
        86                         -0.2754453              -7.4952 (LUMO)
        87                         -0.2689193              -7.3177
        88                         -0.2629336              -7.1548
        89                         -0.2380150              -6.4767
        90                         -0.2349790              -6.3941
        91                         -0.2337148              -6.3597
        92                         -0.2326016              -6.3294
        93                         -0.2294522              -6.2437
        94                         -0.2278315              -6.1996
        95                         -0.2125146              -5.7828
        96                         -0.2113179              -5.7503
       ...                                ...                  ...
       166                          0.6908386              18.7987
      -------------------------------------------------------------
                  HL-Gap            0.1234320 Eh            3.3588 eV

     #   Z          covCN         q      C6AA      Î±(0)
     1   8 O        0.859    -0.414    21.953     6.282
     2   6 C        2.760     0.275    22.357     7.743
     3   6 C        3.173    -0.037    28.531     8.725
     4   6 C        2.944    -0.020    28.507     8.757
     5  16 S        2.308     0.014   140.483    19.949
     6   6 C        2.940    -0.023    28.569     8.766
     7   6 C        3.119    -0.049    29.041     8.826
     8   7 N        2.769    -0.118    23.557     7.209
     9   6 C        3.770     0.088    19.155     6.237
    10   6 C        2.688     0.352    21.017     7.503
    11   8 O        1.659    -0.351    19.919     6.025
    12   8 O        0.856    -0.393    21.549     6.224
    13   7 N        2.765    -0.120    23.602     7.215
    14   6 C        2.760     0.272    22.395     7.750
    15   6 C        3.169    -0.035    28.488     8.720
    16   6 C        2.938    -0.033    28.828     8.806
    17  16 S        2.309     0.014   140.501    19.950
    18   6 C        2.938    -0.024    28.598     8.770
    19   6 C        3.119    -0.037    28.741     8.780
    20   8 O        0.860    -0.415    21.981     6.286
    21   6 C        3.838     0.037    19.933     6.352
    22   6 C        2.971     0.004    27.927     8.668
    23   6 C        2.925    -0.036    28.903     8.817
    24   6 C        2.920    -0.027    28.671     8.781
    25   6 C        2.920    -0.031    28.765     8.795
    26   6 C        2.920    -0.029    28.713     8.787
    27   6 C        2.923    -0.033    28.824     8.804
    28   6 C        3.824     0.040    19.878     6.344
    29   6 C        2.974     0.008    27.843     8.655
    30   6 C        2.924    -0.029    28.723     8.789
    31   6 C        2.919    -0.027    28.666     8.780
    32   6 C        2.920    -0.028    28.699     8.785
    33   6 C        2.920    -0.025    28.636     8.775
    34   6 C        2.924    -0.028    28.702     8.786
    35   1 H        0.926     0.055     2.260     2.351
    36   1 H        0.926     0.055     2.261     2.352
    37   1 H        0.926     0.038     2.480     2.463
    38   1 H        0.924     0.073     2.048     2.238
    39   1 H        0.804     0.345     0.599     1.216
    40   1 H        0.926     0.071     2.075     2.253
    41   1 H        0.926     0.054     2.274     2.358
    42   1 H        0.926     0.058     2.226     2.333
    43   1 H        0.924     0.088     1.898     2.155
    44   1 H        0.926     0.035     2.510     2.478
    45   1 H        0.926     0.039     2.467     2.456
    46   1 H        0.926     0.037     2.490     2.468
    47   1 H        0.926     0.037     2.485     2.465
    48   1 H        0.926     0.031     2.568     2.506
    49   1 H        0.924     0.066     2.132     2.283
    50   1 H        0.926     0.025     2.662     2.551
    51   1 H        0.926     0.036     2.508     2.477
    52   1 H        0.926     0.037     2.492     2.469
    53   1 H        0.926     0.039     2.464     2.455
    54   1 H        0.926     0.039     2.468     2.456

Wiberg/Mayer (AO) data.
largest (>0.10) Wiberg bond orders for each atom

     #   Z sym  total        # sym  WBO       # sym  WBO       # sym  WBO
 ---------------------------------------------------------------------------
     1   8 O    2.028 --     2 C    1.700     8 N    0.188
     2   6 C    3.949 --     1 O    1.700     8 N    1.199     3 C    0.963
     3   6 C    3.983 --     4 C    1.591     7 C    1.233     2 C    0.963
     4   6 C    3.952 --     3 C    1.591     5 S    1.207    35 H    0.970
                             6 C    0.110
     5  16 S    2.656 --     4 C    1.207     6 C    1.200
     6   6 C    3.952 --     7 C    1.637     5 S    1.200    36 H    0.970
                             4 C    0.110
     7   6 C    3.986 --     6 C    1.637     3 C    1.233    37 H    0.964
     8   7 N    3.455 --     2 C    1.199     9 C    0.986    28 C    0.953
                             1 O    0.188
     9   6 C    3.974 --    13 N    0.991     8 N    0.986    38 H    0.933
                            10 C    0.907
    10   6 C    3.917 --    12 O    1.764    11 O    1.172     9 C    0.907
    11   8 O    2.236 --    10 C    1.172    39 H    0.854    12 O    0.183
    12   8 O    2.059 --    10 C    1.764    11 O    0.183
    13   7 N    3.449 --    14 C    1.168     9 C    0.991    21 C    0.966
                            20 O    0.179
    14   6 C    3.946 --    20 O    1.689    13 N    1.168    15 C    0.999
    15   6 C    3.982 --    16 C    1.557    19 C    1.229    14 C    0.999
    16   6 C    3.953 --    15 C    1.557    17 S    1.224    40 H    0.960
                            18 C    0.108
    17  16 S    2.666 --    16 C    1.224    18 C    1.189
    18   6 C    3.950 --    19 C    1.650    17 S    1.189    41 H    0.970
                            16 C    0.108
    19   6 C    3.987 --    18 C    1.650    15 C    1.229    42 H    0.963
    20   8 O    2.029 --    14 C    1.689    13 N    0.179
    21   6 C    3.959 --    22 C    0.988    13 N    0.966    28 C    0.953
                            43 H    0.938
    22   6 C    3.986 --    27 C    1.419    23 C    1.405    21 C    0.988
                            25 C    0.110
    23   6 C    3.991 --    24 C    1.451    22 C    1.405    44 H    0.968
                            26 C    0.112
    24   6 C    3.991 --    23 C    1.451    25 C    1.433    45 H    0.971
                            27 C    0.110
    25   6 C    3.991 --    26 C    1.445    24 C    1.433    46 H    0.971
                            22 C    0.110
    26   6 C    3.992 --    25 C    1.445    27 C    1.437    47 H    0.971
                            23 C    0.112
    27   6 C    3.991 --    26 C    1.437    22 C    1.419    48 H    0.967
                            24 C    0.110
    28   6 C    3.961 --    29 C    0.989     8 N    0.953    21 C    0.953
                            49 H    0.953
    29   6 C    3.985 --    34 C    1.417    30 C    1.410    28 C    0.989
                            32 C    0.110
    30   6 C    3.992 --    31 C    1.449    29 C    1.410    50 H    0.969
                            33 C    0.112
    31   6 C    3.992 --    30 C    1.449    32 C    1.435    51 H    0.971
                            34 C    0.111
    32   6 C    3.990 --    33 C    1.442    31 C    1.435    52 H    0.971
                            29 C    0.110
    33   6 C    3.992 --    32 C    1.442    34 C    1.441    53 H    0.971
                            30 C    0.112
    34   6 C    3.990 --    33 C    1.441    29 C    1.417    54 H    0.968
                            31 C    0.111
    35   1 H    0.997 --     4 C    0.970
    36   1 H    0.996 --     6 C    0.970
    37   1 H    0.999 --     7 C    0.964
    38   1 H    0.994 --     9 C    0.933
    39   1 H    0.880 --    11 O    0.854
    40   1 H    0.995 --    16 C    0.960
    41   1 H    0.997 --    18 C    0.970
    42   1 H    0.997 --    19 C    0.963
    43   1 H    0.992 --    21 C    0.938
    44   1 H    0.999 --    23 C    0.968
    45   1 H    0.998 --    24 C    0.971
    46   1 H    0.998 --    25 C    0.971
    47   1 H    0.998 --    26 C    0.971
    48   1 H    0.999 --    27 C    0.967
    49   1 H    0.995 --    28 C    0.953
    50   1 H    0.999 --    30 C    0.969
    51   1 H    0.998 --    31 C    0.971
    52   1 H    0.998 --    32 C    0.971
    53   1 H    0.998 --    33 C    0.971
    54   1 H    0.998 --    34 C    0.968
 ---------------------------------------------------------------------------

molecular dipole:
                 x           y           z       tot (Debye)
 q only:        0.258       0.564       0.152
   full:        0.268       0.434       0.190       1.384

           -------------------------------------------------
          | TOTAL ENERGY              -94.490422877343 Eh   |
          | GRADIENT NORM               0.000458130964 Eh/Î± |
          | HOMO-LUMO GAP               3.358755659459 eV   |
           -------------------------------------------------

 * finished run on 2022/03/17 at 00:14:18.128
