   * xtb version 6.3.3 (4ae9cef) compiled by 'conda@95abc7406d43' on 2020-10-14
          program call               : xtb acid_33.xyz --opt --chrg 0 --uhf 0 --gfn 2
          number of atoms            :                    74
          number of electrons        :                   230
          charge                     :                     0
          spin                       :                   0.0

   ID    Z sym.   atoms
    1    6 C      1, 3-16, 18, 20-22, 24-29, 31, 32, 36-38, 40-45
    2    8 O      2, 17, 23, 30, 33, 34, 39, 46
    3    7 N      19, 35
    4    1 H      47-74

          :  Hamiltonian                  GFN2-xTB          :
 * total energy  :  -129.7897549 Eh     change       -0.4728179E-08 Eh
 * total energy  :  -129.8052450 Eh     change       -0.1549012E-01 Eh
 * total energy  :  -129.8102632 Eh     change       -0.5018213E-02 Eh
 * total energy  :  -129.8121131 Eh     change       -0.1849854E-02 Eh
 * total energy  :  -129.8135609 Eh     change       -0.1447868E-02 Eh
 * total energy  :  -129.8143994 Eh     change       -0.8384482E-03 Eh
 * total energy  :  -129.8149642 Eh     change       -0.5648746E-03 Eh
 * total energy  :  -129.8154392 Eh     change       -0.4749701E-03 Eh
 * total energy  :  -129.8159055 Eh     change       -0.4662596E-03 Eh
 * total energy  :  -129.8163052 Eh     change       -0.3996925E-03 Eh
 * total energy  :  -129.8201751 Eh     change       -0.2538321E-04 Eh
 * total energy  :  -129.8201914 Eh     change       -0.1623327E-04 Eh
 * total energy  :  -129.8202010 Eh     change       -0.9610184E-05 Eh
 * total energy  :  -129.8202102 Eh     change       -0.9195139E-05 Eh
 * total energy  :  -129.8202211 Eh     change       -0.1090179E-04 Eh
 * total energy  :  -129.8202287 Eh     change       -0.7620673E-05 Eh
 * total energy  :  -129.8202339 Eh     change       -0.5156474E-05 Eh
 * total energy  :  -129.8202391 Eh     change       -0.5267166E-05 Eh
 * total energy  :  -129.8202440 Eh     change       -0.4884464E-05 Eh
   *** GEOMETRY OPTIMIZATION CONVERGED AFTER 74 ITERATIONS ***

 final structure:
================
74
 xtb: 6.3.3 (4ae9cef)
C         1.46019475051017   -2.14563654177017    1.79681280526232
O         1.25759124574571   -3.23912783643190    1.00849604256801
C         1.50251089977126   -4.51279136553828    1.55030314610793
C         1.79315376325222   -2.19781952075492    3.14508057174633
C         1.94574364704938   -1.02936138368970    3.87235121153197
C         1.75715942124450    0.20122508506083    3.27348732326864
C         1.42868828518376    0.25995490886075    1.93019029980466
C         1.29603762921303   -0.89738334838604    1.18312537880608
C         0.93834148507188   -0.82845318173887   -0.27750135876993
C        -0.54658081335951   -0.46791765874386   -0.47344194290660
C        -1.36811516563998   -1.65827780578657   -0.88757548679276
C        -1.34417480047797   -2.12763203634450   -2.18919272962122
C        -2.11122644237844   -3.21629771411686   -2.56536455738418
C        -2.90554823437611   -3.84338996847033   -1.62431671312184
C        -2.92789964511708   -3.40040762067390   -0.31266538323908
C        -2.15527627103264   -2.31110224364418    0.07186542845454
O        -2.10048523199164   -1.80908379260429    1.33637805533775
C        -2.88313489991650   -2.41067239790253    2.33775821082640
N        -0.52704713468609    0.57808374901190   -1.48037115438417
C        -1.60170889507756    1.22758396581347   -1.99290895649465
C        -2.90884210474190    0.69701811840554   -1.54153460501625
C        -3.85238325665539    0.06045164246715   -2.28078683939456
O        -4.91941531944735   -0.31776252090597   -1.54515154508378
C        -4.68480856467138    0.10615927214342   -0.28041773202688
C        -3.44102558773023    0.76286497649706   -0.20871452912480
C        -3.01374639895157    1.31689598118459    0.99605508683999
C        -3.82610449489080    1.16521488529481    2.09836032239330
C        -5.04599011622724    0.49045311460113    2.01934240087656
C        -5.50115976150896   -0.04339612721031    0.83019067520255
O        -1.47108164452310    2.15965022913029   -2.76272493655097
C         0.79790622477934    1.10753645613389   -1.71303553839855
C         0.82909150690746    2.56488308535643   -1.20160191365189
O         1.25949685721104    3.40465290917940   -2.12645956322735
O         0.48676432660276    2.88332630003330   -0.09650669097826
N         1.66223926032146    0.22895707719235   -0.97151003465515
C         3.01916601433866    0.21016952081919   -1.01824068805119
C         3.61755745055758    1.37795291732823   -1.71579960016576
C         4.01598425754898    1.49984270008882   -3.00654619315960
O         4.54565850124767    2.71406967844716   -3.27434776955687
C         4.50277968277132    3.41639347309604   -2.11935031291445
C         3.93815770564453    2.63212475001010   -1.09379257470023
C         3.80160886171316    3.15253879138377    0.19079684430281
C         4.22081715161946    4.44702173833400    0.40763187731618
C         4.77087962557888    5.21798080276571   -0.61936979044945
C         4.92541292808867    4.71827126634593   -1.89701169130431
O         3.67394729182044   -0.66418988531193   -0.49467748633827
H         1.32572237300267   -5.21575391714843    0.73731338175124
H         2.53612554773863   -4.61103381923061    1.89530515269982
H         0.81876962118841   -4.73803790900027    2.37583112603189
H         1.93836952498910   -3.14495796012140    3.64037327529363
H         2.20979028442588   -1.08991046431125    4.91788917368881
H         1.86587193990977    1.10996418492503    3.84551916422578
H         1.27032951787903    1.21592385935448    1.45235193077119
H         1.17581583008290   -1.79219851247456   -0.74370525924467
H        -0.94539175650138   -0.07858537506413    0.46986859479057
H        -0.72807069691770   -1.62047993324956   -2.91701659716724
H        -2.08968988655324   -3.56935640554657   -3.58463259941931
H        -3.51527695387025   -4.68878482972668   -1.90587470242131
H        -3.55342144491233   -3.91003707471642    0.40269793661626
H        -3.95073185046990   -2.34339225714611    2.10699325879847
H        -2.60331293460212   -3.45780278671042    2.49058429718001
H        -2.67589193597747   -1.84561932147954    3.24489754638242
H        -3.86513802424053   -0.20230771738176   -3.32033072381511
H        -2.08287228011523    1.86030681317445    1.05579199386031
H        -3.51800875621291    1.57880353966439    3.04677037214589
H        -5.65138949744890    0.39269993116256    2.90808216248932
H        -6.45021520838263   -0.55020878601184    0.75660067356329
H         1.03375551476626    1.12738804963947   -2.78929583753026
H         1.21208548254886    4.32549095524136   -1.82106438608403
H         3.97641945413638    0.80319144610666   -3.82149948719917
H         3.38504685824198    2.55243556782735    0.98454884102457
H         4.12628073487659    4.87910691603705    1.39237577263899
H         5.08759383333226    6.22758195827510   -0.40565332758494
H         5.35630171868077    5.30500340293046   -2.69203209664402

          :  Hamiltonian                  GFN2-xTB          :
         :: total energy            -129.820244003815 Eh    ::
         :: gradient norm              0.000536524703 Eh/a0 ::
         :: HOMO-LUMO gap              3.201701428418 eV    ::
         :: SCC energy              -131.654687520505 Eh    ::
         :: -> dispersion             -0.112939004993 Eh    ::
         :: repulsion energy           1.829501935266 Eh    ::

    * Orbital Energies and Occupations

         #    Occupation            Energy/Eh            Energy/eV
      -------------------------------------------------------------
         1        2.0000           -0.7632947             -20.7703
       ...           ...                  ...                  ...
       103        2.0000           -0.4229846             -11.5100
       104        2.0000           -0.4158429             -11.3157
       105        2.0000           -0.4087692             -11.1232
       106        2.0000           -0.4074364             -11.0869
       107        2.0000           -0.4053689             -11.0307
       108        2.0000           -0.4030393             -10.9673
       109        2.0000           -0.4008341             -10.9073
       110        2.0000           -0.3980380             -10.8312
       111        2.0000           -0.3941766             -10.7261
       112        2.0000           -0.3924046             -10.6779
       113        2.0000           -0.3902470             -10.6192
       114        2.0000           -0.3868228             -10.5260
       115        2.0000           -0.3771399             -10.2625 (HOMO)
       116                         -0.2594796              -7.0608 (LUMO)
       117                         -0.2541795              -6.9166
       118                         -0.2497915              -6.7972
       119                         -0.2374859              -6.4623
       120                         -0.2259482              -6.1484
       121                         -0.2252836              -6.1303
       122                         -0.2229393              -6.0665
       123                         -0.2202905              -5.9944
       124                         -0.2191279              -5.9628
       125                         -0.2172780              -5.9124
       126                         -0.2124164              -5.7801
       ...                                ...                  ...
       212                          0.7106478              19.3377
      -------------------------------------------------------------
                  HL-Gap            0.1176604 Eh            3.2017 eV

     #   Z          covCN         q      C6AA      Î±(0)
     1   6 C        2.868     0.146    24.832     8.168
     2   8 O        1.705    -0.272    18.516     5.810
     3   6 C        3.644     0.039    20.248     6.468
     4   6 C        2.918    -0.064    29.604     8.922
     5   6 C        2.921    -0.032    28.786     8.798
     6   6 C        2.918    -0.040    28.984     8.828
     7   6 C        2.924    -0.034    28.853     8.809
     8   6 C        2.975    -0.009    28.240     8.717
     9   6 C        3.824     0.048    19.745     6.323
    10   6 C        3.818     0.036    19.954     6.357
    11   6 C        2.974    -0.021    28.516     8.759
    12   6 C        2.924    -0.036    28.885     8.814
    13   6 C        2.917    -0.041    29.010     8.832
    14   6 C        2.921    -0.030    28.759     8.794
    15   6 C        2.918    -0.065    29.606     8.923
    16   6 C        2.868     0.141    24.926     8.184
    17   8 O        1.705    -0.274    18.544     5.814
    18   6 C        3.644     0.038    20.271     6.472
    19   7 N        2.769    -0.106    23.325     7.173
    20   6 C        2.762     0.274    22.371     7.746
    21   6 C        3.039    -0.051    29.233     8.868
    22   6 C        3.059     0.087    26.006     8.363
    23   8 O        1.721    -0.194    17.232     5.605
    24   6 C        3.122     0.124    25.120     8.208
    25   6 C        3.092    -0.010    28.148     8.696
    26   6 C        2.911    -0.031    28.768     8.795
    27   6 C        2.922    -0.034    28.844     8.807
    28   6 C        2.927    -0.034    28.851     8.809
    29   6 C        2.908    -0.051    29.274     8.872
    30   8 O        0.859    -0.436    22.415     6.348
    31   6 C        3.758     0.095    19.059     6.224
    32   6 C        2.689     0.364    20.827     7.469
    33   8 O        1.660    -0.349    19.884     6.020
    34   8 O        0.856    -0.391    21.501     6.217
    35   7 N        2.765    -0.112    23.433     7.190
    36   6 C        2.759     0.274    22.364     7.744
    37   6 C        3.037    -0.059    29.431     8.898
    38   6 C        3.061     0.083    26.096     8.377
    39   8 O        1.721    -0.190    17.169     5.595
    40   6 C        3.120     0.124    25.116     8.208
    41   6 C        3.095    -0.012    28.207     8.705
    42   6 C        2.911    -0.034    28.837     8.806
    43   6 C        2.922    -0.037    28.914     8.818
    44   6 C        2.926    -0.035    28.882     8.813
    45   6 C        2.908    -0.052    29.281     8.873
    46   8 O        0.859    -0.413    21.938     6.280
    47   1 H        0.925     0.061     2.190     2.314
    48   1 H        0.924     0.047     2.362     2.404
    49   1 H        0.924     0.037     2.486     2.466
    50   1 H        0.926     0.038     2.474     2.460
    51   1 H        0.926     0.037     2.490     2.468
    52   1 H        0.926     0.038     2.475     2.460
    53   1 H        0.926     0.053     2.281     2.362
    54   1 H        0.924     0.076     2.024     2.225
    55   1 H        0.924     0.078     2.000     2.212
    56   1 H        0.926     0.040     2.448     2.447
    57   1 H        0.926     0.041     2.431     2.438
    58   1 H        0.926     0.042     2.426     2.436
    59   1 H        0.926     0.041     2.433     2.439
    60   1 H        0.924     0.043     2.415     2.430
    61   1 H        0.924     0.044     2.396     2.421
    62   1 H        0.925     0.064     2.149     2.292
    63   1 H        0.926     0.060     2.195     2.317
    64   1 H        0.926     0.050     2.316     2.380
    65   1 H        0.926     0.042     2.424     2.435
    66   1 H        0.926     0.041     2.440     2.443
    67   1 H        0.926     0.047     2.360     2.402
    68   1 H        0.923     0.071     2.076     2.253
    69   1 H        0.804     0.346     0.598     1.215
    70   1 H        0.926     0.057     2.238     2.339
    71   1 H        0.926     0.045     2.383     2.414
    72   1 H        0.926     0.042     2.418     2.432
    73   1 H        0.926     0.043     2.414     2.430
    74   1 H        0.926     0.050     2.315     2.379

Wiberg/Mayer (AO) data.
largest (>0.10) Wiberg bond orders for each atom

     #   Z sym  total        # sym  WBO       # sym  WBO       # sym  WBO
 ---------------------------------------------------------------------------
     1   6 C    3.934 --     4 C    1.380     8 C    1.327     2 O    1.060
     2   8 O    2.231 --     1 C    1.060     3 C    0.984
     3   6 C    3.945 --     2 O    0.984    47 H    0.980    48 H    0.976
                            49 H    0.976
     4   6 C    3.987 --     5 C    1.436     1 C    1.380    50 H    0.966
                             7 C    0.103
     5   6 C    3.990 --     6 C    1.443     4 C    1.436    51 H    0.971
                             8 C    0.107
     6   6 C    3.991 --     5 C    1.443     7 C    1.427    52 H    0.971
     7   6 C    3.989 --     8 C    1.437     6 C    1.427    53 H    0.962
                             4 C    0.103
     8   6 C    3.983 --     7 C    1.437     1 C    1.327     9 C    0.991
                             5 C    0.107
     9   6 C    3.960 --     8 C    0.991    35 N    0.953    10 C    0.952
                            54 H    0.950
    10   6 C    3.961 --    11 C    0.992    19 N    0.961     9 C    0.952
                            55 H    0.942
    11   6 C    3.983 --    12 C    1.436    16 C    1.323    10 C    0.992
                            14 C    0.106
    12   6 C    3.990 --    11 C    1.436    13 C    1.428    56 H    0.968
                            15 C    0.102
    13   6 C    3.991 --    14 C    1.441    12 C    1.428    57 H    0.970
    14   6 C    3.990 --    13 C    1.441    15 C    1.437    58 H    0.971
                            11 C    0.106
    15   6 C    3.987 --    14 C    1.437    16 C    1.379    59 H    0.965
                            12 C    0.102
    16   6 C    3.934 --    15 C    1.379    11 C    1.323    17 O    1.063
    17   8 O    2.234 --    16 C    1.063    18 C    0.981
    18   6 C    3.943 --    17 O    0.981    62 H    0.979    61 H    0.976
                            60 H    0.976
    19   7 N    3.472 --    20 C    1.216    31 C    0.979    10 C    0.961
                            30 O    0.192
    20   6 C    3.949 --    30 O    1.671    19 N    1.216    21 C    0.977
    21   6 C    3.979 --    22 C    1.623    25 C    1.162    20 C    0.977
    22   6 C    3.919 --    21 C    1.623    23 O    1.117    63 H    0.965
    23   8 O    2.413 --    22 C    1.117    24 C    1.080
    24   6 C    3.920 --    29 C    1.353    25 C    1.280    23 O    1.080
    25   6 C    3.985 --    26 C    1.335    24 C    1.280    21 C    1.162
    26   6 C    3.991 --    27 C    1.496    25 C    1.335    64 H    0.966
                            29 C    0.116
    27   6 C    3.990 --    26 C    1.496    28 C    1.385    65 H    0.971
    28   6 C    3.991 --    29 C    1.481    27 C    1.385    66 H    0.971
    29   6 C    3.987 --    28 C    1.481    24 C    1.353    67 H    0.967
                            26 C    0.116
    30   8 O    2.004 --    20 C    1.671    19 N    0.192
    31   6 C    3.968 --    35 N    0.989    19 N    0.979    68 H    0.946
                            32 C    0.905
    32   6 C    3.918 --    34 O    1.769    33 O    1.175    31 C    0.905
    33   8 O    2.240 --    32 C    1.175    69 H    0.853    34 O    0.184
    34   8 O    2.056 --    32 C    1.769    33 O    0.184
    35   7 N    3.468 --    36 C    1.209    31 C    0.989     9 C    0.953
                            46 O    0.195
    36   6 C    3.950 --    46 O    1.697    35 N    1.209    37 C    0.964
    37   6 C    3.978 --    38 C    1.631    41 C    1.163    36 C    0.964
    38   6 C    3.919 --    37 C    1.631    39 O    1.113    70 H    0.965
    39   8 O    2.416 --    38 C    1.113    40 C    1.085
    40   6 C    3.922 --    45 C    1.352    41 C    1.277    39 O    1.085
    41   6 C    3.985 --    42 C    1.336    40 C    1.277    37 C    1.163
    42   6 C    3.991 --    43 C    1.499    41 C    1.336    71 H    0.967
                            45 C    0.116
    43   6 C    3.991 --    42 C    1.499    44 C    1.383    72 H    0.971
    44   6 C    3.991 --    45 C    1.483    43 C    1.383    73 H    0.971
    45   6 C    3.987 --    44 C    1.483    40 C    1.352    74 H    0.967
                            42 C    0.116
    46   8 O    2.029 --    36 C    1.697    35 N    0.195
    47   1 H    0.996 --     3 C    0.980
    48   1 H    0.998 --     3 C    0.976
    49   1 H    0.999 --     3 C    0.976
    50   1 H    0.998 --     4 C    0.966
    51   1 H    0.998 --     5 C    0.971
    52   1 H    0.998 --     6 C    0.971
    53   1 H    0.997 --     7 C    0.962
    54   1 H    0.994 --     9 C    0.950
    55   1 H    0.994 --    10 C    0.942
    56   1 H    0.998 --    12 C    0.968
    57   1 H    0.998 --    13 C    0.970
    58   1 H    0.998 --    14 C    0.971
    59   1 H    0.998 --    15 C    0.965
    60   1 H    0.998 --    18 C    0.976
    61   1 H    0.998 --    18 C    0.976
    62   1 H    0.995 --    18 C    0.979
    63   1 H    0.995 --    22 C    0.965
    64   1 H    0.997 --    26 C    0.966
    65   1 H    0.998 --    27 C    0.971
    66   1 H    0.998 --    28 C    0.971
    67   1 H    0.997 --    29 C    0.967
    68   1 H    0.994 --    31 C    0.946
    69   1 H    0.880 --    33 O    0.853
    70   1 H    0.996 --    38 C    0.965
    71   1 H    0.998 --    42 C    0.967
    72   1 H    0.998 --    43 C    0.971
    73   1 H    0.998 --    44 C    0.971
    74   1 H    0.997 --    45 C    0.967
 ---------------------------------------------------------------------------

molecular dipole:
                 x           y           z       tot (Debye)
 q only:       -0.889      -1.035       1.211
   full:       -1.001      -1.130       1.058       4.686

           -------------------------------------------------
          | TOTAL ENERGY             -129.820244003815 Eh   |
          | GRADIENT NORM               0.000536524703 Eh/Î± |
          | HOMO-LUMO GAP               3.201701428418 eV   |
           -------------------------------------------------

 * finished run on 2022/03/16 at 23:53:48.415
