   * xtb version 6.3.3 (4ae9cef) compiled by 'conda@95abc7406d43' on 2020-10-14
          program call               : xtb acid_124.xyz --opt --chrg 0 --uhf 0 --gfn 2
          number of atoms            :                    66
          number of electrons        :                   206
          charge                     :                     0
          spin                       :                   0.0

   ID    Z sym.   atoms
    1    6 C      1-14, 16-18, 20-25, 27, 28, 32-34, 36-41
    2    7 N      15, 31
    3   16 S      19, 35
    4    8 O      26, 29, 30, 42
    5    1 H      43-66

          :  Hamiltonian                  GFN2-xTB          :
 * total energy  :  -113.6779488 Eh     change       -0.5867719E-08 Eh
 * total energy  :  -113.6935214 Eh     change       -0.1557263E-01 Eh
 * total energy  :  -113.6977913 Eh     change       -0.4269857E-02 Eh
 * total energy  :  -113.6991073 Eh     change       -0.1315967E-02 Eh
 * total energy  :  -113.7000161 Eh     change       -0.9088831E-03 Eh
 * total energy  :  -113.7004649 Eh     change       -0.4487725E-03 Eh
 * total energy  :  -113.7007972 Eh     change       -0.3322960E-03 Eh
 * total energy  :  -113.7010878 Eh     change       -0.2905656E-03 Eh
 * total energy  :  -113.7013879 Eh     change       -0.3000985E-03 Eh
 * total energy  :  -113.7016616 Eh     change       -0.2737370E-03 Eh
 * total energy  :  -113.7044897 Eh     change       -0.1951416E-04 Eh
 * total energy  :  -113.7044984 Eh     change       -0.8641063E-05 Eh
 * total energy  :  -113.7045083 Eh     change       -0.9968955E-05 Eh
 * total energy  :  -113.7045142 Eh     change       -0.5863037E-05 Eh
 * total energy  :  -113.7045260 Eh     change       -0.1179433E-04 Eh
 * total energy  :  -113.7045362 Eh     change       -0.1026605E-04 Eh
 * total energy  :  -113.7045443 Eh     change       -0.8044676E-05 Eh
 * total energy  :  -113.7045504 Eh     change       -0.6112180E-05 Eh
 * total energy  :  -113.7045553 Eh     change       -0.4864100E-05 Eh
   *** GEOMETRY OPTIMIZATION CONVERGED AFTER 51 ITERATIONS ***

 final structure:
================
66
 xtb: 6.3.3 (4ae9cef)
C        -1.30549668713455   -2.60410081968076   -2.45763025037529
C        -1.13106306056890   -3.59376135526276   -3.40984492382267
C        -0.07333577560261   -4.47995028848199   -3.30898858662630
C         0.79854873704162   -4.38420102205862   -2.23757475041593
C         0.62613601830631   -3.39496775680353   -1.28651912774329
C        -0.41558009604655   -2.48116263118882   -1.39874704323806
C        -0.59583523335291   -1.40419381348887   -0.35320320003695
C         0.71682345626971   -0.64432559972680   -0.01307108455222
C         0.88736686122186   -0.45924802692114    1.47331425951810
C         1.91145287751250   -1.10842746833855    2.14893692909998
C         2.07376361323482   -0.92893674311133    3.51120601952012
C         1.20827452044249   -0.10610920097167    4.21064977158600
C         0.17631977542278    0.53383479834468    3.54461605125906
C         0.01611301425114    0.35917979012921    2.18287671570156
N         0.54981589189683    0.62753730708033   -0.70201671460314
C         1.24079510919348    1.77865726572846   -0.48974647212118
C         2.46433743526056    1.62166649962706    0.33633193868361
C         2.66717146018784    2.30454055765510    1.48801912120072
S         4.13382964889009    1.88879569456698    2.29462671200512
C         4.54587530555281    0.77477324055637    1.02129003407573
C         3.55468883370534    0.74543396736263    0.02260796974627
C         3.74933185837760   -0.05866444362662   -1.10259822081671
C         4.88577565810585   -0.83206719978168   -1.18815115095144
C         5.84483644732759   -0.81401770108757   -0.17515187490584
C         5.68869358154832   -0.00586467154129    0.93176063928784
O         0.86738184497904    2.83811638368039   -0.95183358527467
C        -0.69883006261364    0.65990906674921   -1.42820703546211
C        -0.50052416325988    0.32845000845545   -2.91824943173744
O         0.74524933406525   -0.03128188582889   -3.20158620600240
O        -1.37878693680113    0.38744229870952   -3.73300902592654
N        -1.49776959517897   -0.35099119890570   -0.79071970415077
C        -2.68961557429166   -0.16186442095399   -0.13679422081316
C        -3.43847898828043    1.05940011955024   -0.49111056130075
C        -3.64971621328908    1.53085530115359   -1.74820855967732
S        -4.62787204617538    2.94863245862716   -1.80134947060501
C        -4.77122571290872    2.95079162906663   -0.06388965375212
C        -4.09183625560422    1.86028126012669    0.50775774446642
C        -4.10146811414154    1.70424745781405    1.89402871128137
C        -4.77665206174314    2.62122253021580    2.66790167204322
C        -5.44485940721754    3.69867524383513    2.08628757723960
C        -5.45078469592282    3.87264157610335    0.71797997261948
O        -3.09218292340021   -0.97303536644819    0.67170760205849
H        -2.14446092517005   -1.92972267289675   -2.53687215476929
H        -1.82873253673638   -3.67157266590949   -4.23011967314217
H         0.06361499135158   -5.25022389457588   -4.05308508247790
H         1.61392632293178   -5.08534055514927   -2.13826368575238
H         1.29890221920796   -3.34585103760474   -0.44264525122061
H        -1.03020971999790   -1.85669680346477    0.54781793710561
H         1.58147220727155   -1.17677756517940   -0.42143749862493
H         2.59446865083924   -1.74440982176910    1.60326891529946
H         2.88151939597692   -1.42822639766031    4.02485763248321
H         1.33829820393998    0.03795217653156    5.27249144052303
H        -0.50446540383361    1.17382711891665    4.08568588008766
H        -0.78368936523726    0.87189525235649    1.66799851145825
H         2.00929789743506    3.02044811063122    1.94049748734834
H         3.01760873797297   -0.05400116570484   -1.89695834598686
H         5.04229097250797   -1.45915552852888   -2.05318287397616
H         6.72589200945970   -1.43102608562043   -0.26540728059418
H         6.43439868978334    0.02845018973370    1.71028687198925
H        -1.15057143751796    1.65971429178358   -1.36930959756459
H         0.83893425983099   -0.22476141802356   -4.14917371653712
H        -3.29783652438640    1.11454337143286   -2.67326575991290
H        -3.59683074033358    0.85903677823482    2.33630260389981
H        -4.79252221864243    2.50683747187214    3.74150191813538
H        -5.96580597436484    4.40478102401852    2.71517460632783
H        -5.96616539154797    4.70236798564745    0.26013852941660

          :  Hamiltonian                  GFN2-xTB          :
         :: total energy            -113.704555272514 Eh    ::
         :: gradient norm              0.000363893905 Eh/a0 ::
         :: HOMO-LUMO gap              3.061152449675 eV    ::
         :: SCC energy              -115.445068779186 Eh    ::
         :: -> dispersion             -0.106715584096 Eh    ::
         :: repulsion energy           1.736842888871 Eh    ::

    * Orbital Energies and Occupations

         #    Occupation            Energy/Eh            Energy/eV
      -------------------------------------------------------------
         1        2.0000           -0.7756768             -21.1072
       ...           ...                  ...                  ...
        91        2.0000           -0.4288780             -11.6704
        92        2.0000           -0.4235214             -11.5246
        93        2.0000           -0.4208622             -11.4522
        94        2.0000           -0.4184216             -11.3858
        95        2.0000           -0.4151454             -11.2967
        96        2.0000           -0.4122737             -11.2185
        97        2.0000           -0.4094276             -11.1411
        98        2.0000           -0.4087619             -11.1230
        99        2.0000           -0.4046912             -11.0122
       100        2.0000           -0.4020963             -10.9416
       101        2.0000           -0.4003384             -10.8938
       102        2.0000           -0.3881763             -10.5628
       103        2.0000           -0.3827791             -10.4159 (HOMO)
       104                         -0.2702838              -7.3548 (LUMO)
       105                         -0.2681408              -7.2965
       106                         -0.2660253              -7.2389
       107                         -0.2441201              -6.6428
       108                         -0.2416542              -6.5757
       109                         -0.2393816              -6.5139
       110                         -0.2374553              -6.4615
       111                         -0.2359660              -6.4210
       112                         -0.2341671              -6.3720
       113                         -0.2321578              -6.3173
       114                         -0.2313184              -6.2945
       ...                                ...                  ...
       202                          0.6997767              19.0419
      -------------------------------------------------------------
                  HL-Gap            0.1124953 Eh            3.0612 eV

     #   Z          covCN         q      C6AA      Î±(0)
     1   6 C        2.924    -0.033    28.814     8.803
     2   6 C        2.920    -0.027    28.675     8.781
     3   6 C        2.920    -0.031    28.764     8.795
     4   6 C        2.920    -0.028    28.699     8.785
     5   6 C        2.924    -0.037    28.927     8.820
     6   6 C        2.970     0.001    27.993     8.679
     7   6 C        3.847     0.039    19.892     6.344
     8   6 C        3.819     0.033    20.009     6.366
     9   6 C        2.973    -0.002    28.084     8.693
    10   6 C        2.924    -0.034    28.847     8.808
    11   6 C        2.920    -0.025    28.638     8.776
    12   6 C        2.921    -0.027    28.681     8.782
    13   6 C        2.919    -0.025    28.638     8.776
    14   6 C        2.924    -0.029    28.719     8.788
    15   7 N        2.767    -0.116    23.522     7.203
    16   6 C        2.762     0.275    22.347     7.742
    17   6 C        3.128    -0.035    28.658     8.765
    18   6 C        2.938    -0.005    28.148     8.701
    19  16 S        2.249    -0.031   142.327    20.079
    20   6 C        3.008     0.033    27.256     8.564
    21   6 C        3.143     0.001    27.758     8.621
    22   6 C        2.915    -0.037    28.913     8.817
    23   6 C        2.919    -0.034    28.839     8.806
    24   6 C        2.923    -0.031    28.779     8.797
    25   6 C        2.933    -0.036    28.906     8.817
    26   8 O        0.859    -0.434    22.379     6.343
    27   6 C        3.787     0.094    19.043     6.215
    28   6 C        2.689     0.358    20.926     7.486
    29   8 O        1.659    -0.354    19.976     6.034
    30   8 O        0.856    -0.390    21.482     6.214
    31   7 N        2.764    -0.125    23.713     7.232
    32   6 C        2.760     0.276    22.337     7.740
    33   6 C        3.124    -0.042    28.837     8.794
    34   6 C        2.933    -0.019    28.493     8.754
    35  16 S        2.248    -0.021   141.910    20.050
    36   6 C        3.007     0.031    27.301     8.571
    37   6 C        3.142     0.008    27.601     8.597
    38   6 C        2.915    -0.029    28.735     8.790
    39   6 C        2.919    -0.032    28.796     8.800
    40   6 C        2.924    -0.030    28.747     8.793
    41   6 C        2.932    -0.037    28.912     8.818
    42   8 O        0.859    -0.419    22.061     6.297
    43   1 H        0.926     0.040     2.448     2.447
    44   1 H        0.926     0.041     2.440     2.443
    45   1 H        0.926     0.037     2.485     2.465
    46   1 H        0.926     0.037     2.492     2.469
    47   1 H        0.926     0.030     2.582     2.513
    48   1 H        0.924     0.087     1.909     2.161
    49   1 H        0.924     0.059     2.209     2.324
    50   1 H        0.926     0.027     2.627     2.535
    51   1 H        0.926     0.039     2.457     2.451
    52   1 H        0.926     0.041     2.441     2.443
    53   1 H        0.926     0.040     2.447     2.446
    54   1 H        0.926     0.029     2.601     2.522
    55   1 H        0.926     0.055     2.263     2.352
    56   1 H        0.926     0.043     2.405     2.425
    57   1 H        0.926     0.037     2.488     2.467
    58   1 H        0.926     0.041     2.439     2.442
    59   1 H        0.926     0.045     2.381     2.413
    60   1 H        0.923     0.092     1.859     2.132
    61   1 H        0.804     0.343     0.605     1.221
    62   1 H        0.926     0.071     2.076     2.253
    63   1 H        0.926     0.053     2.283     2.363
    64   1 H        0.926     0.038     2.476     2.461
    65   1 H        0.926     0.039     2.457     2.451
    66   1 H        0.926     0.043     2.404     2.425

Wiberg/Mayer (AO) data.
largest (>0.10) Wiberg bond orders for each atom

     #   Z sym  total        # sym  WBO       # sym  WBO       # sym  WBO
 ---------------------------------------------------------------------------
     1   6 C    3.991 --     2 C    1.439     6 C    1.416    43 H    0.967
                             4 C    0.110
     2   6 C    3.992 --     3 C    1.443     1 C    1.439    44 H    0.970
                             5 C    0.112
     3   6 C    3.992 --     2 C    1.443     4 C    1.435    45 H    0.971
                             6 C    0.109
     4   6 C    3.991 --     5 C    1.448     3 C    1.435    46 H    0.971
                             1 C    0.110
     5   6 C    3.991 --     4 C    1.448     6 C    1.407    47 H    0.966
                             2 C    0.112
     6   6 C    3.985 --     1 C    1.416     5 C    1.407     7 C    0.988
                             3 C    0.109
     7   6 C    3.962 --     6 C    0.988    31 N    0.970     8 C    0.949
                            48 H    0.938
     8   6 C    3.965 --     9 C    0.991    15 N    0.962     7 C    0.949
                            49 H    0.946
     9   6 C    3.986 --    10 C    1.414    14 C    1.408     8 C    0.991
                            12 C    0.109
    10   6 C    3.991 --    11 C    1.442     9 C    1.414    50 H    0.968
                            13 C    0.110
    11   6 C    3.992 --    10 C    1.442    12 C    1.441    51 H    0.970
                            14 C    0.112
    12   6 C    3.990 --    11 C    1.441    13 C    1.435    52 H    0.971
                             9 C    0.109
    13   6 C    3.992 --    14 C    1.449    12 C    1.435    53 H    0.971
                            10 C    0.110
    14   6 C    3.992 --    13 C    1.449     9 C    1.408    54 H    0.968
                            11 C    0.112
    15   7 N    3.466 --    16 C    1.207    27 C    0.980     8 C    0.962
                            26 O    0.188
    16   6 C    3.949 --    26 O    1.678    15 N    1.207    17 C    0.972
    17   6 C    3.982 --    18 C    1.635    21 C    1.155    16 C    0.972
    18   6 C    3.958 --    17 C    1.635    19 S    1.167    55 H    0.969
    19  16 S    2.567 --    18 C    1.167    20 C    1.104
    20   6 C    3.957 --    25 C    1.378    21 C    1.293    19 S    1.104
    21   6 C    3.987 --    22 C    1.333    20 C    1.293    17 C    1.155
    22   6 C    3.991 --    23 C    1.494    21 C    1.333    56 H    0.964
                            25 C    0.111
    23   6 C    3.991 --    22 C    1.494    24 C    1.383    57 H    0.971
    24   6 C    3.991 --    25 C    1.476    23 C    1.383    58 H    0.970
    25   6 C    3.990 --    24 C    1.476    20 C    1.378    59 H    0.968
                            22 C    0.111
    26   8 O    2.008 --    16 C    1.678    15 N    0.188
    27   6 C    3.967 --    31 N    0.988    15 N    0.980    60 H    0.929
                            28 C    0.916
    28   6 C    3.917 --    30 O    1.771    29 O    1.163    27 C    0.916
    29   8 O    2.229 --    28 C    1.163    61 H    0.856    30 O    0.181
    30   8 O    2.059 --    28 C    1.771    29 O    0.181
    31   7 N    3.442 --    32 C    1.165    27 C    0.988     7 C    0.970
                            42 O    0.176
    32   6 C    3.945 --    42 O    1.686    31 N    1.165    33 C    1.000
    33   6 C    3.981 --    34 C    1.605    37 C    1.151    32 C    1.000
    34   6 C    3.959 --    33 C    1.605    35 S    1.185    62 H    0.961
    35  16 S    2.586 --    34 C    1.185    36 C    1.100
    36   6 C    3.956 --    41 C    1.378    37 C    1.296    35 S    1.100
    37   6 C    3.987 --    38 C    1.337    36 C    1.296    33 C    1.151
    38   6 C    3.990 --    39 C    1.494    37 C    1.337    63 H    0.965
                            41 C    0.112
    39   6 C    3.991 --    38 C    1.494    40 C    1.385    64 H    0.971
    40   6 C    3.991 --    41 C    1.476    39 C    1.385    65 H    0.970
    41   6 C    3.990 --    40 C    1.476    36 C    1.378    66 H    0.968
                            38 C    0.112
    42   8 O    2.028 --    32 C    1.686    31 N    0.176
    43   1 H    0.998 --     1 C    0.967
    44   1 H    0.998 --     2 C    0.970
    45   1 H    0.998 --     3 C    0.971
    46   1 H    0.998 --     4 C    0.971
    47   1 H    0.999 --     5 C    0.966
    48   1 H    0.992 --     7 C    0.938
    49   1 H    0.996 --     8 C    0.946
    50   1 H    0.999 --    10 C    0.968
    51   1 H    0.998 --    11 C    0.970
    52   1 H    0.998 --    12 C    0.971
    53   1 H    0.998 --    13 C    0.971
    54   1 H    0.999 --    14 C    0.968
    55   1 H    0.996 --    18 C    0.969
    56   1 H    0.998 --    22 C    0.964
    57   1 H    0.998 --    23 C    0.971
    58   1 H    0.998 --    24 C    0.970
    59   1 H    0.997 --    25 C    0.968
    60   1 H    0.991 --    27 C    0.929
    61   1 H    0.881 --    29 O    0.856
    62   1 H    0.994 --    34 C    0.961
    63   1 H    0.997 --    38 C    0.965
    64   1 H    0.998 --    39 C    0.971
    65   1 H    0.998 --    40 C    0.970
    66   1 H    0.998 --    41 C    0.968
 ---------------------------------------------------------------------------

molecular dipole:
                 x           y           z       tot (Debye)
 q only:        1.434      -1.034       0.259
   full:        1.477      -1.143       0.072       4.750

           -------------------------------------------------
          | TOTAL ENERGY             -113.704555272514 Eh   |
          | GRADIENT NORM               0.000363893905 Eh/Î± |
          | HOMO-LUMO GAP               3.061152449675 eV   |
           -------------------------------------------------

 * finished run on 2022/03/16 at 21:35:35.686
