   * xtb version 6.3.3 (4ae9cef) compiled by 'conda@95abc7406d43' on 2020-10-14
          program call               : xtb acid_156.xyz --opt --chrg 0 --uhf 0 --gfn 2
          number of atoms            :                    90
          number of electrons        :                   250
          charge                     :                     0
          spin                       :                   0.0

   ID    Z sym.   atoms
    1    6 C      1-22, 24-33, 35, 36, 40-49
    2    7 N      23, 39
    3    8 O      34, 37, 38, 50
    4    1 H      51-90

          :  Hamiltonian                  GFN2-xTB          :
 * total energy  :  -136.7737631 Eh     change       -0.3834515E-08 Eh
 * total energy  :  -136.7924466 Eh     change       -0.1868351E-01 Eh
 * total energy  :  -136.7984384 Eh     change       -0.5991800E-02 Eh
 * total energy  :  -136.8000611 Eh     change       -0.1622737E-02 Eh
 * total energy  :  -136.8010515 Eh     change       -0.9903738E-03 Eh
 * total energy  :  -136.8015530 Eh     change       -0.5014877E-03 Eh
 * total energy  :  -136.8019242 Eh     change       -0.3712353E-03 Eh
 * total energy  :  -136.8022352 Eh     change       -0.3109619E-03 Eh
 * total energy  :  -136.8025347 Eh     change       -0.2995309E-03 Eh
 * total energy  :  -136.8028254 Eh     change       -0.2907065E-03 Eh
 * total energy  :  -136.8114749 Eh     change       -0.2037974E-04 Eh
 * total energy  :  -136.8114882 Eh     change       -0.1328313E-04 Eh
 * total energy  :  -136.8114966 Eh     change       -0.8424011E-05 Eh
 * total energy  :  -136.8115037 Eh     change       -0.7077714E-05 Eh
 * total energy  :  -136.8115114 Eh     change       -0.7703927E-05 Eh
 * total energy  :  -136.8115189 Eh     change       -0.7456407E-05 Eh
 * total energy  :  -136.8115261 Eh     change       -0.7234288E-05 Eh
 * total energy  :  -136.8115334 Eh     change       -0.7312494E-05 Eh
 * total energy  :  -136.8115364 Eh     change       -0.2941568E-05 Eh
   *** GEOMETRY OPTIMIZATION CONVERGED AFTER 68 ITERATIONS ***

 final structure:
================
90
 xtb: 6.3.3 (4ae9cef)
C        -0.65350814180642    3.56637518479759    3.87970779629108
C        -0.34515049889995    4.70579424304847    3.19390458201742
C        -0.20532359510872    4.66245570070585    1.79965082496827
C        -0.38440876273063    3.49202726926747    1.11691317090031
C        -0.70750796161011    2.29302912463768    1.79062223797797
C        -0.83254689941222    2.33891044013725    3.20735789358768
C        -1.11621305984357    1.15839849186631    3.92418237341260
C        -1.24428250936639   -0.03418924442433    3.27292392578597
C        -1.11497338134788   -0.08833959769531    1.88012806351981
C        -0.88421769635933    1.04298681060154    1.13939779128161
C        -0.73461119348222    0.91884807654705   -0.35810375532105
C         0.70622428579546    0.49444367830785   -0.71985811651906
C         1.43833432024814    1.51030828534055   -1.56194641358738
C         1.19438471355936    1.55898582112111   -2.91178061294654
C         1.87035175387423    2.45870580303695   -3.74485590811384
C         2.79657540539949    3.31087962800685   -3.21662403018196
C         3.06699432723629    3.30896050757265   -1.83288121594099
C         2.37521523586666    2.40581723661114   -0.97863209701619
C         2.65778993279041    2.45866940847849    0.40418590464367
C         3.57571291088490    3.33710963454098    0.90704792789769
C         4.26564848441480    4.21458603472349    0.05922921961678
C         4.01240212517378    4.19955419467531   -1.28202059144578
N         0.53847231811022   -0.77541184583062   -1.40158760111032
C         1.48633895745722   -1.73928726099077   -1.46542628087242
C         2.83407899637314   -1.26532840393216   -1.02206279508492
C         3.22663969280661   -1.40413817300832    0.30983160919971
C         2.33080153678160   -2.12678548101301    1.28934625693887
C         2.28961338158477   -1.46225928690309    2.66577468694032
C         2.79598394188392   -3.58217911214062    1.39921671338113
C         4.46505783031415   -0.89718893522479    0.68268784218921
C         5.28167817928164   -0.26033856026872   -0.23434430776280
C         4.88491627744926   -0.13747056993167   -1.55411366669911
C         3.65996943077290   -0.64330213904512   -1.94781485445757
O         1.22624955748474   -2.85553577594570   -1.87196685004503
C        -0.83776407311385   -1.07055821719926   -1.72533648913501
C        -1.16629563937149   -2.54490947310733   -1.40925357245582
O        -0.94078983141239   -2.82712476494049   -0.12357342488286
O        -1.65329821122163   -3.30861575670796   -2.18930308993535
N        -1.57892125168869   -0.12675287423161   -0.92483055186115
C        -2.93292076563386   -0.00725938192373   -0.85192450446574
C        -3.70121374576399   -1.03582875582957   -1.61741130471964
C        -3.81815841332172   -0.86823742004278   -2.99138862017436
C        -4.56167876584538   -1.75870052263120   -3.74176019797532
C        -5.19663545826205   -2.81374320701267   -3.11193706701628
C        -5.09197416607931   -2.97238942135783   -1.74235352682899
C        -4.34391222493495   -2.09209617083356   -0.97185292929511
C        -4.23504483227970   -2.23310785186539    0.52753709012537
C        -5.36502632734643   -1.43871098425626    1.18950715986637
C        -4.25095846384624   -3.69033311409095    0.99129337726907
O        -3.45206010325361    0.89722326662819   -0.23091608975380
H        -0.76109095412224    3.58332786003667    4.95504906597970
H        -0.20664102351359    5.64120387744945    3.71567352131917
H         0.04723251898127    5.56500050269259    1.26279782225900
H        -0.26072365663575    3.49468621549706    0.04531514150257
H        -1.21831362329771    1.21584985281995    4.99833690705360
H        -1.44624441040736   -0.94265420383637    3.82097662989623
H        -1.20017363526592   -1.04297762981012    1.38369292345789
H        -1.00596527036876    1.86369124622902   -0.84175506707070
H         1.26892515089195    0.30905888163591    0.19844526553952
H         0.47869707627715    0.87986503092709   -3.35091405169434
H         1.65608451712918    2.46367485564918   -4.80308554596103
H         3.33301497451359    4.00336279405487   -3.84892838760181
H         2.13456337597172    1.81242689174058    1.09072300685020
H         3.77007451787766    3.36098141228040    1.96895462778956
H         4.98897347531765    4.90042988562908    0.47443299962661
H         4.52951510651389    4.87592554185868   -1.94757746684315
H         1.31174823794338   -2.13414324060942    0.88833392633357
H         1.51191892612504   -1.92097303536242    3.27182673271722
H         2.06805194327478   -0.39969163767722    2.58174571108875
H         3.23517027318385   -1.57869527023974    3.18892468556493
H         2.16802070560023   -4.12759230866435    2.10016890300829
H         3.82622083787285   -3.62748448996152    1.74589310453067
H         2.73577065399653   -4.06539892844014    0.42686496906836
H         4.79702331285405   -0.99469866822917    1.70463761594741
H         6.23432413962150    0.13746963580866    0.08250496844988
H         5.52233850995895    0.35374996071870   -2.27322161611566
H         3.33721508456643   -0.55599700221817   -2.97459767079159
H        -1.03360523476579   -0.93945000627557   -2.80547954946154
H        -1.12020486860628   -3.76542833841494    0.04759095752915
H        -3.33215995125325   -0.02818013817468   -3.46857775302083
H        -4.64431167667255   -1.62940842646172   -4.81027261649708
H        -5.77853319799289   -3.51643813165729   -3.68968875029334
H        -5.60098625386707   -3.79773102532973   -1.26987798673787
H        -3.28833915473557   -1.78171228327490    0.84268586240930
H        -5.27259656158115   -0.38525109141291    0.93764005421686
H        -5.31442457554271   -1.54348826702416    2.27118656646329
H        -6.33324016261969   -1.79802018763700    0.84698106463982
H        -3.91856608314247   -3.75367508249353    2.02544597044442
H        -3.59420899838180   -4.30050251612258    0.37396053049578
H        -5.25459566794120   -4.10506107397750    0.93860094569189

          :  Hamiltonian                  GFN2-xTB          :
         :: total energy            -136.811536371266 Eh    ::
         :: gradient norm              0.000208039089 Eh/a0 ::
         :: HOMO-LUMO gap              2.847449527958 eV    ::
         :: SCC energy              -139.041540816030 Eh    ::
         :: -> dispersion             -0.138751242714 Eh    ::
         :: repulsion energy           2.222313153425 Eh    ::

    * Orbital Energies and Occupations

         #    Occupation            Energy/Eh            Energy/eV
      -------------------------------------------------------------
         1        2.0000           -0.7573427             -20.6083
       ...           ...                  ...                  ...
       113        2.0000           -0.4166380             -11.3373
       114        2.0000           -0.4150219             -11.2933
       115        2.0000           -0.4138658             -11.2619
       116        2.0000           -0.4076567             -11.0929
       117        2.0000           -0.4063373             -11.0570
       118        2.0000           -0.4040741             -10.9954
       119        2.0000           -0.4020098             -10.9392
       120        2.0000           -0.4003084             -10.8929
       121        2.0000           -0.3972065             -10.8085
       122        2.0000           -0.3941521             -10.7254
       123        2.0000           -0.3901599             -10.6168
       124        2.0000           -0.3888207             -10.5803
       125        2.0000           -0.3794151             -10.3244 (HOMO)
       126                         -0.2747732              -7.4770 (LUMO)
       127                         -0.2642982              -7.1919
       128                         -0.2482421              -6.7550
       129                         -0.2419234              -6.5831
       130                         -0.2362956              -6.4299
       131                         -0.2329790              -6.3397
       132                         -0.2320748              -6.3151
       133                         -0.2285853              -6.2201
       134                         -0.2234653              -6.0808
       135                         -0.2201694              -5.9911
       136                         -0.2080170              -5.6604
       ...                                ...                  ...
       240                          0.6912893              18.8109
      -------------------------------------------------------------
                  HL-Gap            0.1046418 Eh            2.8474 eV

     #   Z          covCN         q      C6AA      Î±(0)
     1   6 C        2.921    -0.034    28.844     8.807
     2   6 C        2.915    -0.029    28.723     8.788
     3   6 C        2.917    -0.028    28.703     8.785
     4   6 C        2.917    -0.033    28.811     8.802
     5   6 C        2.984     0.011    27.766     8.644
     6   6 C        2.988     0.016    27.652     8.626
     7   6 C        2.920    -0.036    28.893     8.815
     8   6 C        2.914    -0.028    28.706     8.786
     9   6 C        2.922    -0.033    28.827     8.805
    10   6 C        2.969     0.004    27.934     8.669
    11   6 C        3.823     0.052    19.690     6.315
    12   6 C        3.818     0.038    19.925     6.353
    13   6 C        2.967    -0.009    28.246     8.718
    14   6 C        2.922    -0.034    28.836     8.806
    15   6 C        2.914    -0.030    28.745     8.792
    16   6 C        2.921    -0.035    28.871     8.811
    17   6 C        2.988     0.016    27.656     8.626
    18   6 C        2.984     0.007    27.847     8.656
    19   6 C        2.917    -0.034    28.836     8.806
    20   6 C        2.917    -0.027    28.676     8.781
    21   6 C        2.915    -0.028    28.700     8.785
    22   6 C        2.921    -0.033    28.834     8.806
    23   7 N        2.771    -0.112    23.432     7.189
    24   6 C        2.767     0.276    22.332     7.739
    25   6 C        2.986    -0.023    28.580     8.769
    26   6 C        2.974     0.012    27.750     8.641
    27   6 C        3.854    -0.013    20.770     6.482
    28   6 C        3.754    -0.100    22.470     6.759
    29   6 C        3.758    -0.103    22.510     6.764
    30   6 C        2.925    -0.034    28.858     8.810
    31   6 C        2.919    -0.029    28.737     8.791
    32   6 C        2.920    -0.030    28.752     8.793
    33   6 C        2.923    -0.026    28.642     8.776
    34   8 O        0.859    -0.426    22.213     6.319
    35   6 C        3.753     0.102    18.959     6.209
    36   6 C        2.687     0.368    20.757     7.456
    37   8 O        1.659    -0.368    20.230     6.072
    38   8 O        0.856    -0.380    21.285     6.186
    39   7 N        2.763    -0.123    23.667     7.225
    40   6 C        2.765     0.274    22.373     7.746
    41   6 C        2.982    -0.031    28.766     8.798
    42   6 C        2.925    -0.027    28.674     8.782
    43   6 C        2.919    -0.027    28.670     8.781
    44   6 C        2.920    -0.025    28.627     8.774
    45   6 C        2.925    -0.031    28.776     8.797
    46   6 C        2.974     0.015    27.682     8.630
    47   6 C        3.855    -0.011    20.730     6.476
    48   6 C        3.757    -0.104    22.537     6.768
    49   6 C        3.754    -0.103    22.522     6.767
    50   8 O        0.859    -0.425    22.182     6.315
    51   1 H        0.926     0.035     2.521     2.483
    52   1 H        0.926     0.033     2.546     2.495
    53   1 H        0.926     0.031     2.571     2.507
    54   1 H        0.926     0.026     2.648     2.545
    55   1 H        0.926     0.035     2.514     2.479
    56   1 H        0.926     0.033     2.543     2.494
    57   1 H        0.926     0.043     2.406     2.426
    58   1 H        0.924     0.058     2.228     2.334
    59   1 H        0.924     0.056     2.243     2.342
    60   1 H        0.926     0.033     2.546     2.495
    61   1 H        0.926     0.039     2.466     2.456
    62   1 H        0.926     0.039     2.460     2.453
    63   1 H        0.926     0.025     2.662     2.551
    64   1 H        0.926     0.035     2.521     2.483
    65   1 H        0.926     0.037     2.494     2.470
    66   1 H        0.926     0.038     2.478     2.462
    67   1 H        0.924     0.036     2.508     2.477
    68   1 H        0.925     0.039     2.457     2.451
    69   1 H        0.925     0.025     2.651     2.546
    70   1 H        0.925     0.040     2.445     2.445
    71   1 H        0.925     0.039     2.457     2.451
    72   1 H        0.925     0.038     2.478     2.462
    73   1 H        0.925     0.047     2.363     2.404
    74   1 H        0.926     0.042     2.422     2.433
    75   1 H        0.926     0.036     2.500     2.473
    76   1 H        0.926     0.037     2.495     2.470
    77   1 H        0.926     0.034     2.528     2.487
    78   1 H        0.922     0.055     2.253     2.348
    79   1 H        0.804     0.343     0.605     1.221
    80   1 H        0.925     0.025     2.660     2.550
    81   1 H        0.926     0.038     2.480     2.463
    82   1 H        0.926     0.038     2.480     2.463
    83   1 H        0.926     0.043     2.409     2.427
    84   1 H        0.924     0.029     2.600     2.521
    85   1 H        0.925     0.055     2.256     2.349
    86   1 H        0.925     0.037     2.489     2.467
    87   1 H        0.925     0.035     2.513     2.479
    88   1 H        0.925     0.034     2.528     2.487
    89   1 H        0.925     0.030     2.581     2.512
    90   1 H        0.925     0.041     2.439     2.442

Wiberg/Mayer (AO) data.
largest (>0.10) Wiberg bond orders for each atom

     #   Z sym  total        # sym  WBO       # sym  WBO       # sym  WBO
 ---------------------------------------------------------------------------
     1   6 C    3.991 --     2 C    1.557     6 C    1.279    51 H    0.968
                             4 C    0.118
     2   6 C    3.992 --     1 C    1.557     3 C    1.322    52 H    0.971
     3   6 C    3.992 --     4 C    1.555     2 C    1.322    53 H    0.971
     4   6 C    3.992 --     3 C    1.555     5 C    1.283    54 H    0.962
                             1 C    0.118
     5   6 C    3.988 --     4 C    1.283    10 C    1.253     6 C    1.252
     6   6 C    3.990 --     7 C    1.280     1 C    1.279     5 C    1.252
     7   6 C    3.990 --     8 C    1.552     6 C    1.280    55 H    0.968
                            10 C    0.115
     8   6 C    3.992 --     7 C    1.552     9 C    1.327    56 H    0.970
     9   6 C    3.990 --    10 C    1.523     8 C    1.327    57 H    0.960
    10   6 C    3.984 --     9 C    1.523     5 C    1.253    11 C    0.988
                             7 C    0.115
    11   6 C    3.964 --    10 C    0.988    39 N    0.958    58 H    0.949
                            12 C    0.948
    12   6 C    3.963 --    13 C    0.988    23 N    0.963    11 C    0.948
                            59 H    0.944
    13   6 C    3.984 --    14 C    1.523    18 C    1.252    12 C    0.988
                            16 C    0.115
    14   6 C    3.990 --    13 C    1.523    15 C    1.327    60 H    0.967
    15   6 C    3.992 --    16 C    1.552    14 C    1.327    61 H    0.970
    16   6 C    3.989 --    15 C    1.552    17 C    1.280    62 H    0.968
                            13 C    0.115
    17   6 C    3.990 --    16 C    1.280    22 C    1.279    18 C    1.253
    18   6 C    3.988 --    19 C    1.283    17 C    1.253    13 C    1.252
    19   6 C    3.992 --    20 C    1.555    18 C    1.283    63 H    0.960
                            22 C    0.119
    20   6 C    3.992 --    19 C    1.555    21 C    1.322    64 H    0.971
    21   6 C    3.992 --    22 C    1.558    20 C    1.322    65 H    0.970
    22   6 C    3.991 --    21 C    1.558    17 C    1.279    66 H    0.968
                            19 C    0.119
    23   7 N    3.471 --    24 C    1.222    35 C    0.979    12 C    0.963
                            34 O    0.187
    24   6 C    3.939 --    34 O    1.668    23 N    1.222    25 C    0.955
    25   6 C    3.986 --    33 C    1.411    26 C    1.379    24 C    0.955
                            31 C    0.108
    26   6 C    3.986 --    30 C    1.412    25 C    1.379    27 C    0.998
                            32 C    0.108
    27   6 C    3.995 --    28 C    1.003    26 C    0.998    29 C    0.990
                            67 H    0.959
    28   6 C    3.996 --    27 C    1.003    68 H    0.986    69 H    0.985
                            70 H    0.984
    29   6 C    3.995 --    27 C    0.990    72 H    0.987    73 H    0.986
                            71 H    0.985
    30   6 C    3.990 --    31 C    1.445    26 C    1.412    74 H    0.965
                            33 C    0.110
    31   6 C    3.992 --    30 C    1.445    32 C    1.436    75 H    0.971
                            25 C    0.108
    32   6 C    3.991 --    33 C    1.439    31 C    1.436    76 H    0.970
                            26 C    0.108
    33   6 C    3.991 --    32 C    1.439    25 C    1.411    77 H    0.970
                            30 C    0.110
    34   8 O    2.043 --    24 C    1.668    23 N    0.187
    35   6 C    3.967 --    39 N    0.984    23 N    0.979    78 H    0.940
                            36 C    0.911
    36   6 C    3.925 --    38 O    1.784    37 O    1.134    35 C    0.911
    37   8 O    2.204 --    36 C    1.134    79 H    0.855    38 O    0.172
    38   8 O    2.071 --    36 C    1.784    37 O    0.172
    39   7 N    3.452 --    40 C    1.200    35 C    0.984    11 C    0.958
                            50 O    0.188
    40   6 C    3.941 --    50 O    1.692    39 N    1.200    41 C    0.959
    41   6 C    3.985 --    42 C    1.407    46 C    1.380    40 C    0.959
                            44 C    0.108
    42   6 C    3.991 --    43 C    1.441    41 C    1.407    80 H    0.969
                            45 C    0.109
    43   6 C    3.991 --    42 C    1.441    44 C    1.434    81 H    0.970
                            46 C    0.108
    44   6 C    3.992 --    45 C    1.445    43 C    1.434    82 H    0.971
                            41 C    0.108
    45   6 C    3.991 --    44 C    1.445    46 C    1.413    83 H    0.966
                            42 C    0.109
    46   6 C    3.986 --    45 C    1.413    41 C    1.380    47 C    0.999
                            43 C    0.108
    47   6 C    3.995 --    49 C    1.004    46 C    0.999    48 C    0.990
                            84 H    0.958
    48   6 C    3.994 --    47 C    0.990    87 H    0.987    86 H    0.985
                            85 H    0.983
    49   6 C    3.997 --    47 C    1.004    88 H    0.987    89 H    0.986
                            90 H    0.984
    50   8 O    2.019 --    40 C    1.692    39 N    0.188
    51   1 H    0.998 --     1 C    0.968
    52   1 H    0.998 --     2 C    0.971
    53   1 H    0.999 --     3 C    0.971
    54   1 H    0.999 --     4 C    0.962
    55   1 H    0.998 --     7 C    0.968
    56   1 H    0.998 --     8 C    0.970
    57   1 H    0.998 --     9 C    0.960
    58   1 H    0.996 --    11 C    0.949
    59   1 H    0.996 --    12 C    0.944
    60   1 H    0.998 --    14 C    0.967
    61   1 H    0.997 --    15 C    0.970
    62   1 H    0.997 --    16 C    0.968
    63   1 H    0.999 --    19 C    0.960
    64   1 H    0.998 --    20 C    0.971
    65   1 H    0.998 --    21 C    0.970
    66   1 H    0.998 --    22 C    0.968
    67   1 H    0.998 --    27 C    0.959
    68   1 H    0.998 --    28 C    0.986
    69   1 H    0.999 --    28 C    0.985
    70   1 H    0.998 --    28 C    0.984
    71   1 H    0.997 --    29 C    0.985
    72   1 H    0.998 --    29 C    0.987
    73   1 H    0.998 --    29 C    0.986
    74   1 H    0.997 --    30 C    0.965
    75   1 H    0.998 --    31 C    0.971
    76   1 H    0.997 --    32 C    0.970
    77   1 H    0.998 --    33 C    0.970
    78   1 H    0.996 --    35 C    0.940
    79   1 H    0.882 --    37 O    0.855
    80   1 H    0.999 --    42 C    0.969
    81   1 H    0.997 --    43 C    0.970
    82   1 H    0.998 --    44 C    0.971
    83   1 H    0.998 --    45 C    0.966
    84   1 H    0.999 --    47 C    0.958
    85   1 H    0.997 --    48 C    0.983
    86   1 H    0.998 --    48 C    0.985
    87   1 H    0.999 --    48 C    0.987
    88   1 H    0.998 --    49 C    0.987
    89   1 H    0.999 --    49 C    0.986
    90   1 H    0.998 --    49 C    0.984
 ---------------------------------------------------------------------------

molecular dipole:
                 x           y           z       tot (Debye)
 q only:        1.357       0.895       1.149
   full:        1.450       0.836       0.979       4.929

           -------------------------------------------------
          | TOTAL ENERGY             -136.811536371266 Eh   |
          | GRADIENT NORM               0.000208039089 Eh/Î± |
          | HOMO-LUMO GAP               2.847449527958 eV   |
           -------------------------------------------------

 * finished run on 2022/03/16 at 21:55:34.335
