   * xtb version 6.3.3 (4ae9cef) compiled by 'conda@95abc7406d43' on 2020-10-14
          program call               : xtb acid_376.xyz --opt --chrg 0 --uhf 0 --gfn 2
          number of atoms            :                    78
          number of electrons        :                   322
          charge                     :                     0
          spin                       :                   0.0

   ID    Z sym.   atoms
    1    6 C      1, 2, 6-15, 19-22, 24-28, 32-34, 38, 40, 41, 45-49, 53-55,
                  59
    2    9 F      3-5, 16-18, 29-31, 35-37, 50-52, 56-58
    3    7 N      23, 44
    4    8 O      39, 42, 43, 60
    5    1 H      61-78

          :  Hamiltonian                  GFN2-xTB          :
 * total energy  :  -193.6525831 Eh     change       -0.1392863E-08 Eh
 * total energy  :  -193.6722063 Eh     change       -0.1962313E-01 Eh
 * total energy  :  -193.6777164 Eh     change       -0.5510122E-02 Eh
 * total energy  :  -193.6788944 Eh     change       -0.1178046E-02 Eh
 * total energy  :  -193.6797025 Eh     change       -0.8080534E-03 Eh
 * total energy  :  -193.6801839 Eh     change       -0.4814078E-03 Eh
 * total energy  :  -193.6806194 Eh     change       -0.4354564E-03 Eh
 * total energy  :  -193.6810953 Eh     change       -0.4759377E-03 Eh
 * total energy  :  -193.6814918 Eh     change       -0.3965354E-03 Eh
 * total energy  :  -193.6818310 Eh     change       -0.3391377E-03 Eh
 * total energy  :  -193.6890825 Eh     change       -0.1498016E-04 Eh
 * total energy  :  -193.6890995 Eh     change       -0.1705165E-04 Eh
 * total energy  :  -193.6891222 Eh     change       -0.2264489E-04 Eh
 * total energy  :  -193.6891493 Eh     change       -0.2715167E-04 Eh
 * total energy  :  -193.6891737 Eh     change       -0.2436266E-04 Eh
 * total energy  :  -193.6891935 Eh     change       -0.1987734E-04 Eh
 * total energy  :  -193.6892108 Eh     change       -0.1720925E-04 Eh
 * total energy  :  -193.6892253 Eh     change       -0.1452010E-04 Eh
 * total energy  :  -193.6892302 Eh     change       -0.4884854E-05 Eh
   *** GEOMETRY OPTIMIZATION CONVERGED AFTER 68 ITERATIONS ***

 final structure:
================
78
 xtb: 6.3.3 (4ae9cef)
C         2.66245674927544    1.56674662853664   -1.23548750501815
C         3.26083301140222    2.03475621035358    0.06387508101391
F         4.35569987753101    2.77583623116089   -0.10205651247131
F         2.40369623584411    2.78138467842942    0.78659234808597
F         3.62127916627730    1.01642648510427    0.87444198622445
C         3.28886246011702    1.93690251213606   -2.42017810298543
C         2.74378243747812    1.58327610097003   -3.63997948741228
C         1.55808892627756    0.87094888277449   -3.68110936091084
C         0.94008300160786    0.49486019847794   -2.50362163550167
C         1.48539672737172    0.81669898015442   -1.26493242238859
C         0.75019213192452    0.37165224478251   -0.02404462364012
C        -0.55792622740511    1.18398145581919    0.16853671162324
C        -0.45326064979084    2.24760186680405    1.23348653633897
C        -0.47917202682931    3.61135259535615    0.93462351091058
C        -0.57304223231018    4.09648463528093   -0.48637322826205
F        -1.69588342627074    3.71333473477795   -1.11937562372693
F        -0.52439573189499    5.42617151567070   -0.59131490760397
F         0.44322191104857    3.63042249077087   -1.25349325669733
C        -0.38459580550581    4.55405039996567    1.94989363739662
C        -0.26253494355556    4.15131690078170    3.26673089776703
C        -0.22582945320501    2.80291691499193    3.57180321045515
C        -0.32003445886109    1.86343181773412    2.56188100821356
N        -1.56540895537541    0.17212741914842    0.50025591996091
C        -2.85252852225578    0.54816428195607    0.70119223173625
C        -3.87406756640959   -0.55805067283649    0.77474488504773
C        -4.14254755326654   -1.33450982310349   -0.34825548866501
C        -5.18011959123695   -2.25501091101966   -0.31573013199495
C        -5.49471104728512   -3.06939724597711   -1.54703657525716
F        -4.42683306464181   -3.21441764382533   -2.34201635933506
F        -5.92925406949264   -4.29695382507595   -1.24505678845254
F        -6.45109396055503   -2.49086614907974   -2.28892698072497
C        -5.96609254374290   -2.40789491164173    0.81827808818509
C        -5.70008750398942   -1.61647949402020    1.92636815127875
C        -6.57549483310176   -1.72769076183461    3.15112225807114
F        -5.89711757864625   -1.47083639595323    4.27668764647856
F        -7.59589305531515   -0.85874451275493    3.10771110034270
F        -7.11019363266232   -2.94572138095759    3.28544630132581
C        -4.67005746465660   -0.68515416308050    1.90888710821290
O        -3.18811136697996    1.70559815687713    0.78518904884716
C        -0.99588135514146   -1.15014328937894    0.52520142080920
C        -0.69615523159710   -1.62048547897821    1.98787460522827
O        -1.75797598385234   -1.91510154361005    2.72735308589435
O         0.42110734892432   -1.67636799768871    2.40102101474149
N         0.26374842702692   -0.99554612708123   -0.15621850335436
C         0.97076332474018   -2.12184361140997   -0.45512529840200
C         2.41601653010631   -1.89840531043338   -0.78238518513502
C         3.31856303102812   -1.76996277874268    0.26491267295013
C         4.66254513038489   -1.57404872835973   -0.01837217441934
C         5.67429915950663   -1.43359508056334    1.09131364123106
F         5.12179514907400   -1.31238268988233    2.29808162926411
F         6.49366108554661   -2.49912716776254    1.14636398161710
F         6.46447685648592   -0.36518598114629    0.90904314957049
C         5.11078556997077   -1.48993074520504   -1.32848116667598
C         4.19692541749942   -1.64427765510430   -2.36205888543459
C         4.69181105537643   -1.53089311083435   -3.77950742200513
F         5.57571271930462   -2.48640973209452   -4.09401519789411
F         5.31296795320351   -0.35581249973178   -3.98967429723748
F         3.70669068313953   -1.59971103515630   -4.68358549438704
C         2.85570430453836   -1.87370443429179   -2.09813222705088
O         0.44451510225562   -3.21039594960059   -0.46002624003774
H         4.20170276287179    2.50964679328514   -2.38393596345640
H         3.24027233816237    1.87303724917961   -4.55174093164253
H         1.11538510973498    0.60716308963349   -4.62881108081016
H         0.01876339163536   -0.06729275262182   -2.53853771445996
H         1.37125771930694    0.45816370039711    0.87399923641163
H        -0.85848871839303    1.62746069891840   -0.78531677692965
H        -0.40467363502386    5.60429057918962    1.70520069023080
H        -0.19039139337264    4.89059163659760    4.04855835613535
H        -0.12033513013806    2.47714285965507    4.59493439722067
H        -0.28241555252485    0.81463648905284    2.81373782792576
H        -3.56611361603227   -1.20889444043542   -1.25291522638095
H        -6.77124163656132   -3.12673474061492    0.83503540039884
H        -4.49234962922954   -0.05125614205026    2.76521629643690
H        -1.61119084638903   -1.90815498043830    0.02147834315572
H        -2.60620806066984   -1.85705345387476    2.26214777380546
H         2.97445020691840   -1.81582218779167    1.28769113788656
H         6.15382773172121   -1.30913556021150   -1.54102157400613
H         2.15837130949380   -2.01917433848392   -2.90806197765697

          :  Hamiltonian                  GFN2-xTB          :
         :: total energy            -193.689230158799 Eh    ::
         :: gradient norm              0.000361406565 Eh/a0 ::
         :: HOMO-LUMO gap              2.964466256607 eV    ::
         :: SCC energy              -195.419451000118 Eh    ::
         :: -> dispersion             -0.119495704140 Eh    ::
         :: repulsion energy           1.725272960631 Eh    ::

    * Orbital Energies and Occupations

         #    Occupation            Energy/Eh            Energy/eV
      -------------------------------------------------------------
         1        2.0000           -0.9124706             -24.8296
       ...           ...                  ...                  ...
       149        2.0000           -0.4837701             -13.1641
       150        2.0000           -0.4815278             -13.1030
       151        2.0000           -0.4803973             -13.0723
       152        2.0000           -0.4765978             -12.9689
       153        2.0000           -0.4706119             -12.8060
       154        2.0000           -0.4670258             -12.7084
       155        2.0000           -0.4628998             -12.5961
       156        2.0000           -0.4601374             -12.5210
       157        2.0000           -0.4578827             -12.4596
       158        2.0000           -0.4552204             -12.3872
       159        2.0000           -0.4479013             -12.1880
       160        2.0000           -0.4443117             -12.0903
       161        2.0000           -0.4394679             -11.9585 (HOMO)
       162                         -0.3305257              -8.9941 (LUMO)
       163                         -0.3299045              -8.9772
       164                         -0.3081619              -8.3855
       165                         -0.3068405              -8.3496
       166                         -0.2971320              -8.0854
       167                         -0.2928447              -7.9687
       168                         -0.2852361              -7.7617
       169                         -0.2803937              -7.6299
       170                         -0.2727652              -7.4223
       171                         -0.2698734              -7.3436
       172                         -0.2661634              -7.2427
       ...                                ...                  ...
       258                          0.6124013              16.6643
      -------------------------------------------------------------
                  HL-Gap            0.1089421 Eh            2.9645 eV

     #   Z          covCN         q      C6AA      Î±(0)
     1   6 C        2.976    -0.033    28.821     8.806
     2   6 C        3.335     0.485    17.304     6.589
     3   9 F        0.792    -0.189    11.124     3.940
     4   9 F        0.791    -0.212    11.362     3.982
     5   9 F        0.791    -0.218    11.428     3.993
     6   6 C        2.923    -0.021    28.529     8.759
     7   6 C        2.920    -0.019    28.474     8.750
     8   6 C        2.918    -0.017    28.442     8.745
     9   6 C        2.927    -0.031    28.776     8.797
    10   6 C        2.971     0.005    27.907     8.665
    11   6 C        3.818     0.035    19.978     6.361
    12   6 C        3.826     0.045    19.795     6.331
    13   6 C        2.970     0.018    27.599     8.617
    14   6 C        2.976    -0.020    28.504     8.758
    15   6 C        3.335     0.486    17.299     6.588
    16   9 F        0.791    -0.204    11.273     3.966
    17   9 F        0.792    -0.194    11.172     3.948
    18   9 F        0.791    -0.226    11.508     4.007
    19   6 C        2.923    -0.017    28.425     8.743
    20   6 C        2.920    -0.017    28.446     8.746
    21   6 C        2.919    -0.015    28.379     8.736
    22   6 C        2.926    -0.026    28.650     8.778
    23   7 N        2.760    -0.115    23.500     7.200
    24   6 C        2.761     0.268    22.467     7.762
    25   6 C        2.973    -0.013    28.338     8.732
    26   6 C        2.922    -0.021    28.538     8.760
    27   6 C        2.976    -0.009    28.249     8.718
    28   6 C        3.336     0.489    17.247     6.578
    29   9 F        0.791    -0.197    11.204     3.954
    30   9 F        0.791    -0.193    11.161     3.946
    31   9 F        0.791    -0.194    11.177     3.949
    32   6 C        2.921    -0.014    28.363     8.733
    33   6 C        2.976    -0.010    28.260     8.720
    34   6 C        3.335     0.489    17.252     6.579
    35   9 F        0.791    -0.196    11.192     3.952
    36   9 F        0.791    -0.193    11.164     3.947
    37   9 F        0.791    -0.193    11.167     3.947
    38   6 C        2.922    -0.021    28.519     8.758
    39   8 O        0.859    -0.384    21.361     6.197
    40   6 C        3.767     0.072    19.422     6.281
    41   6 C        2.686     0.352    21.016     7.502
    42   8 O        1.659    -0.342    19.749     5.999
    43   8 O        0.856    -0.334    20.408     6.057
    44   7 N        2.769    -0.108    23.367     7.179
    45   6 C        2.769     0.279    22.285     7.731
    46   6 C        2.979     0.003    27.952     8.672
    47   6 C        2.923    -0.014    28.371     8.735
    48   6 C        2.978    -0.006    28.162     8.705
    49   6 C        3.336     0.489    17.247     6.577
    50   9 F        0.791    -0.188    11.113     3.938
    51   9 F        0.791    -0.200    11.230     3.959
    52   9 F        0.791    -0.197    11.200     3.953
    53   6 C        2.924    -0.016    28.401     8.740
    54   6 C        2.978    -0.016    28.411     8.743
    55   6 C        3.336     0.487    17.275     6.582
    56   9 F        0.791    -0.192    11.155     3.945
    57   9 F        0.791    -0.204    11.275     3.966
    58   9 F        0.791    -0.199    11.229     3.958
    59   6 C        2.921    -0.017    28.440     8.745
    60   8 O        0.859    -0.397    21.610     6.233
    61   1 H        0.926     0.080     1.975     2.198
    62   1 H        0.926     0.075     2.030     2.228
    63   1 H        0.926     0.070     2.081     2.256
    64   1 H        0.926     0.055     2.255     2.348
    65   1 H        0.924     0.072     2.061     2.245
    66   1 H        0.924     0.077     2.006     2.215
    67   1 H        0.926     0.075     2.029     2.228
    68   1 H        0.926     0.066     2.128     2.281
    69   1 H        0.926     0.065     2.136     2.286
    70   1 H        0.926     0.050     2.325     2.384
    71   1 H        0.926     0.081     1.967     2.193
    72   1 H        0.926     0.099     1.798     2.097
    73   1 H        0.926     0.093     1.849     2.126
    74   1 H        0.923     0.081     1.969     2.194
    75   1 H        0.804     0.325     0.650     1.266
    76   1 H        0.926     0.102     1.763     2.077
    77   1 H        0.926     0.090     1.881     2.145
    78   1 H        0.926     0.083     1.953     2.185

Wiberg/Mayer (AO) data.
largest (>0.10) Wiberg bond orders for each atom

     #   Z sym  total        # sym  WBO       # sym  WBO       # sym  WBO
 ---------------------------------------------------------------------------
     1   6 C    3.970 --     6 C    1.413    10 C    1.386     2 C    0.950
                             8 C    0.104
     2   6 C    3.824 --     3 F    0.967     1 C    0.950     4 F    0.939
                             5 F    0.931
     3   9 F    1.091 --     2 C    0.967
     4   9 F    1.067 --     2 C    0.939
     5   9 F    1.061 --     2 C    0.931
     6   6 C    3.985 --     7 C    1.442     1 C    1.413    61 H    0.964
                             9 C    0.108
     7   6 C    3.986 --     6 C    1.442     8 C    1.433    62 H    0.966
                            10 C    0.109
     8   6 C    3.988 --     9 C    1.447     7 C    1.433    63 H    0.967
                             1 C    0.104
     9   6 C    3.989 --     8 C    1.447    10 C    1.408    64 H    0.966
                             6 C    0.108
    10   6 C    3.986 --     9 C    1.408     1 C    1.386    11 C    0.994
                             7 C    0.109
    11   6 C    3.966 --    10 C    0.994    44 N    0.962    65 H    0.951
                            12 C    0.951
    12   6 C    3.959 --    13 C    0.992    66 H    0.952    11 C    0.951
                            23 N    0.948
    13   6 C    3.986 --    22 C    1.416    14 C    1.382    12 C    0.992
                            20 C    0.109
    14   6 C    3.972 --    19 C    1.418    13 C    1.382    15 C    0.951
                            21 C    0.106
    15   6 C    3.823 --    17 F    0.963    14 C    0.951    16 F    0.945
                            18 F    0.925
    16   9 F    1.077 --    15 C    0.945
    17   9 F    1.086 --    15 C    0.963
    18   9 F    1.052 --    15 C    0.925
    19   6 C    3.986 --    20 C    1.439    14 C    1.418    67 H    0.964
                            22 C    0.108
    20   6 C    3.988 --    19 C    1.439    21 C    1.438    68 H    0.968
                            13 C    0.109
    21   6 C    3.989 --    22 C    1.442    20 C    1.438    69 H    0.968
                            14 C    0.106
    22   6 C    3.990 --    21 C    1.442    13 C    1.416    70 H    0.965
                            19 C    0.108
    23   7 N    3.472 --    24 C    1.215    40 C    0.985    12 C    0.948
                            39 O    0.202
    24   6 C    3.955 --    39 O    1.709    23 N    1.215    25 C    0.947
    25   6 C    3.983 --    38 C    1.403    26 C    1.400    24 C    0.947
                            32 C    0.108
    26   6 C    3.986 --    27 C    1.423    25 C    1.400    71 H    0.962
                            33 C    0.106
    27   6 C    3.983 --    26 C    1.423    32 C    1.414    28 C    0.946
                            38 C    0.105
    28   6 C    3.840 --    30 F    0.958    29 F    0.954    31 F    0.949
                            27 C    0.946
    29   9 F    1.080 --    28 C    0.954
    30   9 F    1.085 --    28 C    0.958
    31   9 F    1.083 --    28 C    0.949
    32   6 C    3.983 --    33 C    1.420    27 C    1.414    72 H    0.960
                            25 C    0.108
    33   6 C    3.983 --    32 C    1.420    38 C    1.416    34 C    0.946
                            26 C    0.106
    34   6 C    3.841 --    37 F    0.957    35 F    0.954    36 F    0.950
                            33 C    0.946
    35   9 F    1.081 --    34 C    0.954
    36   9 F    1.084 --    34 C    0.950
    37   9 F    1.084 --    34 C    0.957
    38   6 C    3.984 --    33 C    1.416    25 C    1.403    73 H    0.961
                            27 C    0.105
    39   8 O    2.064 --    24 C    1.709    23 N    0.202
    40   6 C    3.962 --    44 N    0.991    23 N    0.985    74 H    0.937
                            41 C    0.883
    41   6 C    3.923 --    43 O    1.814    42 O    1.159    40 C    0.883
    42   8 O    2.244 --    41 C    1.159    75 H    0.853    43 O    0.174
    43   8 O    2.111 --    41 C    1.814    42 O    0.174
    44   7 N    3.450 --    45 C    1.193    40 C    0.991    11 C    0.962
                            60 O    0.190
    45   6 C    3.950 --    60 O    1.717    44 N    1.193    46 C    0.954
    46   6 C    3.988 --    47 C    1.409    59 C    1.408    45 C    0.954
                            53 C    0.111
    47   6 C    3.981 --    48 C    1.416    46 C    1.409    76 H    0.958
                            54 C    0.105
    48   6 C    3.983 --    53 C    1.421    47 C    1.416    49 C    0.947
                            59 C    0.106
    49   6 C    3.841 --    50 F    0.965    52 F    0.951    48 C    0.947
                            51 F    0.944
    50   9 F    1.091 --    49 C    0.965
    51   9 F    1.076 --    49 C    0.944
    52   9 F    1.080 --    49 C    0.951
    53   6 C    3.985 --    48 C    1.421    54 C    1.412    77 H    0.962
                            46 C    0.111
    54   6 C    3.980 --    59 C    1.420    53 C    1.412    55 C    0.949
                            47 C    0.105
    55   6 C    3.837 --    56 F    0.955    58 F    0.954    54 C    0.949
                            57 F    0.943
    56   9 F    1.085 --    55 C    0.955
    57   9 F    1.072 --    55 C    0.943
    58   9 F    1.078 --    55 C    0.954
    59   6 C    3.986 --    54 C    1.420    46 C    1.408    78 H    0.962
                            48 C    0.106
    60   8 O    2.042 --    45 C    1.717    44 N    0.190
    61   1 H    0.993 --     6 C    0.964
    62   1 H    0.993 --     7 C    0.966
    63   1 H    0.994 --     8 C    0.967
    64   1 H    0.997 --     9 C    0.966
    65   1 H    0.994 --    11 C    0.951
    66   1 H    0.994 --    12 C    0.952
    67   1 H    0.994 --    19 C    0.964
    68   1 H    0.995 --    20 C    0.968
    69   1 H    0.995 --    21 C    0.968
    70   1 H    0.997 --    22 C    0.965
    71   1 H    0.993 --    26 C    0.962
    72   1 H    0.990 --    32 C    0.960
    73   1 H    0.991 --    38 C    0.961
    74   1 H    0.993 --    40 C    0.937
    75   1 H    0.894 --    42 O    0.853
    76   1 H    0.989 --    47 C    0.958
    77   1 H    0.991 --    53 C    0.962
    78   1 H    0.993 --    59 C    0.962
 ---------------------------------------------------------------------------

molecular dipole:
                 x           y           z       tot (Debye)
 q only:       -0.745       0.804      -0.153
   full:       -1.040       0.713      -0.352       3.328

           -------------------------------------------------
          | TOTAL ENERGY             -193.689230158799 Eh   |
          | GRADIENT NORM               0.000361406565 Eh/Î± |
          | HOMO-LUMO GAP               2.964466256607 eV   |
           -------------------------------------------------

 * finished run on 2022/03/17 at 00:27:05.440
