   * xtb version 6.3.3 (4ae9cef) compiled by 'conda@95abc7406d43' on 2020-10-14
          program call               : xtb acid_367.xyz --opt --chrg 0 --uhf 0 --gfn 2
          number of atoms            :                    62
          number of electrons        :                   194
          charge                     :                     0
          spin                       :                   0.0

   ID    Z sym.   atoms
    1    6 C      1-14, 16-21, 23, 24, 26, 27, 31-36, 38, 39
    2    7 N      15, 22, 30, 37
    3    8 O      25, 28, 29, 40
    4    1 H      41-62

          :  Hamiltonian                  GFN2-xTB          :
 * total energy  :  -107.6304415 Eh     change       -0.7418578E-08 Eh
 * total energy  :  -107.6437807 Eh     change       -0.1333920E-01 Eh
 * total energy  :  -107.6474591 Eh     change       -0.3678355E-02 Eh
 * total energy  :  -107.6477438 Eh     change       -0.2846937E-03 Eh
 * total energy  :  -107.6488257 Eh     change       -0.1081899E-02 Eh
 * total energy  :  -107.6492256 Eh     change       -0.3998920E-03 Eh
 * total energy  :  -107.6494920 Eh     change       -0.2664693E-03 Eh
 * total energy  :  -107.6496654 Eh     change       -0.1733572E-03 Eh
 * total energy  :  -107.6498712 Eh     change       -0.2058317E-03 Eh
 * total energy  :  -107.6501064 Eh     change       -0.2351221E-03 Eh
 * total energy  :  -107.6512038 Eh     change       -0.1265388E-04 Eh
 * total energy  :  -107.6512127 Eh     change       -0.8866803E-05 Eh
 * total energy  :  -107.6512219 Eh     change       -0.9220614E-05 Eh
 * total energy  :  -107.6512334 Eh     change       -0.1154508E-04 Eh
 * total energy  :  -107.6512455 Eh     change       -0.1210677E-04 Eh
 * total energy  :  -107.6512578 Eh     change       -0.1228412E-04 Eh
 * total energy  :  -107.6512694 Eh     change       -0.1153931E-04 Eh
 * total energy  :  -107.6512768 Eh     change       -0.7396887E-05 Eh
 * total energy  :  -107.6512805 Eh     change       -0.3763105E-05 Eh
   *** GEOMETRY OPTIMIZATION CONVERGED AFTER 33 ITERATIONS ***

 final structure:
================
62
 xtb: 6.3.3 (4ae9cef)
C        -2.26721084502402   -0.85459937131999   -1.66367017566166
C        -3.45327830680517   -1.40776183107716   -2.11048560632532
C        -4.31164160706599   -2.02644178178089   -1.21730505038726
C        -3.97484444649606   -2.09911043591680    0.12338501568022
C        -2.78833524652671   -1.54632813931401    0.57083536791169
C        -1.93112506906002   -0.91090191802995   -0.31724605074742
C        -0.64856087325293   -0.30386668006617    0.18282601729542
C         0.59935107362248   -1.12303944919447   -0.22076822904590
C         0.98331281092259   -2.09958304378353    0.85611205959798
C         0.70886139565463   -3.45036985607029    0.70538348707303
C         1.02041435313975   -4.34148005592498    1.71695488121357
C         1.60902359431219   -3.88937192505070    2.88502377742664
C         1.88266425753865   -2.54103836730512    3.04126210436956
C         1.56477736163078   -1.64889231006151    2.03436817444325
N         1.61192453267051   -0.09163884718802   -0.42928267180447
C         2.90628944745292   -0.45061343505096   -0.70586393137944
C         3.85585945974115    0.68266551127724   -0.90516207333585
C         4.73095275491262    0.63871467897349   -1.98544050832106
C         5.65055658616339    1.64949438286176   -2.17686105271952
C         5.71632872173869    2.70505049678104   -1.26634086535019
C         6.65801936243087    3.74367620730835   -1.45476046504871
N         7.42020515523876    4.58597337774310   -1.60739161223133
C         4.86261227965207    2.73545974223739   -0.16289645940163
C         3.93617089005104    1.72709288975482    0.01193649467595
O         3.26114835747442   -1.60759879175564   -0.70862982342707
C         0.95615329941542    1.09278850498253   -0.91805880268594
C         0.95354019994595    1.12127118429495   -2.46341921090463
O        -0.17689361315573    1.59567882864299   -2.96543794720212
O         1.88738825149339    0.76013894157660   -3.12290081418008
N        -0.37004756975429    1.01894818580983   -0.35850993284698
C        -1.11303302900989    2.14088815285687   -0.17352235435833
C        -2.46280911088646    1.86705184786056    0.41595017859997
C        -2.62142729591406    1.68373670765867    1.78434974204177
C        -3.86461046880231    1.37872396910708    2.30252941620655
C        -4.95872952971458    1.25786383603907    1.44622369479886
C        -6.22390104991364    0.90140864897950    1.96878982627176
N        -7.24449665573931    0.59948049075637    2.39367572767180
C        -4.80879751857738    1.48288364007632    0.07781224278451
C        -3.56382568537516    1.79278637110932   -0.42980584496617
O        -0.71381096076884    3.23982446480050   -0.49031661095562
H        -1.60705334884855   -0.35916638759418   -2.35931797506088
H        -3.70939505728124   -1.35477762412432   -3.15814625631812
H        -5.24020599499465   -2.45255993155980   -1.56542397817395
H        -4.63936962307268   -2.58239918800832    0.82339075089459
H        -2.52572297692605   -1.60446193488352    1.61730484673285
H        -0.68774376001009   -0.24366292543228    1.27950359724288
H         0.41114401965568   -1.66242499178843   -1.16039785476954
H         0.25494560382122   -3.80474345620433   -0.20839739872580
H         0.80750734407279   -5.39227869702527    1.58982248142366
H         1.85788738735295   -4.58595651277298    3.67145924681228
H         2.34519641188459   -2.18381505756635    3.94946436243741
H         1.78274355658701   -0.59717423265803    2.15568780433188
H         4.66789347369664   -0.18799808111303   -2.67470720963002
H         6.32345351299909    1.62972602835083   -3.02100511887678
H         4.93364225642915    3.54695345045376    0.54624689227892
H         3.28944450627137    1.73890162539467    0.87759725388245
H         1.44877332705161    2.02561095789169   -0.60296137729837
H        -0.12365460981385    1.67983538066765   -3.93254575217396
H        -1.77198987231899    1.78104803229755    2.44460142898744
H        -3.99632074502445    1.22575385149180    3.36340387212413
H        -5.66585831696229    1.40729381715190   -0.57414758666088
H        -3.43349235792624    1.96733005443301   -1.48660814423951

          :  Hamiltonian                  GFN2-xTB          :
         :: total energy            -107.651280533737 Eh    ::
         :: gradient norm              0.000409360177 Eh/a0 ::
         :: HOMO-LUMO gap              3.081248862508 eV    ::
         :: SCC energy              -109.428859684083 Eh    ::
         :: -> dispersion             -0.091348191698 Eh    ::
         :: repulsion energy           1.775234004208 Eh    ::

    * Orbital Energies and Occupations

         #    Occupation            Energy/Eh            Energy/eV
      -------------------------------------------------------------
         1        2.0000           -0.7868094             -21.4102
       ...           ...                  ...                  ...
        85        2.0000           -0.4380976             -11.9212
        86        2.0000           -0.4363203             -11.8729
        87        2.0000           -0.4354117             -11.8482
        88        2.0000           -0.4325801             -11.7711
        89        2.0000           -0.4309681             -11.7272
        90        2.0000           -0.4292399             -11.6802
        91        2.0000           -0.4273707             -11.6293
        92        2.0000           -0.4251948             -11.5701
        93        2.0000           -0.4211838             -11.4610
        94        2.0000           -0.4185310             -11.3888
        95        2.0000           -0.4158387             -11.3155
        96        2.0000           -0.4129556             -11.2371
        97        2.0000           -0.4049460             -11.0191 (HOMO)
        98                         -0.2917122              -7.9379 (LUMO)
        99                         -0.2887627              -7.8576
       100                         -0.2743825              -7.4663
       101                         -0.2626151              -7.1461
       102                         -0.2555545              -6.9540
       103                         -0.2523421              -6.8666
       104                         -0.2506046              -6.8193
       105                         -0.2399964              -6.5306
       106                         -0.2385866              -6.4923
       107                         -0.2364215              -6.4334
       108                         -0.2317205              -6.3054
       ...                                ...                  ...
       182                          1.1661484              31.7325
      -------------------------------------------------------------
                  HL-Gap            0.1132338 Eh            3.0812 eV

     #   Z          covCN         q      C6AA      Î±(0)
     1   6 C        2.924    -0.034    28.853     8.809
     2   6 C        2.920    -0.027    28.686     8.783
     3   6 C        2.920    -0.028    28.697     8.785
     4   6 C        2.920    -0.026    28.656     8.778
     5   6 C        2.924    -0.035    28.870     8.811
     6   6 C        2.972    -0.003    28.088     8.693
     7   6 C        3.823     0.036    19.947     6.356
     8   6 C        3.840     0.051    19.687     6.312
     9   6 C        2.974     0.013    27.722     8.637
    10   6 C        2.924    -0.028    28.704     8.786
    11   6 C        2.920    -0.024    28.607     8.771
    12   6 C        2.921    -0.027    28.677     8.782
    13   6 C        2.920    -0.026    28.650     8.777
    14   6 C        2.924    -0.030    28.740     8.792
    15   7 N        2.765    -0.130    23.815     7.248
    16   6 C        2.763     0.280    22.259     7.726
    17   6 C        2.975    -0.005    28.143     8.702
    18   6 C        2.923    -0.009    28.253     8.717
    19   6 C        2.926    -0.016    28.405     8.740
    20   6 C        2.974     0.024    27.455     8.595
    21   6 C        1.912     0.114    28.297     8.591
    22   7 N        0.911    -0.224    25.901     7.361
    23   6 C        2.926    -0.019    28.484     8.752
    24   6 C        2.921    -0.029    28.726     8.789
    25   8 O        0.859    -0.402    21.711     6.247
    26   6 C        3.776     0.096    19.027     6.215
    27   6 C        2.687     0.352    21.017     7.503
    28   8 O        1.659    -0.349    19.882     6.019
    29   8 O        0.856    -0.391    21.502     6.217
    30   7 N        2.766    -0.113    23.462     7.194
    31   6 C        2.764     0.274    22.368     7.745
    32   6 C        2.978    -0.004    28.109     8.697
    33   6 C        2.921    -0.024    28.603     8.770
    34   6 C        2.927    -0.018    28.463     8.749
    35   6 C        2.974     0.023    27.481     8.599
    36   6 C        1.912     0.113    28.308     8.593
    37   7 N        0.911    -0.222    25.851     7.354
    38   6 C        2.926    -0.017    28.439     8.745
    39   6 C        2.923    -0.019    28.481     8.752
    40   8 O        0.859    -0.417    22.014     6.291
    41   1 H        0.926     0.037     2.491     2.468
    42   1 H        0.926     0.042     2.427     2.436
    43   1 H        0.926     0.044     2.395     2.420
    44   1 H        0.926     0.044     2.398     2.422
    45   1 H        0.926     0.031     2.573     2.508
    46   1 H        0.923     0.048     2.347     2.396
    47   1 H        0.923     0.046     2.367     2.406
    48   1 H        0.926     0.035     2.515     2.480
    49   1 H        0.926     0.041     2.433     2.439
    50   1 H        0.926     0.040     2.447     2.446
    51   1 H        0.926     0.039     2.466     2.456
    52   1 H        0.926     0.028     2.609     2.526
    53   1 H        0.926     0.068     2.108     2.271
    54   1 H        0.926     0.054     2.271     2.356
    55   1 H        0.926     0.050     2.317     2.380
    56   1 H        0.926     0.038     2.474     2.460
    57   1 H        0.923     0.091     1.874     2.141
    58   1 H        0.804     0.346     0.598     1.215
    59   1 H        0.926     0.043     2.412     2.429
    60   1 H        0.926     0.052     2.295     2.369
    61   1 H        0.926     0.051     2.302     2.373
    62   1 H        0.926     0.050     2.314     2.379

Wiberg/Mayer (AO) data.
largest (>0.10) Wiberg bond orders for each atom

     #   Z sym  total        # sym  WBO       # sym  WBO       # sym  WBO
 ---------------------------------------------------------------------------
     1   6 C    3.991 --     2 C    1.447     6 C    1.409    41 H    0.966
                             4 C    0.111
     2   6 C    3.992 --     1 C    1.447     3 C    1.437    42 H    0.970
                             5 C    0.110
     3   6 C    3.990 --     4 C    1.439     2 C    1.437    43 H    0.971
                             6 C    0.109
     4   6 C    3.991 --     5 C    1.444     3 C    1.439    44 H    0.970
                             1 C    0.111
     5   6 C    3.990 --     4 C    1.444     6 C    1.413    45 H    0.968
                             2 C    0.110
     6   6 C    3.986 --     5 C    1.413     1 C    1.409     7 C    0.992
                             3 C    0.109
     7   6 C    3.965 --     6 C    0.992    30 N    0.959    46 H    0.953
                             8 C    0.950
     8   6 C    3.965 --     9 C    0.993    15 N    0.958    47 H    0.954
                             7 C    0.950
     9   6 C    3.984 --    10 C    1.416    14 C    1.408     8 C    0.993
                            12 C    0.109
    10   6 C    3.990 --    11 C    1.442     9 C    1.416    48 H    0.969
                            13 C    0.111
    11   6 C    3.992 --    12 C    1.442    10 C    1.442    49 H    0.970
                            14 C    0.112
    12   6 C    3.991 --    11 C    1.442    13 C    1.435    50 H    0.971
                             9 C    0.109
    13   6 C    3.992 --    14 C    1.449    12 C    1.435    51 H    0.971
                            10 C    0.111
    14   6 C    3.991 --    13 C    1.449     9 C    1.408    52 H    0.969
                            11 C    0.112
    15   7 N    3.414 --    16 C    1.166    26 C    0.991     8 C    0.958
                            25 O    0.177
    16   6 C    3.944 --    25 O    1.717    15 N    1.166    17 C    0.974
    17   6 C    3.962 --    18 C    1.394    24 C    1.391    16 C    0.974
    18   6 C    3.987 --    19 C    1.459    17 C    1.394    53 H    0.965
                            23 C    0.105
    19   6 C    3.990 --    18 C    1.459    20 C    1.361    54 H    0.969
                            24 C    0.103
    20   6 C    3.990 --    19 C    1.361    23 C    1.359    21 C    1.093
    21   6 C    3.947 --    22 N    2.808    20 C    1.093
    22   7 N    2.979 --    21 C    2.808
    23   6 C    3.991 --    24 C    1.461    20 C    1.359    55 H    0.969
                            18 C    0.105
    24   6 C    3.992 --    23 C    1.461    17 C    1.391    56 H    0.967
                            19 C    0.103
    25   8 O    2.039 --    16 C    1.717    15 N    0.177
    26   6 C    3.970 --    15 N    0.991    30 N    0.988    57 H    0.922
                            27 C    0.909
    27   6 C    3.919 --    29 O    1.775    28 O    1.168    26 C    0.909
    28   8 O    2.236 --    27 C    1.168    58 H    0.853    29 O    0.183
    29   8 O    2.063 --    27 C    1.775    28 O    0.183
    30   7 N    3.465 --    31 C    1.209    26 C    0.988     7 C    0.959
                            40 O    0.193
    31   6 C    3.947 --    40 O    1.700    30 N    1.209    32 C    0.955
    32   6 C    3.963 --    33 C    1.402    39 C    1.397    31 C    0.955
    33   6 C    3.991 --    34 C    1.455    32 C    1.402    59 H    0.968
                            38 C    0.104
    34   6 C    3.990 --    33 C    1.455    35 C    1.363    60 H    0.969
                            39 C    0.106
    35   6 C    3.990 --    34 C    1.363    38 C    1.361    36 C    1.092
    36   6 C    3.948 --    37 N    2.810    35 C    1.092
    37   7 N    2.981 --    36 C    2.810
    38   6 C    3.990 --    39 C    1.458    35 C    1.361    61 H    0.969
                            33 C    0.104
    39   6 C    3.990 --    38 C    1.458    32 C    1.397    62 H    0.967
                            34 C    0.106
    40   8 O    2.025 --    31 C    1.700    30 N    0.193
    41   1 H    0.999 --     1 C    0.966
    42   1 H    0.998 --     2 C    0.970
    43   1 H    0.998 --     3 C    0.971
    44   1 H    0.998 --     4 C    0.970
    45   1 H    0.999 --     5 C    0.968
    46   1 H    0.997 --     7 C    0.953
    47   1 H    0.997 --     8 C    0.954
    48   1 H    0.999 --    10 C    0.969
    49   1 H    0.998 --    11 C    0.970
    50   1 H    0.998 --    12 C    0.971
    51   1 H    0.998 --    13 C    0.971
    52   1 H    0.999 --    14 C    0.969
    53   1 H    0.994 --    18 C    0.965
    54   1 H    0.997 --    19 C    0.969
    55   1 H    0.997 --    23 C    0.969
    56   1 H    0.997 --    24 C    0.967
    57   1 H    0.991 --    26 C    0.922
    58   1 H    0.880 --    28 O    0.853
    59   1 H    0.997 --    33 C    0.968
    60   1 H    0.997 --    34 C    0.969
    61   1 H    0.997 --    38 C    0.969
    62   1 H    0.996 --    39 C    0.967
 ---------------------------------------------------------------------------

molecular dipole:
                 x           y           z       tot (Debye)
 q only:       -1.399      -1.175       0.124
   full:       -1.378      -1.203      -0.168       4.668

           -------------------------------------------------
          | TOTAL ENERGY             -107.651280533737 Eh   |
          | GRADIENT NORM               0.000409360177 Eh/Î± |
          | HOMO-LUMO GAP               3.081248862508 eV   |
           -------------------------------------------------

 * finished run on 2022/03/17 at 00:20:15.053
