   * xtb version 6.3.3 (4ae9cef) compiled by 'conda@95abc7406d43' on 2020-10-14
          program call               : xtb alk_8.xyz --opt --chrg 0 --uhf 0 --gfn 2
          number of atoms            :                    19
          number of electrons        :                    52
          charge                     :                     0
          spin                       :                   0.0

   ID    Z sym.   atoms
    1    6 C      1-7, 9, 10
    2   17 Cl     8
    3    1 H      11-19

          :  Hamiltonian                  GFN2-xTB          :
 * total energy  :   -28.3712107 Eh     change       -0.8235190E-10 Eh
 * total energy  :   -28.3733287 Eh     change       -0.2117994E-02 Eh
 * total energy  :   -28.3735047 Eh     change       -0.1760037E-03 Eh
 * total energy  :   -28.3735547 Eh     change       -0.4998432E-04 Eh
 * total energy  :   -28.3735861 Eh     change       -0.3145321E-04 Eh
 * total energy  :   -28.3736016 Eh     change       -0.1552477E-04 Eh
 * total energy  :   -28.3736094 Eh     change       -0.7742441E-05 Eh
 * total energy  :   -28.3736155 Eh     change       -0.6102481E-05 Eh
 * total energy  :   -28.3736159 Eh     change       -0.3799741E-06 Eh
   *** GEOMETRY OPTIMIZATION CONVERGED AFTER 9 ITERATIONS ***

 final structure:
================
19
 xtb: 6.3.3 (4ae9cef)
C         3.21194487238067   -0.33929093660328   -0.45975197886245
C         2.22417112584278    0.17497696427227    0.24683574126002
C         1.15644832795948   -0.63093104587412    0.92654663353986
C        -0.19638105023819   -0.22497233759243    0.40633863642219
C        -0.65054788729021   -0.71466958925360   -0.81198785575096
C        -1.87450576712849   -0.32643681990645   -1.32365721427623
C        -2.65479201472511    0.56815681948155   -0.60944348499342
Cl       -4.19097107318838    1.05691357498270   -1.23932377497271
C        -2.22067499919889    1.07179409867218    0.60479737998305
C        -0.99319810530656    0.67318149723104    1.10312949757253
H         3.95505933254685    0.27861823434872   -0.93368118684916
H         3.32595300259154   -1.40376748944266   -0.58562510939351
H         2.13018756325242    1.24689960015637    0.36078913524720
H         1.20264451275327   -0.44918309319658    2.00350594819434
H         1.32689062384386   -1.69324655064918    0.74331898131328
H        -0.03736866505928   -1.40771606528593   -1.36830047035892
H        -2.22291525386894   -0.71364464731633   -2.26815416549105
H        -2.83675218927293    1.76604412456451    1.15430653846728
H        -0.65519035589387    1.06727466141126    2.05035574894868

          :  Hamiltonian                  GFN2-xTB          :
         :: total energy             -28.373615872300 Eh    ::
         :: gradient norm              0.000969435908 Eh/a0 ::
         :: HOMO-LUMO gap              4.237821657421 eV    ::
         :: SCC energy               -28.832660763190 Eh    ::
         :: -> dispersion             -0.016609735637 Eh    ::
         :: repulsion energy           0.459024865554 Eh    ::

    * Orbital Energies and Occupations

         #    Occupation            Energy/Eh            Energy/eV
      -------------------------------------------------------------
         1        2.0000           -1.0529233             -28.6515
       ...           ...                  ...                  ...
        14        2.0000           -0.5007144             -13.6251
        15        2.0000           -0.4915404             -13.3755
        16        2.0000           -0.4898537             -13.3296
        17        2.0000           -0.4854976             -13.2111
        18        2.0000           -0.4638403             -12.6217
        19        2.0000           -0.4479300             -12.1888
        20        2.0000           -0.4448915             -12.1061
        21        2.0000           -0.4368565             -11.8875
        22        2.0000           -0.4338188             -11.8048
        23        2.0000           -0.4183345             -11.3835
        24        2.0000           -0.4145852             -11.2814
        25        2.0000           -0.4079572             -11.1011
        26        2.0000           -0.3924158             -10.6782 (HOMO)
        27                         -0.2366788              -6.4404 (LUMO)
        28                         -0.2364413              -6.4339
        29                         -0.2059683              -5.6047
        30                         -0.1341058              -3.6492
        31                         -0.1089864              -2.9657
        32                          0.0189165               0.5147
        33                          0.0238250               0.6483
        34                          0.0239364               0.6513
        35                          0.0370619               1.0085
        36                          0.0913573               2.4860
        37                          0.1164717               3.1694
       ...                                ...                  ...
        54                          0.6435336              17.5114
      -------------------------------------------------------------
                  HL-Gap            0.1557371 Eh            4.2378 eV

     #   Z          covCN         q      C6AA      Î±(0)
     1   6 C        2.837    -0.094    30.344     9.027
     2   6 C        2.890    -0.023    28.569     8.763
     3   6 C        3.812    -0.065    21.735     6.636
     4   6 C        2.973     0.017    27.638     8.623
     5   6 C        2.928    -0.035    28.879     8.813
     6   6 C        2.953    -0.040    28.993     8.832
     7   6 C        2.890     0.096    25.866     8.338
     8  17 Cl       0.965    -0.187   105.025    15.679
     9   6 C        2.953    -0.040    29.003     8.833
    10   6 C        2.927    -0.036    28.895     8.815
    11   1 H        0.926     0.038     2.474     2.460
    12   1 H        0.926     0.038     2.470     2.458
    13   1 H        0.925     0.034     2.537     2.491
    14   1 H        0.924     0.049     2.329     2.387
    15   1 H        0.924     0.049     2.329     2.387
    16   1 H        0.926     0.046     2.370     2.407
    17   1 H        0.926     0.054     2.267     2.354
    18   1 H        0.926     0.054     2.269     2.355
    19   1 H        0.926     0.044     2.396     2.421

Wiberg/Mayer (AO) data.
largest (>0.10) Wiberg bond orders for each atom

     #   Z sym  total        # sym  WBO       # sym  WBO       # sym  WBO
 ---------------------------------------------------------------------------
     1   6 C    3.989 --     2 C    1.978    11 H    0.976    12 H    0.975
     2   6 C    3.989 --     1 C    1.978     3 C    1.007    13 H    0.967
     3   6 C    3.996 --     2 C    1.007     4 C    0.998    15 H    0.968
                            14 H    0.959
     4   6 C    3.988 --    10 C    1.411     5 C    1.405     3 C    0.998
     5   6 C    3.991 --     6 C    1.449     4 C    1.405    16 H    0.968
                             9 C    0.109
     6   6 C    3.989 --     5 C    1.449     7 C    1.401    17 H    0.968
                            10 C    0.107
     7   6 C    3.913 --     9 C    1.406     6 C    1.401     8 Cl   0.967
     8  17 Cl   1.098 --     7 C    0.967
     9   6 C    3.989 --    10 C    1.442     7 C    1.406    18 H    0.968
                             5 C    0.109
    10   6 C    3.990 --     9 C    1.442     4 C    1.411    19 H    0.968
                             6 C    0.107
    11   1 H    0.998 --     1 C    0.976
    12   1 H    0.998 --     1 C    0.975
    13   1 H    0.999 --     2 C    0.967
    14   1 H    0.997 --     3 C    0.959
    15   1 H    0.997 --     3 C    0.968
    16   1 H    0.998 --     5 C    0.968
    17   1 H    0.997 --     6 C    0.968
    18   1 H    0.997 --     9 C    0.968
    19   1 H    0.998 --    10 C    0.968
 ---------------------------------------------------------------------------

molecular dipole:
                 x           y           z       tot (Debye)
 q only:        0.927      -0.330       0.435
   full:        0.733      -0.258       0.360       2.177

           -------------------------------------------------
          | TOTAL ENERGY              -28.373615872300 Eh   |
          | GRADIENT NORM               0.000969435908 Eh/Î± |
          | HOMO-LUMO GAP               4.237821657421 eV   |
           -------------------------------------------------

 * finished run on 2022/03/17 at 02:19:51.175
