   * xtb version 6.3.3 (4ae9cef) compiled by 'conda@95abc7406d43' on 2020-10-14
          program call               : xtb acid_337.xyz --opt --chrg 0 --uhf 0 --gfn 2
          number of atoms            :                    54
          number of electrons        :                   182
          charge                     :                     0
          spin                       :                   0.0

   ID    Z sym.   atoms
    1    6 C      1-14, 16-18, 21, 22, 24, 25, 29-31, 34, 35
    2    7 N      15, 28
    3   35 Br     19, 32
    4    8 O      20, 23, 26, 27, 33, 36
    5    1 H      37-54

          :  Hamiltonian                  GFN2-xTB          :
 * total energy  :  -103.2534859 Eh     change       -0.1239187E-08 Eh
 * total energy  :  -103.2691441 Eh     change       -0.1565825E-01 Eh
 * total energy  :  -103.2738292 Eh     change       -0.4685118E-02 Eh
 * total energy  :  -103.2751451 Eh     change       -0.1315884E-02 Eh
 * total energy  :  -103.2760319 Eh     change       -0.8868309E-03 Eh
 * total energy  :  -103.2764710 Eh     change       -0.4391046E-03 Eh
 * total energy  :  -103.2768701 Eh     change       -0.3990196E-03 Eh
 * total energy  :  -103.2772055 Eh     change       -0.3354635E-03 Eh
 * total energy  :  -103.2775162 Eh     change       -0.3107009E-03 Eh
 * total energy  :  -103.2777845 Eh     change       -0.2682851E-03 Eh
 * total energy  :  -103.2997651 Eh     change       -0.3284339E-04 Eh
 * total energy  :  -103.2997962 Eh     change       -0.3111983E-04 Eh
 * total energy  :  -103.2997924 Eh     change        0.3828656E-05 Eh
 * total energy  :  -103.2998090 Eh     change       -0.1666789E-04 Eh
 * total energy  :  -103.2998240 Eh     change       -0.1499737E-04 Eh
 * total energy  :  -103.2998332 Eh     change       -0.9170848E-05 Eh
 * total energy  :  -103.2998410 Eh     change       -0.7814618E-05 Eh
 * total energy  :  -103.2998453 Eh     change       -0.4246261E-05 Eh
 * total energy  :  -103.2998482 Eh     change       -0.2910802E-05 Eh
   *** GEOMETRY OPTIMIZATION CONVERGED AFTER 68 ITERATIONS ***

 final structure:
================
54
 xtb: 6.3.3 (4ae9cef)
C        -2.26745005874294   -0.59740047139340   -1.48388169173515
C        -3.21528253237151   -1.52386728481509   -1.87710090382445
C        -3.61576569380875   -2.52151964956143   -1.00374249217648
C        -3.05809455852028   -2.59460481821254    0.26097126603612
C        -2.11087879484255   -1.66655900178488    0.65729392032693
C        -1.72001530310612   -0.65310077719730   -0.20706255390775
C        -0.67474941361717    0.33719883041064    0.22314600800807
C         0.65810769279574    0.08954642162461   -0.53230592437440
C         1.51445696543654   -0.90386622385262    0.20486821154948
C         1.76083186216396   -2.15629505877677   -0.33972897455054
C         2.54643379234743   -3.07012070770427    0.34098319540890
C         3.08764180367776   -2.74011735668608    1.57147233495687
C         2.82862123113686   -1.49836839437890    2.12836008498528
C         2.04031862410366   -0.58539888306037    1.45213962757078
N         1.23013314144830    1.42072501806604   -0.62500655605472
C         2.53449952497220    1.77976315045927   -0.57383853017577
C         3.51394656639146    0.72562210990559   -0.91553984537155
C         4.65854693428722    0.42889183440443   -0.22674351845949
Br        5.27624229966755    1.04311716623517    1.40726062533054
O         5.36849360795730   -0.52623225617355   -0.83812391159056
C         4.70014119270561   -0.84211224103090   -1.96270183656314
C         3.55858360174055   -0.11330883838789   -2.06519943101047
O         2.86640023463237    2.91949618286019   -0.31081644401094
C         0.23756164672282    2.44735866851763   -0.39206987367673
C         0.63891920619677    3.35215105015065    0.79530008013536
O         0.99274126011476    2.61367732040415    1.85279179275513
O         0.55250889397035    4.54080810523157    0.80361392558284
N        -0.97752418233710    1.72188391719600   -0.09506447131938
C        -2.18207517366946    2.32961630708527   -0.26167636624054
C        -3.36764715458702    1.59963255534118    0.25174029631099
C        -3.60913352516636    1.12080046976562    1.50983696750004
Br       -2.56195379995093    1.10005398578924    3.04402907189830
O        -4.84639923548510    0.61948714843864    1.62125103329789
C        -5.43354505147185    0.77748285515383    0.42026611824147
C        -4.58736002555643    1.38253895914244   -0.45177379452383
O        -2.28807011505237    3.41987791066940   -0.78008572129149
H        -1.96500814927336    0.18632507507488   -2.16390713344703
H        -3.64308887488300   -1.46674375244616   -2.86663575306818
H        -4.35940161297607   -3.24140672858363   -1.31027923253944
H        -3.36166415502926   -3.37371720067524    0.94364338497000
H        -1.67581938049258   -1.72421770659667    1.64448667062902
H        -0.48406276442618    0.23964781959687    1.30028159397119
H         0.43780807959163   -0.28556884204316   -1.54243006961741
H         1.34197256013781   -2.41469759034475   -1.30177638560241
H         2.73949236678778   -4.03898471194401   -0.09460915272153
H         3.71003797770516   -3.44860379931049    2.09653685149751
H         3.24724259274027   -1.23527157563897    3.08755407142216
H         1.85155677518978    0.38649142464723    1.88358636172115
H         5.13915218493055   -1.58504454979992   -2.59729331157571
H         2.84186765832035   -0.14156041786280   -2.85897332220144
H         0.09502736118807    3.10071402715807   -1.26577272050597
H         1.25184295165520    3.18872239697098    2.59068107558907
H        -6.44076855103693    0.42706047582124    0.32209494736700
H        -4.77537648432176    1.64999465212861   -1.47004759492486

          :  Hamiltonian                  GFN2-xTB          :
         :: total energy            -103.299848165196 Eh    ::
         :: gradient norm              0.000408195410 Eh/a0 ::
         :: HOMO-LUMO gap              3.676500451962 eV    ::
         :: SCC energy              -104.631365066051 Eh    ::
         :: -> dispersion             -0.090201306483 Eh    ::
         :: repulsion energy           1.328485789394 Eh    ::

    * Orbital Energies and Occupations

         #    Occupation            Energy/Eh            Energy/eV
      -------------------------------------------------------------
         1        2.0000           -0.8641985             -23.5160
       ...           ...                  ...                  ...
        79        2.0000           -0.4439135             -12.0795
        80        2.0000           -0.4425068             -12.0412
        81        2.0000           -0.4345559             -11.8249
        82        2.0000           -0.4331690             -11.7871
        83        2.0000           -0.4320460             -11.7566
        84        2.0000           -0.4297440             -11.6939
        85        2.0000           -0.4273625             -11.6291
        86        2.0000           -0.4199107             -11.4264
        87        2.0000           -0.4193355             -11.4107
        88        2.0000           -0.4161581             -11.3242
        89        2.0000           -0.4129332             -11.2365
        90        2.0000           -0.4105201             -11.1708
        91        2.0000           -0.4028650             -10.9625 (HOMO)
        92                         -0.2677561              -7.2860 (LUMO)
        93                         -0.2673336              -7.2745
        94                         -0.2582616              -7.0277
        95                         -0.2516161              -6.8468
        96                         -0.2498703              -6.7993
        97                         -0.2468216              -6.7164
        98                         -0.2432812              -6.6200
        99                         -0.2389224              -6.5014
       100                         -0.2352245              -6.4008
       101                         -0.2251215              -6.1259
       102                         -0.2177702              -5.9258
       ...                                ...                  ...
       172                          0.6772263              18.4283
      -------------------------------------------------------------
                  HL-Gap            0.1351089 Eh            3.6765 eV

     #   Z          covCN         q      C6AA      Î±(0)
     1   6 C        2.923    -0.035    28.874     8.812
     2   6 C        2.919    -0.029    28.714     8.787
     3   6 C        2.920    -0.029    28.730     8.790
     4   6 C        2.920    -0.026    28.651     8.778
     5   6 C        2.924    -0.036    28.901     8.816
     6   6 C        2.973    -0.003    28.098     8.695
     7   6 C        3.826     0.036    19.954     6.356
     8   6 C        3.821     0.041    19.863     6.342
     9   6 C        2.973    -0.004    28.124     8.699
    10   6 C        2.923    -0.038    28.940     8.822
    11   6 C        2.920    -0.028    28.711     8.787
    12   6 C        2.920    -0.027    28.678     8.782
    13   6 C        2.919    -0.026    28.644     8.777
    14   6 C        2.923    -0.039    28.958     8.825
    15   7 N        2.763    -0.111    23.416     7.187
    16   6 C        2.766     0.279    22.278     7.730
    17   6 C        3.104    -0.050    29.107     8.840
    18   6 C        3.092     0.187    23.913     8.015
    19  35 Br       0.997    -0.083   187.267    22.064
    20   8 O        1.768    -0.167    16.813     5.537
    21   6 C        3.079     0.070    26.362     8.418
    22   6 C        3.029    -0.061    29.482     8.906
    23   8 O        0.860    -0.417    22.017     6.291
    24   6 C        3.779     0.097    18.999     6.210
    25   6 C        2.687     0.367    20.783     7.461
    26   8 O        1.659    -0.371    20.287     6.080
    27   8 O        0.856    -0.357    20.848     6.122
    28   7 N        2.761    -0.116    23.522     7.203
    29   6 C        2.759     0.275    22.348     7.741
    30   6 C        3.095    -0.048    29.070     8.837
    31   6 C        3.093     0.176    24.125     8.050
    32  35 Br       0.994    -0.103   187.846    22.099
    33   8 O        1.770    -0.170    16.856     5.544
    34   6 C        3.075     0.070    26.366     8.419
    35   6 C        3.032    -0.053    29.281     8.876
    36   8 O        0.859    -0.409    21.853     6.268
    37   1 H        0.926     0.036     2.505     2.475
    38   1 H        0.926     0.041     2.433     2.439
    39   1 H        0.926     0.041     2.429     2.437
    40   1 H        0.926     0.044     2.401     2.423
    41   1 H        0.926     0.042     2.418     2.432
    42   1 H        0.923     0.068     2.104     2.269
    43   1 H        0.923     0.047     2.362     2.404
    44   1 H        0.926     0.029     2.604     2.524
    45   1 H        0.926     0.039     2.462     2.454
    46   1 H        0.926     0.043     2.405     2.425
    47   1 H        0.926     0.051     2.305     2.374
    48   1 H        0.926     0.055     2.254     2.348
    49   1 H        0.926     0.071     2.077     2.253
    50   1 H        0.927     0.056     2.250     2.346
    51   1 H        0.923     0.092     1.861     2.133
    52   1 H        0.804     0.344     0.603     1.220
    53   1 H        0.926     0.070     2.081     2.256
    54   1 H        0.927     0.068     2.109     2.271

Wiberg/Mayer (AO) data.
largest (>0.10) Wiberg bond orders for each atom

     #   Z sym  total        # sym  WBO       # sym  WBO       # sym  WBO
 ---------------------------------------------------------------------------
     1   6 C    3.991 --     2 C    1.449     6 C    1.406    37 H    0.968
                             4 C    0.111
     2   6 C    3.991 --     1 C    1.449     3 C    1.435    38 H    0.970
                             5 C    0.109
     3   6 C    3.990 --     4 C    1.442     2 C    1.435    39 H    0.971
                             6 C    0.109
     4   6 C    3.991 --     3 C    1.442     5 C    1.441    40 H    0.970
                             1 C    0.111
     5   6 C    3.990 --     4 C    1.441     6 C    1.415    41 H    0.967
                             2 C    0.109
     6   6 C    3.985 --     5 C    1.415     1 C    1.406     7 C    0.996
                             3 C    0.109
     7   6 C    3.963 --     6 C    0.996    28 N    0.964    42 H    0.946
                             8 C    0.942
     8   6 C    3.966 --     9 C    0.993    15 N    0.962    43 H    0.953
                             7 C    0.942
     9   6 C    3.985 --    10 C    1.415    14 C    1.406     8 C    0.993
                            12 C    0.109
    10   6 C    3.991 --    11 C    1.440     9 C    1.415    44 H    0.968
                            13 C    0.109
    11   6 C    3.992 --    12 C    1.442    10 C    1.440    45 H    0.971
                            14 C    0.111
    12   6 C    3.990 --    11 C    1.442    13 C    1.434    46 H    0.971
                             9 C    0.109
    13   6 C    3.991 --    14 C    1.449    12 C    1.434    47 H    0.969
                            10 C    0.109
    14   6 C    3.989 --    13 C    1.449     9 C    1.406    48 H    0.962
                            11 C    0.111
    15   7 N    3.469 --    16 C    1.218    24 C    0.977     8 C    0.962
                            23 O    0.191
    16   6 C    3.953 --    23 O    1.664    15 N    1.218    17 C    0.989
    17   6 C    3.975 --    18 C    1.509    22 C    1.245    16 C    0.989
    18   6 C    3.887 --    17 C    1.509    20 O    1.139    19 Br   1.023
                            21 C    0.130
    19  35 Br   1.187 --    18 C    1.023
    20   8 O    2.457 --    18 C    1.139    21 C    1.117
    21   6 C    3.900 --    22 C    1.622    20 O    1.117    49 H    0.963
                            18 C    0.130
    22   6 C    3.981 --    21 C    1.622    17 C    1.245    50 H    0.972
    23   8 O    2.041 --    16 C    1.664    15 N    0.191
    24   6 C    3.956 --    28 N    0.978    15 N    0.977    51 H    0.943
                            25 C    0.904
    25   6 C    3.925 --    27 O    1.808    26 O    1.132    24 C    0.904
    26   8 O    2.202 --    25 C    1.132    52 H    0.857    27 O    0.177
    27   8 O    2.093 --    25 C    1.808    26 O    0.177
    28   7 N    3.468 --    29 C    1.204    24 C    0.978     7 C    0.964
                            36 O    0.194
    29   6 C    3.955 --    36 O    1.688    28 N    1.204    30 C    0.982
    30   6 C    3.976 --    31 C    1.511    35 C    1.247    29 C    0.982
    31   6 C    3.879 --    30 C    1.511    33 O    1.134    32 Br   1.012
                            34 C    0.132
    32  35 Br   1.178 --    31 C    1.012
    33   8 O    2.453 --    31 C    1.134    34 C    1.116
    34   6 C    3.900 --    35 C    1.625    33 O    1.116    53 H    0.963
                            31 C    0.132
    35   6 C    3.981 --    34 C    1.625    30 C    1.247    54 H    0.970
    36   8 O    2.033 --    29 C    1.688    28 N    0.194
    37   1 H    0.999 --     1 C    0.968
    38   1 H    0.998 --     2 C    0.970
    39   1 H    0.998 --     3 C    0.971
    40   1 H    0.998 --     4 C    0.970
    41   1 H    0.998 --     5 C    0.967
    42   1 H    0.995 --     7 C    0.946
    43   1 H    0.997 --     8 C    0.953
    44   1 H    0.999 --    10 C    0.968
    45   1 H    0.998 --    11 C    0.971
    46   1 H    0.998 --    12 C    0.971
    47   1 H    0.997 --    13 C    0.969
    48   1 H    0.997 --    14 C    0.962
    49   1 H    0.994 --    21 C    0.963
    50   1 H    0.997 --    22 C    0.972
    51   1 H    0.990 --    24 C    0.943
    52   1 H    0.882 --    26 O    0.857
    53   1 H    0.995 --    34 C    0.963
    54   1 H    0.995 --    35 C    0.970
 ---------------------------------------------------------------------------

molecular dipole:
                 x           y           z       tot (Debye)
 q only:       -0.651      -3.610      -0.391
   full:       -1.319      -3.909      -1.418      11.088

           -------------------------------------------------
          | TOTAL ENERGY             -103.299848165196 Eh   |
          | GRADIENT NORM               0.000408195410 Eh/Î± |
          | HOMO-LUMO GAP               3.676500451962 eV   |
           -------------------------------------------------

 * finished run on 2022/03/16 at 23:59:43.179
