   * xtb version 6.3.3 (4ae9cef) compiled by 'conda@95abc7406d43' on 2020-10-14
          program call               : xtb acid_241.xyz --opt --chrg 0 --uhf 0 --gfn 2
          number of atoms            :                    88
          number of electrons        :                   262
          charge                     :                     0
          spin                       :                   0.0

   ID    Z sym.   atoms
    1    6 C      1, 3-16, 18, 20-28, 30-32, 34, 35, 39-47, 49-51
    2    8 O      2, 17, 29, 33, 36, 37, 48, 52
    3    7 N      19, 38
    4    1 H      53-88

          :  Hamiltonian                  GFN2-xTB          :
 * total energy  :  -146.7140646 Eh     change       -0.3974662E-08 Eh
 * total energy  :  -146.7296622 Eh     change       -0.1559759E-01 Eh
 * total energy  :  -146.7347600 Eh     change       -0.5097829E-02 Eh
 * total energy  :  -146.7367580 Eh     change       -0.1998035E-02 Eh
 * total energy  :  -146.7384523 Eh     change       -0.1694242E-02 Eh
 * total energy  :  -146.7397217 Eh     change       -0.1269411E-02 Eh
 * total energy  :  -146.7406078 Eh     change       -0.8860890E-03 Eh
 * total energy  :  -146.7414421 Eh     change       -0.8343488E-03 Eh
 * total energy  :  -146.7423347 Eh     change       -0.8926003E-03 Eh
 * total energy  :  -146.7431873 Eh     change       -0.8525780E-03 Eh
 * total energy  :  -146.7496428 Eh     change       -0.2274272E-04 Eh
 * total energy  :  -146.7496619 Eh     change       -0.1907533E-04 Eh
 * total energy  :  -146.7496768 Eh     change       -0.1489818E-04 Eh
 * total energy  :  -146.7496895 Eh     change       -0.1272380E-04 Eh
 * total energy  :  -146.7497013 Eh     change       -0.1177294E-04 Eh
 * total energy  :  -146.7497112 Eh     change       -0.9951617E-05 Eh
 * total energy  :  -146.7497208 Eh     change       -0.9568052E-05 Eh
 * total energy  :  -146.7497296 Eh     change       -0.8849840E-05 Eh
 * total energy  :  -146.7497319 Eh     change       -0.2244247E-05 Eh
   *** GEOMETRY OPTIMIZATION CONVERGED AFTER 63 ITERATIONS ***

 final structure:
================
88
 xtb: 6.3.3 (4ae9cef)
C        -1.41417629982658   -3.46115902773112   -1.11656437617842
O        -1.17074126017020   -2.59618527122357   -2.14596527886911
C        -1.36041640816893   -3.04242913630534   -3.46565606140897
C        -1.77839174506054   -4.79069876926210   -1.28680973761746
C        -1.98472714676543   -5.60506484488518   -0.18590431580540
C        -1.83152918273989   -5.10450429539065    1.09193894379199
C        -1.47817851988885   -3.77727847965159    1.26467609355137
C        -1.26779513887682   -2.94497734851343    0.17970349643073
C        -0.87443672896152   -1.50658610936562    0.40072447439840
C         0.55272698646547   -1.19542465633950   -0.09782545372994
C         1.46935098003001   -0.85609849133299    1.04987008443417
C         1.27546326962823    0.30699468391537    1.77753886550473
C         2.11201625533040    0.63082771635567    2.83071950130122
C         3.14878937727707   -0.22085887336422    3.16045083456419
C         3.34728943198323   -1.39629420380167    2.45582985033427
C         2.50769995187663   -1.72994329203641    1.40004739507220
O         2.62181159750729   -2.86591424102457    0.65140628988216
C         3.62804868053742   -3.79151642303222    0.98243241024795
N         0.37327742324898   -0.07423529655228   -1.00083262101916
C         1.30866612440333    0.82279099142159   -1.37021977585138
C         2.70695859542065    0.40905541755413   -1.14284197031880
C         3.71166176773325    1.01082439195488   -0.41374791104198
C         3.73396240582703    2.16069957253151    0.47002902130836
C         4.78594053864922    2.30295126462771    1.37765902842651
C         4.81460604665023    3.36670765312851    2.25668490306326
C         3.79636855539154    4.30595825665113    2.24650101550347
C         2.75710816607385    4.18037936226290    1.33908405132952
C         2.72267102776208    3.12149920491812    0.45220707835073
O         4.83662664072219    0.26212075665129   -0.50942170406439
C         4.57930644823506   -0.79301256855458   -1.30743864758009
C         5.68549365785584   -1.73956127363011   -1.60957071824101
C         3.28174026792903   -0.75694831969307   -1.71843992984616
O         0.97986157252406    1.86876401047811   -1.91143368294471
C        -1.01408785910456    0.20473226468319   -1.29549187098897
C        -1.29011569122124    1.72272364245152   -1.22051437609736
O        -1.00102939142564    2.20787214145645   -0.00962372268843
O        -1.80596974287325    2.35699028930915   -2.09584600955618
N        -1.72900135648867   -0.57130954103116   -0.31690066067297
C        -3.04952183763344   -0.50720033612663   -0.01788453859125
C        -3.81543923221946    0.44580158566195   -0.85412695811728
C        -4.28190543886009    1.70585514010208   -0.54663324012820
C        -4.11436141360832    2.54786201010355    0.62102108080694
C        -3.57256074954685    2.05508964673417    1.80978796633015
C        -3.38757263376957    2.89595643570480    2.89054576256661
C        -3.74016171976591    4.23373504256145    2.80991544006738
C        -4.28702922543055    4.72910228134146    1.63670801676799
C        -4.47207040881058    3.89702325373532    0.55031735756181
O        -4.92575558148604    2.21596049698184   -1.62244261990451
C        -4.88744618340886    1.30535209931717   -2.60950025367761
C        -5.51845679079871    1.64645403605837   -3.91008006782308
C        -4.21653692347208    0.19418428350676   -2.19141882164390
O        -3.54033178829449   -1.20186584023682    0.85098124379414
H        -2.39377750768689   -3.35896074211448   -3.64043401082750
H        -0.68207754572099   -3.86487301066590   -3.71597132518496
H        -1.13374388694979   -2.18731709798748   -4.10223749332687
H        -1.90545441090386   -5.20374645338381   -2.27508987955672
H        -2.26934244895237   -6.63561155006877   -0.33803129492204
H        -1.99442211681623   -5.73803717349247    1.94988041970690
H        -1.37165667153773   -3.37324793712928    2.25987714630763
H        -0.96228496236895   -1.29371926912560    1.47381788547924
H         0.95548366283856   -2.05687457915071   -0.63998902373541
H         0.47019095571945    0.97197382112273    1.50280113559699
H         1.95973362351680    1.54545103369242    3.38138212501062
H         3.81484889692224    0.02529765980897    3.97353152164621
H         4.16197740024488   -2.04480935980865    2.73655820586175
H         3.51370957136774   -4.61216679966891    0.27568273487657
H         4.62652342709990   -3.35694650598214    0.87458902059512
H         3.50239146973526   -4.17365611055060    2.00035254663373
H         5.57397939204297    1.56566573551131    1.38997243356692
H         5.63318905881615    3.46419814840154    2.95510605208250
H         3.81722144762902    5.13551197210079    2.93764170617986
H         1.96909205918876    4.91872970478956    1.31906809968429
H         1.92547788523633    3.04736983333307   -0.26737319730742
H         5.27951661018079   -2.70365847756333   -1.90192875921539
H         6.30020031756111   -1.35898106224031   -2.42599924539735
H         6.32471370132844   -1.85858459602459   -0.73725595126224
H         2.78976770708338   -1.45750989251517   -2.36122127474961
H        -1.26110656876489   -0.10883925417142   -2.32440970611894
H        -1.18220821799820    3.16036490801394    0.02066099926508
H        -3.31387898806622    1.01273474775642    1.89074026804280
H        -2.96946996095754    2.50310798776949    3.80567982549215
H        -3.59495805845358    4.88579297434225    3.65868991603285
H        -4.56875424989776    5.76993614677718    1.56872970115673
H        -4.88999872151763    4.28086532869289   -0.36750260909796
H        -6.51623171045834    2.05159643275967   -3.75102931264989
H        -4.92377246632086    2.40193457007421   -4.42324461465743
H        -5.58196228865373    0.76117164777189   -4.53521398481478
H        -4.03061477490399   -0.69936307412297   -2.75147494138075

          :  Hamiltonian                  GFN2-xTB          :
         :: total energy            -146.749731883816 Eh    ::
         :: gradient norm              0.000765554023 Eh/a0 ::
         :: HOMO-LUMO gap              2.872773191349 eV    ::
         :: SCC energy              -148.886787666860 Eh    ::
         :: -> dispersion             -0.132007961315 Eh    ::
         :: repulsion energy           2.130848928870 Eh    ::

    * Orbital Energies and Occupations

         #    Occupation            Energy/Eh            Energy/eV
      -------------------------------------------------------------
         1        2.0000           -0.7449393             -20.2708
       ...           ...                  ...                  ...
       119        2.0000           -0.4124108             -11.2223
       120        2.0000           -0.4115394             -11.1986
       121        2.0000           -0.4070970             -11.0777
       122        2.0000           -0.4039269             -10.9914
       123        2.0000           -0.4009316             -10.9099
       124        2.0000           -0.3998532             -10.8806
       125        2.0000           -0.3989086             -10.8549
       126        2.0000           -0.3915364             -10.6542
       127        2.0000           -0.3895542             -10.6003
       128        2.0000           -0.3842135             -10.4550
       129        2.0000           -0.3816876             -10.3862
       130        2.0000           -0.3721244             -10.1260
       131        2.0000           -0.3628481              -9.8736 (HOMO)
       132                         -0.2572756              -7.0008 (LUMO)
       133                         -0.2460392              -6.6951
       134                         -0.2390081              -6.5037
       135                         -0.2307962              -6.2803
       136                         -0.2278333              -6.1997
       137                         -0.2229177              -6.0659
       138                         -0.2208333              -6.0092
       139                         -0.2179910              -5.9318
       140                         -0.2172333              -5.9112
       141                         -0.2157667              -5.8713
       142                         -0.2060590              -5.6072
       ...                                ...                  ...
       244                          0.7183813              19.5481
      -------------------------------------------------------------
                  HL-Gap            0.1055725 Eh            2.8728 eV

     #   Z          covCN         q      C6AA      Î±(0)
     1   6 C        2.867     0.141    24.934     8.185
     2   8 O        1.705    -0.277    18.598     5.823
     3   6 C        3.642     0.041    20.227     6.466
     4   6 C        2.917    -0.066    29.640     8.928
     5   6 C        2.921    -0.031    28.767     8.796
     6   6 C        2.917    -0.038    28.941     8.822
     7   6 C        2.926    -0.027    28.666     8.780
     8   6 C        2.971    -0.011    28.292     8.725
     9   6 C        3.825     0.051    19.699     6.316
    10   6 C        3.815     0.038    19.929     6.354
    11   6 C        2.974    -0.024    28.591     8.771
    12   6 C        2.924    -0.038    28.940     8.822
    13   6 C        2.917    -0.038    28.955     8.824
    14   6 C        2.921    -0.031    28.763     8.795
    15   6 C        2.918    -0.065    29.622     8.925
    16   6 C        2.867     0.136    25.018     8.199
    17   8 O        1.705    -0.277    18.596     5.822
    18   6 C        3.644     0.037    20.290     6.475
    19   7 N        2.770    -0.094    23.070     7.134
    20   6 C        2.766     0.276    22.337     7.740
    21   6 C        3.066    -0.052    29.221     8.864
    22   6 C        3.078     0.111    25.467     8.274
    23   6 C        2.970     0.006    27.887     8.662
    24   6 C        2.927    -0.030    28.755     8.794
    25   6 C        2.918    -0.029    28.730     8.790
    26   6 C        2.919    -0.030    28.755     8.794
    27   6 C        2.919    -0.027    28.675     8.781
    28   6 C        2.923    -0.037    28.917     8.818
    29   8 O        1.732    -0.195    17.250     5.608
    30   6 C        3.071     0.118    25.339     8.254
    31   6 C        3.753    -0.115    22.760     6.803
    32   6 C        3.003    -0.075    29.848     8.962
    33   8 O        0.861    -0.437    22.430     6.350
    34   6 C        3.758     0.095    19.057     6.224
    35   6 C        2.687     0.370    20.732     7.452
    36   8 O        1.659    -0.372    20.308     6.083
    37   8 O        0.856    -0.392    21.518     6.219
    38   7 N        2.766    -0.103    23.262     7.163
    39   6 C        2.760     0.275    22.343     7.741
    40   6 C        3.069    -0.060    29.416     8.893
    41   6 C        3.088     0.108    25.528     8.282
    42   6 C        2.970     0.004    27.920     8.667
    43   6 C        2.923    -0.037    28.915     8.818
    44   6 C        2.919    -0.028    28.712     8.787
    45   6 C        2.919    -0.033    28.831     8.805
    46   6 C        2.918    -0.031    28.778     8.797
    47   6 C        2.926    -0.033    28.826     8.805
    48   8 O        1.732    -0.185    17.086     5.581
    49   6 C        3.080     0.126    25.165     8.224
    50   6 C        3.753    -0.117    22.808     6.810
    51   6 C        3.006    -0.075    29.858     8.963
    52   8 O        0.859    -0.434    22.362     6.340
    53   1 H        0.924     0.041     2.432     2.439
    54   1 H        0.924     0.040     2.454     2.450
    55   1 H        0.925     0.060     2.201     2.320
    56   1 H        0.926     0.038     2.470     2.458
    57   1 H        0.926     0.039     2.468     2.457
    58   1 H        0.926     0.041     2.438     2.442
    59   1 H        0.926     0.045     2.377     2.411
    60   1 H        0.924     0.064     2.153     2.294
    61   1 H        0.924     0.074     2.041     2.234
    62   1 H        0.926     0.055     2.252     2.347
    63   1 H        0.926     0.040     2.446     2.446
    64   1 H        0.926     0.040     2.445     2.445
    65   1 H        0.926     0.040     2.445     2.445
    66   1 H        0.925     0.062     2.177     2.307
    67   1 H        0.924     0.043     2.406     2.426
    68   1 H        0.924     0.044     2.394     2.420
    69   1 H        0.926     0.040     2.445     2.445
    70   1 H        0.926     0.032     2.556     2.500
    71   1 H        0.926     0.033     2.548     2.496
    72   1 H        0.926     0.034     2.526     2.485
    73   1 H        0.926     0.058     2.222     2.331
    74   1 H        0.925     0.058     2.226     2.333
    75   1 H        0.924     0.064     2.149     2.292
    76   1 H        0.925     0.060     2.196     2.317
    77   1 H        0.926     0.040     2.454     2.450
    78   1 H        0.923     0.072     2.060     2.245
    79   1 H        0.804     0.340     0.613     1.230
    80   1 H        0.926     0.045     2.386     2.415
    81   1 H        0.926     0.033     2.541     2.493
    82   1 H        0.926     0.030     2.583     2.513
    83   1 H        0.926     0.032     2.565     2.504
    84   1 H        0.926     0.047     2.360     2.402
    85   1 H        0.925     0.064     2.148     2.292
    86   1 H        0.925     0.071     2.074     2.252
    87   1 H        0.925     0.056     2.250     2.345
    88   1 H        0.926     0.034     2.533     2.489

Wiberg/Mayer (AO) data.
largest (>0.10) Wiberg bond orders for each atom

     #   Z sym  total        # sym  WBO       # sym  WBO       # sym  WBO
 ---------------------------------------------------------------------------
     1   6 C    3.934 --     4 C    1.385     8 C    1.326     2 O    1.052
     2   8 O    2.224 --     1 C    1.052     3 C    0.985
     3   6 C    3.946 --     2 O    0.985    55 H    0.979    53 H    0.977
                            54 H    0.976
     4   6 C    3.987 --     5 C    1.432     1 C    1.385    56 H    0.965
                             7 C    0.103
     5   6 C    3.990 --     6 C    1.446     4 C    1.432    57 H    0.971
                             8 C    0.107
     6   6 C    3.991 --     5 C    1.446     7 C    1.425    58 H    0.970
     7   6 C    3.989 --     8 C    1.438     6 C    1.425    59 H    0.967
                             4 C    0.103
     8   6 C    3.983 --     7 C    1.438     1 C    1.326     9 C    0.990
                             5 C    0.107
     9   6 C    3.966 --     8 C    0.990    38 N    0.957    60 H    0.953
                            10 C    0.953
    10   6 C    3.964 --    11 C    0.991    19 N    0.962     9 C    0.953
                            61 H    0.949
    11   6 C    3.982 --    12 C    1.433    16 C    1.328    10 C    0.991
                            14 C    0.106
    12   6 C    3.989 --    11 C    1.433    13 C    1.429    62 H    0.964
                            15 C    0.103
    13   6 C    3.992 --    14 C    1.441    12 C    1.429    63 H    0.970
    14   6 C    3.990 --    13 C    1.441    15 C    1.436    64 H    0.971
                            11 C    0.106
    15   6 C    3.987 --    14 C    1.436    16 C    1.381    65 H    0.965
                            12 C    0.103
    16   6 C    3.934 --    15 C    1.381    11 C    1.328    17 O    1.055
    17   8 O    2.225 --    16 C    1.055    18 C    0.983
    18   6 C    3.944 --    17 O    0.983    66 H    0.979    68 H    0.976
                            67 H    0.975
    19   7 N    3.489 --    20 C    1.243    34 C    0.978    10 C    0.962
                            33 O    0.186
    20   6 C    3.945 --    33 O    1.622    19 N    1.243    21 C    0.989
    21   6 C    3.977 --    22 C    1.478    32 C    1.259    20 C    0.989
    22   6 C    3.909 --    21 C    1.478    29 O    1.102    23 C    1.087
                            30 C    0.118
    23   6 C    3.988 --    28 C    1.370    24 C    1.368    22 C    1.087
    24   6 C    3.989 --    25 C    1.460    23 C    1.368    69 H    0.969
                            27 C    0.105
    25   6 C    3.992 --    24 C    1.460    26 C    1.429    70 H    0.971
                            28 C    0.105
    26   6 C    3.978 --    27 C    1.431    25 C    1.429    71 H    0.972
    27   6 C    3.992 --    28 C    1.458    26 C    1.431    72 H    0.971
                            24 C    0.105
    28   6 C    3.988 --    27 C    1.458    23 C    1.370    73 H    0.962
                            25 C    0.105
    29   8 O    2.427 --    30 C    1.116    22 C    1.102
    30   6 C    3.904 --    32 C    1.570    29 O    1.116    31 C    1.028
                            22 C    0.118
    31   6 C    3.993 --    30 C    1.028    74 H    0.981    76 H    0.977
                            75 H    0.964
    32   6 C    3.977 --    30 C    1.570    21 C    1.259    77 H    0.974
    33   8 O    2.038 --    20 C    1.622    19 N    0.186
    34   6 C    3.964 --    38 N    0.987    19 N    0.978    78 H    0.939
                            35 C    0.910
    35   6 C    3.924 --    37 O    1.767    36 O    1.132    34 C    0.910
    36   8 O    2.199 --    35 C    1.132    79 H    0.859    37 O    0.168
    37   8 O    2.057 --    35 C    1.767    36 O    0.168
    38   7 N    3.476 --    39 C    1.217    34 C    0.987     9 C    0.957
                            52 O    0.192
    39   6 C    3.947 --    52 O    1.671    38 N    1.217    40 C    0.973
    40   6 C    3.978 --    41 C    1.477    51 C    1.270    39 C    0.973
    41   6 C    3.909 --    40 C    1.477    48 O    1.101    42 C    1.091
                            49 C    0.118
    42   6 C    3.989 --    43 C    1.368    47 C    1.366    41 C    1.091
    43   6 C    3.989 --    44 C    1.459    42 C    1.368    80 H    0.965
                            46 C    0.105
    44   6 C    3.992 --    43 C    1.459    45 C    1.430    81 H    0.971
                            47 C    0.105
    45   6 C    3.977 --    44 C    1.430    46 C    1.429    82 H    0.972
    46   6 C    3.992 --    47 C    1.460    45 C    1.429    83 H    0.971
                            43 C    0.105
    47   6 C    3.990 --    46 C    1.460    42 C    1.366    84 H    0.968
                            44 C    0.105
    48   8 O    2.437 --    49 C    1.128    41 C    1.101
    49   6 C    3.905 --    51 C    1.556    48 O    1.128    50 C    1.030
                            41 C    0.118
    50   6 C    3.992 --    49 C    1.030    87 H    0.984    85 H    0.972
                            86 H    0.964
    51   6 C    3.975 --    49 C    1.556    40 C    1.270    88 H    0.975
    52   8 O    2.004 --    39 C    1.671    38 N    0.192
    53   1 H    0.998 --     3 C    0.977
    54   1 H    0.998 --     3 C    0.976
    55   1 H    0.996 --     3 C    0.979
    56   1 H    0.998 --     4 C    0.965
    57   1 H    0.998 --     5 C    0.971
    58   1 H    0.998 --     6 C    0.970
    59   1 H    0.997 --     7 C    0.967
    60   1 H    0.995 --     9 C    0.953
    61   1 H    0.994 --    10 C    0.949
    62   1 H    0.996 --    12 C    0.964
    63   1 H    0.998 --    13 C    0.970
    64   1 H    0.998 --    14 C    0.971
    65   1 H    0.998 --    15 C    0.965
    66   1 H    0.996 --    18 C    0.979
    67   1 H    0.998 --    18 C    0.975
    68   1 H    0.998 --    18 C    0.976
    69   1 H    0.998 --    24 C    0.969
    70   1 H    0.998 --    25 C    0.971
    71   1 H    0.998 --    26 C    0.972
    72   1 H    0.998 --    27 C    0.971
    73   1 H    0.997 --    28 C    0.962
    74   1 H    0.996 --    31 C    0.981
    75   1 H    0.994 --    31 C    0.964
    76   1 H    0.996 --    31 C    0.977
    77   1 H    0.998 --    32 C    0.974
    78   1 H    0.994 --    34 C    0.939
    79   1 H    0.885 --    36 O    0.859
    80   1 H    0.998 --    43 C    0.965
    81   1 H    0.999 --    44 C    0.971
    82   1 H    0.999 --    45 C    0.972
    83   1 H    0.998 --    46 C    0.971
    84   1 H    0.998 --    47 C    0.968
    85   1 H    0.995 --    50 C    0.972
    86   1 H    0.993 --    50 C    0.964
    87   1 H    0.996 --    50 C    0.984
    88   1 H    0.998 --    51 C    0.975
 ---------------------------------------------------------------------------

molecular dipole:
                 x           y           z       tot (Debye)
 q only:        1.775      -1.628       0.158
   full:        1.959      -1.799      -0.047       6.761

           -------------------------------------------------
          | TOTAL ENERGY             -146.749731883816 Eh   |
          | GRADIENT NORM               0.000765554023 Eh/Î± |
          | HOMO-LUMO GAP               2.872773191349 eV   |
           -------------------------------------------------

 * finished run on 2022/03/16 at 22:51:45.632
