   * xtb version 6.3.3 (4ae9cef) compiled by 'conda@95abc7406d43' on 2020-10-14
          program call               : xtb acid_411.xyz --opt --chrg 0 --uhf 0 --gfn 2
          number of atoms            :                    74
          number of electrons        :                   230
          charge                     :                     0
          spin                       :                   0.0

   ID    Z sym.   atoms
    1    6 C      1-22, 24-29, 31, 32, 34, 35, 39-44, 46, 47
    2    7 N      23, 30, 38, 45
    3    8 O      33, 36, 37, 48
    4    1 H      49-74

          :  Hamiltonian                  GFN2-xTB          :
 * total energy  :  -126.7893851 Eh     change       -0.5056705E-08 Eh
 * total energy  :  -126.8074729 Eh     change       -0.1808779E-01 Eh
 * total energy  :  -126.8133939 Eh     change       -0.5920982E-02 Eh
 * total energy  :  -126.8154735 Eh     change       -0.2079585E-02 Eh
 * total energy  :  -126.8166345 Eh     change       -0.1161004E-02 Eh
 * total energy  :  -126.8180082 Eh     change       -0.1373683E-02 Eh
 * total energy  :  -126.8188324 Eh     change       -0.8242650E-03 Eh
 * total energy  :  -126.8203673 Eh     change       -0.1534837E-02 Eh
 * total energy  :  -126.8213286 Eh     change       -0.9613734E-03 Eh
 * total energy  :  -126.8222044 Eh     change       -0.8757484E-03 Eh
 * total energy  :  -126.8468980 Eh     change       -0.6561175E-05 Eh
 * total energy  :  -126.8469050 Eh     change       -0.6987371E-05 Eh
 * total energy  :  -126.8469138 Eh     change       -0.8826377E-05 Eh
 * total energy  :  -126.8469255 Eh     change       -0.1176176E-04 Eh
 * total energy  :  -126.8469377 Eh     change       -0.1219849E-04 Eh
 * total energy  :  -126.8469476 Eh     change       -0.9894717E-05 Eh
 * total energy  :  -126.8469546 Eh     change       -0.6983308E-05 Eh
 * total energy  :  -126.8469600 Eh     change       -0.5422159E-05 Eh
 * total energy  :  -126.8469648 Eh     change       -0.4792258E-05 Eh
   *** GEOMETRY OPTIMIZATION CONVERGED AFTER 90 ITERATIONS ***

 final structure:
================
74
 xtb: 6.3.3 (4ae9cef)
C        -2.28329777747517   -2.63013405709795   -0.23655452755836
C        -2.94189245523814   -3.32852484077108   -1.20740622128727
C        -3.09131115560127   -2.79718873391803   -2.50545563806914
C        -3.77596029951186   -3.48363085245742   -3.52951515414183
C        -3.90781396291777   -2.92956496783699   -4.77209339812977
C        -3.36186391164168   -1.66562124013030   -5.04862206104232
C        -2.69142606636593   -0.97558182747462   -4.07813949083521
C        -2.53920973871124   -1.52056679103994   -2.78601941553237
C        -1.85725919673669   -0.82669656756642   -1.76694458857603
C        -1.73486792225681   -1.36339574025910   -0.51221057368889
C        -0.99312253883126   -0.63007964658400    0.57838825608440
C         0.54270228116730   -0.69444151939825    0.38548037050781
C         1.23816639332196   -1.03947694501993    1.68172328917146
C         1.88433618532723   -0.10826994133014    2.44971379874382
C         2.50418650327351   -0.47004224800476    3.66437059628939
C         3.17928551067182    0.47331775471931    4.46620330567958
C         3.77086108028311    0.09376742530421    5.63855700265394
C         3.71551612085215   -1.24358217005777    6.06147849292704
C         3.06917016914579   -2.18127107302534    5.30525591198341
C         2.44834483023837   -1.82201539284267    4.09165839462036
C         1.77521565973107   -2.76157817132823    3.28181246361715
C         1.18762730518689   -2.38189607963946    2.11048202516693
N         0.87270879805566    0.62062626293322   -0.11922201662912
C         1.74643096060991    0.94505716138813   -1.09436641769068
C         2.67420442718333   -0.11673072294134   -1.56772141597638
C         3.50512433029961   -0.81368430588452   -0.69515102648493
C         4.38487871783565   -1.75776855646685   -1.18615560465614
C         4.43500966965150   -2.01299922204271   -2.55711343341881
C         5.33389313314773   -2.98464145631547   -3.05830216379545
N         6.06110228340156   -3.77294772722842   -3.46167778760697
C         3.60976764584998   -1.30809594402241   -3.43432174940385
C         2.74130723913820   -0.35736427548582   -2.93760336763513
O         1.75559294239713    2.07656638503049   -1.55395302901861
C        -0.12314898354480    1.60177169330263    0.25890270639221
C        -0.36950031382342    2.59502750645615   -0.90471297246318
O        -0.06247275095557    3.83593336273264   -0.53893376746512
O        -0.92680494713042    2.30380864429581   -1.92772011688997
N        -1.27590757867283    0.79982088431853    0.58454167795263
C        -2.53956183546792    1.23742484341445    0.81577900010539
C        -2.71605742239640    2.72149876384731    0.73517360186477
C        -2.21800602036197    3.55847071484993    1.72782092627591
C        -2.41717537750882    4.92240904080658    1.64834509896548
C        -3.11758307047248    5.45549503799057    0.56588228200149
C        -3.30662570418102    6.85421169628847    0.47064348450922
N        -3.45385450515875    7.98795848877195    0.38934290673355
C        -3.63454767774870    4.61503566231096   -0.42117204593394
C        -3.44047878453435    3.25159204117072   -0.32740862537483
O        -3.44621566284017    0.47648684282748    1.07305770704625
H        -2.18807618688345   -3.03775369283204    0.75966734388825
H        -3.36799401707250   -4.29744579670556   -0.98996490641581
H        -4.19727795765422   -4.45489251382353   -3.31218514116499
H        -4.43564544268041   -3.45942381431968   -5.55157843571511
H        -3.47933188665212   -1.24386579404918   -6.03616417289427
H        -2.27133216070789   -0.00043471760148   -4.27842393685168
H        -1.45497567144274    0.14950802315668   -1.99473042279410
H        -1.28387846216590   -1.04621421233609    1.55082892723158
H         0.79420244388187   -1.44817085760537   -0.36975276439115
H         1.94807465773449    0.92263307547422    2.13124088371816
H         3.22056092867173    1.50179654737207    4.13666071471402
H         4.28589704699219    0.82088780213147    6.24856181061935
H         4.18905512535418   -1.52457436640465    6.99035624555524
H         3.02378745897168   -3.21204995995635    5.62580099526018
H         1.73572893898987   -3.79170399178974    3.60433274113511
H         0.67765923332517   -3.10540976625998    1.49105463566943
H         3.47611319423307   -0.60764515117377    0.36373038073175
H         5.03635624801995   -2.29874943505038   -0.51626029057079
H         3.66126800767885   -1.50601650648568   -4.49433291601488
H         2.10446920507168    0.20619437282382   -3.60210157584408
H         0.21673231834567    2.19632779741103    1.12434117272454
H        -0.16251520944498    4.44311450044975   -1.28894031187793
H        -1.68510430386726    3.14018447802491    2.56930227907510
H        -2.03433846593301    5.58056157858988    2.41391092489515
H        -4.18408299444065    5.03640224149313   -1.24970610667859
H        -3.83481457498698    2.58825096292102   -1.08176176398170

          :  Hamiltonian                  GFN2-xTB          :
         :: total energy            -126.846964840963 Eh    ::
         :: gradient norm              0.000398588912 Eh/a0 ::
         :: HOMO-LUMO gap              2.249726894834 eV    ::
         :: SCC energy              -129.002784839609 Eh    ::
         :: -> dispersion             -0.107455813533 Eh    ::
         :: repulsion energy           2.153338607853 Eh    ::

    * Orbital Energies and Occupations

         #    Occupation            Energy/Eh            Energy/eV
      -------------------------------------------------------------
         1        2.0000           -0.7656292             -20.8338
       ...           ...                  ...                  ...
       103        2.0000           -0.4333045             -11.7908
       104        2.0000           -0.4315577             -11.7433
       105        2.0000           -0.4306561             -11.7187
       106        2.0000           -0.4295445             -11.6885
       107        2.0000           -0.4273752             -11.6295
       108        2.0000           -0.4232218             -11.5165
       109        2.0000           -0.4222480             -11.4900
       110        2.0000           -0.4171302             -11.3507
       111        2.0000           -0.4123778             -11.2214
       112        2.0000           -0.4073928             -11.0857
       113        2.0000           -0.4035346             -10.9807
       114        2.0000           -0.4011954             -10.9171
       115        2.0000           -0.3836659             -10.4401 (HOMO)
       116                         -0.3009899              -8.1904 (LUMO)
       117                         -0.2866815              -7.8010
       118                         -0.2830272              -7.7016
       119                         -0.2658200              -7.2333
       120                         -0.2650273              -7.2118
       121                         -0.2561455              -6.9701
       122                         -0.2546317              -6.9289
       123                         -0.2530480              -6.8858
       124                         -0.2430614              -6.6140
       125                         -0.2343721              -6.3776
       126                         -0.2285245              -6.2185
       ...                                ...                  ...
       218                          1.1637646              31.6676
      -------------------------------------------------------------
                  HL-Gap            0.0826759 Eh            2.2497 eV

     #   Z          covCN         q      C6AA      Î±(0)
     1   6 C        2.919    -0.034    28.847     8.808
     2   6 C        2.917    -0.033    28.826     8.804
     3   6 C        2.987     0.013    27.708     8.635
     4   6 C        2.918    -0.034    28.851     8.808
     5   6 C        2.916    -0.029    28.717     8.787
     6   6 C        2.916    -0.029    28.720     8.788
     7   6 C        2.919    -0.034    28.846     8.807
     8   6 C        2.988     0.016    27.657     8.627
     9   6 C        2.922    -0.045    29.111     8.848
    10   6 C        2.969     0.002    27.985     8.677
    11   6 C        3.825     0.047    19.761     6.326
    12   6 C        3.820     0.038    19.924     6.352
    13   6 C        2.968    -0.005    28.142     8.702
    14   6 C        2.921    -0.042    29.052     8.839
    15   6 C        2.987     0.014    27.690     8.632
    16   6 C        2.918    -0.034    28.852     8.808
    17   6 C        2.916    -0.026    28.660     8.779
    18   6 C        2.916    -0.027    28.668     8.780
    19   6 C        2.918    -0.033    28.813     8.802
    20   6 C        2.987     0.014    27.702     8.634
    21   6 C        2.917    -0.032    28.788     8.798
    22   6 C        2.920    -0.040    28.984     8.828
    23   7 N        2.767    -0.100    23.193     7.153
    24   6 C        2.772     0.272    22.399     7.751
    25   6 C        2.975    -0.004    28.127     8.699
    26   6 C        2.919    -0.027    28.667     8.780
    27   6 C        2.926    -0.018    28.452     8.747
    28   6 C        2.974     0.027    27.400     8.586
    29   6 C        1.912     0.114    28.299     8.591
    30   7 N        0.911    -0.217    25.736     7.337
    31   6 C        2.925    -0.016    28.417     8.742
    32   6 C        2.924    -0.015    28.396     8.739
    33   8 O        0.865    -0.418    22.037     6.294
    34   6 C        3.763     0.097    19.020     6.217
    35   6 C        2.691     0.372    20.689     7.444
    36   8 O        1.660    -0.368    20.237     6.073
    37   8 O        0.856    -0.405    21.785     6.258
    38   7 N        2.765    -0.117    23.546     7.207
    39   6 C        2.764     0.273    22.381     7.748
    40   6 C        2.977    -0.011    28.279     8.723
    41   6 C        2.920    -0.024    28.607     8.771
    42   6 C        2.926    -0.017    28.431     8.744
    43   6 C        2.974     0.022    27.499     8.602
    44   6 C        1.912     0.113    28.319     8.594
    45   7 N        0.911    -0.225    25.909     7.362
    46   6 C        2.926    -0.018    28.451     8.747
    47   6 C        2.922    -0.016    28.399     8.739
    48   8 O        0.859    -0.411    21.910     6.276
    49   1 H        0.926     0.031     2.567     2.506
    50   1 H        0.926     0.038     2.482     2.464
    51   1 H        0.926     0.033     2.543     2.494
    52   1 H        0.926     0.032     2.552     2.498
    53   1 H        0.926     0.033     2.544     2.494
    54   1 H        0.926     0.041     2.435     2.440
    55   1 H        0.926     0.055     2.260     2.351
    56   1 H        0.924     0.064     2.148     2.292
    57   1 H        0.924     0.055     2.263     2.353
    58   1 H        0.926     0.031     2.569     2.506
    59   1 H        0.926     0.035     2.517     2.481
    60   1 H        0.926     0.038     2.480     2.463
    61   1 H        0.926     0.038     2.479     2.462
    62   1 H        0.926     0.038     2.478     2.462
    63   1 H        0.926     0.043     2.414     2.430
    64   1 H        0.926     0.034     2.535     2.490
    65   1 H        0.926     0.047     2.356     2.400
    66   1 H        0.926     0.052     2.290     2.366
    67   1 H        0.926     0.057     2.239     2.340
    68   1 H        0.926     0.063     2.164     2.301
    69   1 H        0.923     0.060     2.196     2.318
    70   1 H        0.804     0.347     0.595     1.212
    71   1 H        0.926     0.040     2.452     2.449
    72   1 H        0.926     0.051     2.301     2.372
    73   1 H        0.926     0.053     2.277     2.360
    74   1 H        0.926     0.059     2.212     2.326

Wiberg/Mayer (AO) data.
largest (>0.10) Wiberg bond orders for each atom

     #   Z sym  total        # sym  WBO       # sym  WBO       # sym  WBO
 ---------------------------------------------------------------------------
     1   6 C    3.990 --     2 C    1.562    10 C    1.295    49 H    0.968
     2   6 C    3.991 --     1 C    1.562     3 C    1.277    50 H    0.968
                             9 C    0.116
     3   6 C    3.990 --     4 C    1.281     2 C    1.277     8 C    1.251
     4   6 C    3.992 --     5 C    1.557     3 C    1.281    51 H    0.968
                             7 C    0.118
     5   6 C    3.990 --     4 C    1.557     6 C    1.320    52 H    0.971
     6   6 C    3.992 --     7 C    1.559     5 C    1.320    53 H    0.971
     7   6 C    3.989 --     6 C    1.559     8 C    1.278    54 H    0.968
                             4 C    0.118
     8   6 C    3.990 --     9 C    1.282     7 C    1.278     3 C    1.251
     9   6 C    3.988 --    10 C    1.526     8 C    1.282    55 H    0.957
                             2 C    0.116
    10   6 C    3.983 --     9 C    1.526     1 C    1.295    11 C    0.985
    11   6 C    3.957 --    10 C    0.985    38 N    0.957    56 H    0.954
                            12 C    0.946
    12   6 C    3.959 --    13 C    0.984    23 N    0.970    57 H    0.952
                            11 C    0.946
    13   6 C    3.984 --    14 C    1.530    22 C    1.287    12 C    0.984
    14   6 C    3.989 --    13 C    1.530    15 C    1.276    58 H    0.964
                            21 C    0.112
    15   6 C    3.990 --    16 C    1.281    14 C    1.276    20 C    1.252
    16   6 C    3.989 --    17 C    1.556    15 C    1.281    59 H    0.968
                            19 C    0.118
    17   6 C    3.992 --    16 C    1.556    18 C    1.322    60 H    0.971
    18   6 C    3.990 --    19 C    1.555    17 C    1.322    61 H    0.971
    19   6 C    3.991 --    18 C    1.555    20 C    1.283    62 H    0.968
                            16 C    0.118
    20   6 C    3.990 --    19 C    1.283    21 C    1.274    15 C    1.252
    21   6 C    3.991 --    22 C    1.569    20 C    1.274    63 H    0.967
                            14 C    0.112
    22   6 C    3.990 --    21 C    1.569    13 C    1.287    64 H    0.969
    23   7 N    3.488 --    24 C    1.239    34 C    0.976    12 C    0.970
                            33 O    0.186
    24   6 C    3.943 --    33 O    1.633    23 N    1.239    25 C    0.979
    25   6 C    3.964 --    26 C    1.392    32 C    1.391    24 C    0.979
    26   6 C    3.990 --    27 C    1.459    25 C    1.392    65 H    0.964
                            31 C    0.105
    27   6 C    3.990 --    26 C    1.459    28 C    1.362    66 H    0.969
                            32 C    0.105
    28   6 C    3.990 --    31 C    1.362    27 C    1.362    29 C    1.091
    29   6 C    3.948 --    30 N    2.812    28 C    1.091
    30   7 N    2.982 --    29 C    2.812
    31   6 C    3.989 --    32 C    1.459    28 C    1.362    67 H    0.968
                            26 C    0.105
    32   6 C    3.988 --    31 C    1.459    25 C    1.391    68 H    0.966
                            27 C    0.105
    33   8 O    2.068 --    24 C    1.633    23 N    0.186
    34   6 C    3.965 --    38 N    0.986    23 N    0.976    69 H    0.941
                            35 C    0.907
    35   6 C    3.924 --    37 O    1.740    36 O    1.145    34 C    0.907
    36   8 O    2.203 --    35 C    1.145    70 H    0.855    37 O    0.165
    37   8 O    2.048 --    35 C    1.740    36 O    0.165
    38   7 N    3.464 --    39 C    1.209    34 C    0.986    11 C    0.957
                            48 O    0.194
    39   6 C    3.949 --    48 O    1.699    38 N    1.209    40 C    0.957
    40   6 C    3.963 --    41 C    1.399    47 C    1.397    39 C    0.957
    41   6 C    3.991 --    42 C    1.458    40 C    1.399    71 H    0.968
                            46 C    0.105
    42   6 C    3.991 --    41 C    1.458    43 C    1.361    72 H    0.969
                            47 C    0.106
    43   6 C    3.990 --    42 C    1.361    46 C    1.361    44 C    1.093
    44   6 C    3.947 --    45 N    2.808    43 C    1.093
    45   7 N    2.980 --    44 C    2.808
    46   6 C    3.990 --    47 C    1.458    43 C    1.361    73 H    0.968
                            41 C    0.105
    47   6 C    3.989 --    46 C    1.458    40 C    1.397    74 H    0.967
                            42 C    0.106
    48   8 O    2.029 --    39 C    1.699    38 N    0.194
    49   1 H    0.999 --     1 C    0.968
    50   1 H    0.998 --     2 C    0.968
    51   1 H    0.998 --     4 C    0.968
    52   1 H    0.998 --     5 C    0.971
    53   1 H    0.998 --     6 C    0.971
    54   1 H    0.998 --     7 C    0.968
    55   1 H    0.997 --     9 C    0.957
    56   1 H    0.995 --    11 C    0.954
    57   1 H    0.995 --    12 C    0.952
    58   1 H    0.999 --    14 C    0.964
    59   1 H    0.998 --    16 C    0.968
    60   1 H    0.998 --    17 C    0.971
    61   1 H    0.998 --    18 C    0.971
    62   1 H    0.998 --    19 C    0.968
    63   1 H    0.997 --    21 C    0.967
    64   1 H    0.998 --    22 C    0.969
    65   1 H    0.997 --    26 C    0.964
    66   1 H    0.997 --    27 C    0.969
    67   1 H    0.996 --    31 C    0.968
    68   1 H    0.995 --    32 C    0.966
    69   1 H    0.995 --    34 C    0.941
    70   1 H    0.879 --    36 O    0.855
    71   1 H    0.997 --    41 C    0.968
    72   1 H    0.997 --    42 C    0.969
    73   1 H    0.997 --    46 C    0.968
    74   1 H    0.995 --    47 C    0.967
 ---------------------------------------------------------------------------

molecular dipole:
                 x           y           z       tot (Debye)
 q only:        0.999      -1.256       1.115
   full:        0.921      -1.232       1.346       5.196

           -------------------------------------------------
          | TOTAL ENERGY             -126.846964840963 Eh   |
          | GRADIENT NORM               0.000398588912 Eh/Î± |
          | HOMO-LUMO GAP               2.249726894834 eV   |
           -------------------------------------------------

 * finished run on 2022/03/17 at 00:52:24.122
