   * xtb version 6.3.3 (4ae9cef) compiled by 'conda@95abc7406d43' on 2020-10-14
          program call               : xtb acid_286.xyz --opt --chrg 0 --uhf 0 --gfn 2
          number of atoms            :                    64
          number of electrons        :                   210
          charge                     :                     0
          spin                       :                   0.0

   ID    Z sym.   atoms
    1    8 O      1, 9, 10, 15, 16, 23, 24, 28
    2    6 C      2-7, 11, 13, 14, 18-21, 25-27, 29-42
    3    7 N      8, 12, 17, 22
    4    1 H      43-64

          :  Hamiltonian                  GFN2-xTB          :
 * total energy  :  -119.5053144 Eh     change       -0.1614794E-08 Eh
 * total energy  :  -119.5228597 Eh     change       -0.1754534E-01 Eh
 * total energy  :  -119.5271627 Eh     change       -0.4303015E-02 Eh
 * total energy  :  -119.5278745 Eh     change       -0.7117486E-03 Eh
 * total energy  :  -119.5286614 Eh     change       -0.7869080E-03 Eh
 * total energy  :  -119.5288971 Eh     change       -0.2357432E-03 Eh
 * total energy  :  -119.5291367 Eh     change       -0.2396051E-03 Eh
 * total energy  :  -119.5293041 Eh     change       -0.1674137E-03 Eh
 * total energy  :  -119.5295175 Eh     change       -0.2134079E-03 Eh
 * total energy  :  -119.5297673 Eh     change       -0.2497872E-03 Eh
 * total energy  :  -119.5339745 Eh     change       -0.1538398E-04 Eh
 * total energy  :  -119.5339641 Eh     change        0.1040688E-04 Eh
 * total energy  :  -119.5339828 Eh     change       -0.1872394E-04 Eh
 * total energy  :  -119.5339953 Eh     change       -0.1252069E-04 Eh
 * total energy  :  -119.5340025 Eh     change       -0.7173833E-05 Eh
 * total energy  :  -119.5340169 Eh     change       -0.1446418E-04 Eh
 * total energy  :  -119.5340168 Eh     change        0.1336918E-06 Eh
 * total energy  :  -119.5340233 Eh     change       -0.6497748E-05 Eh
 * total energy  :  -119.5340264 Eh     change       -0.3145076E-05 Eh
   *** GEOMETRY OPTIMIZATION CONVERGED AFTER 89 ITERATIONS ***

 final structure:
================
64
 xtb: 6.3.3 (4ae9cef)
O         2.58440263814249    2.14323227023180   -0.32180148017424
C         2.45814296458007    0.94253706402074   -0.22445538665762
C         3.43960434061657    0.09074785212792    0.51590611098850
C         4.10244625299861   -0.97024682050917   -0.09662701768691
C         5.04924953524499   -1.69919435723219    0.60677686871560
C         5.33434492915176   -1.38813440545431    1.92372698958294
C         4.66712177375109   -0.32875793171157    2.52613837440076
N         4.94680504532312   -0.00400876587641    3.90571165795961
O         5.88705275661910   -0.55655930111262    4.43213405675298
O         4.21712425127059    0.79511169982851    4.45081015002168
C         3.73277247122953    0.42464417495699    1.83041792477965
N         1.41329282793850    0.27993783609299   -0.78866171440408
C         0.96671101517285   -1.05741368048626   -0.52815707093932
C         1.13475277576361   -1.95304885621198   -1.77078889496182
O         0.07293619413609   -2.71323947726618   -1.98736610167042
O         2.13328819714248   -1.97806989157943   -2.43422087154407
N        -0.42561150239945   -0.89681638123684   -0.15797963726726
C        -0.93357778294370   -1.66237126156729    0.84280206268298
C        -2.33090302574961   -1.32286271074564    1.25277287718583
C        -3.36188041850857   -1.28968146677454    0.32807877728517
C        -4.64075767000635   -0.96141499068145    0.75511851326887
N        -5.70499689958697   -0.89328884460493   -0.21822431883801
O        -6.83329563000012   -0.73582747699574    0.19009858417443
O        -5.39663948907373   -0.98640382627769   -1.38742603545725
C        -4.91070675222945   -0.67883823219186    2.08804197554643
C        -3.88077775700852   -0.74511460834645    3.00810830311534
C        -2.60008830355947   -1.07329137007562    2.59575039991556
O        -0.29254039020110   -2.55563837671644    1.35642158672574
C        -0.92300376630184    0.40868825605024   -0.58576286443805
C        -1.30341507300114    1.27388138564704    0.59155477849020
C        -0.48809907060181    1.34754583243330    1.71440511298630
C        -0.84973130845705    2.13771746049771    2.78993942996842
C        -2.02977006285227    2.86088734101827    2.75455748118810
C        -2.84268487354325    2.79814857035184    1.63600504606554
C        -2.47999095183666    2.01005955439106    0.55868793611427
C         0.27756666290484    0.99985902466109   -1.35934502745599
C         0.28292936917652    0.80522854892854   -2.85922371515037
C         1.23884264535965    1.51608891255517   -3.57929399388457
C         1.35897678455173    1.35068894146836   -4.94557790658924
C         0.52225220700986    0.47200098301522   -5.61362672142268
C        -0.42884873081845   -0.23867492030052   -4.90518461448756
C        -0.54717811825803   -0.07854996291896   -3.53377523538837
H         3.88014108354011   -1.21614561971159   -1.12403006725656
H         5.56278003907941   -2.51554050288691    0.12377683172644
H         6.06002302510275   -1.94708025726755    2.49454591019099
H         3.24778982869850    1.26059826758395    2.31245338533774
H         1.51688607922550   -1.54601426425636    0.29050625968419
H         0.21307510189349   -3.30104888633917   -2.74840079056040
H        -3.19699344231674   -1.53117272126128   -0.71093873149676
H        -5.91688732089622   -0.41915641383783    2.37924481972373
H        -4.07517579729384   -0.54064546261986    4.04903367366502
H        -1.79359429014961   -1.13274162167186    3.31010598605984
H        -1.78881737795292    0.30471458148290   -1.24434024717946
H         0.42967325563664    0.77903497760657    1.75723686241987
H        -0.20804481940419    2.18803436103132    3.65632515929205
H        -2.31316210445454    3.47446184104798    3.59592120060123
H        -3.76192649008946    3.36276633851860    1.60109960007405
H        -3.11454328356742    1.96362842897632   -0.31473876491947
H         0.41096670652725    2.06282495578096   -1.13100910802466
H         1.89237169197055    2.19664902973509   -3.05406078780423
H         2.10619039320440    1.90771642113966   -5.49000968602066
H         0.61240921517286    0.34088569773134   -6.68134595824597
H        -1.08548549538731   -0.92564186483179   -5.41840267617443
H        -1.29379305968485   -0.65568307735409   -3.00944126062674

          :  Hamiltonian                  GFN2-xTB          :
         :: total energy            -119.534026445098 Eh    ::
         :: gradient norm              0.000470483484 Eh/a0 ::
         :: HOMO-LUMO gap              2.141638689065 eV    ::
         :: SCC energy              -121.151222548929 Eh    ::
         :: -> dispersion             -0.094358567485 Eh    ::
         :: repulsion energy           1.614170202992 Eh    ::

    * Orbital Energies and Occupations

         #    Occupation            Energy/Eh            Energy/eV
      -------------------------------------------------------------
         1        2.0000           -0.7863252             -21.3970
       ...           ...                  ...                  ...
        93        2.0000           -0.4526050             -12.3160
        94        2.0000           -0.4515964             -12.2886
        95        2.0000           -0.4488568             -12.2140
        96        2.0000           -0.4454862             -12.1223
        97        2.0000           -0.4406068             -11.9895
        98        2.0000           -0.4350957             -11.8396
        99        2.0000           -0.4320400             -11.7564
       100        2.0000           -0.4293618             -11.6835
       101        2.0000           -0.4268666             -11.6156
       102        2.0000           -0.4251979             -11.5702
       103        2.0000           -0.4234901             -11.5238
       104        2.0000           -0.4199153             -11.4265
       105        2.0000           -0.4143724             -11.2756 (HOMO)
       106                         -0.3356686              -9.1340 (LUMO)
       107                         -0.3282903              -8.9332
       108                         -0.2878586              -7.8330
       109                         -0.2821561              -7.6779
       110                         -0.2747376              -7.4760
       111                         -0.2586204              -7.0374
       112                         -0.2553306              -6.9479
       113                         -0.2521862              -6.8623
       114                         -0.2499801              -6.8023
       115                         -0.2455281              -6.6812
       116                         -0.2414616              -6.5705
       ...                                ...                  ...
       190                          0.6482994              17.6411
      -------------------------------------------------------------
                  HL-Gap            0.0787038 Eh            2.1416 eV

     #   Z          covCN         q      C6AA      Î±(0)
     1   8 O        0.859    -0.408    21.832     6.265
     2   6 C        2.762     0.274    22.361     7.744
     3   6 C        2.976    -0.009    28.245     8.718
     4   6 C        2.920    -0.024    28.607     8.771
     5   6 C        2.920    -0.019    28.481     8.752
     6   6 C        2.918    -0.018    28.459     8.748
     7   6 C        2.916     0.007    27.876     8.658
     8   7 N        2.759     0.548    13.501     5.457
     9   8 O        0.930    -0.379    21.232     6.180
    10   8 O        0.930    -0.382    21.286     6.187
    11   6 C        2.923    -0.015    28.381     8.736
    12   7 N        2.769    -0.110    23.409     7.186
    13   6 C        3.790     0.091    19.080     6.221
    14   6 C        2.688     0.357    20.943     7.489
    15   8 O        1.659    -0.348    19.862     6.016
    16   8 O        0.856    -0.390    21.487     6.215
    17   7 N        2.765    -0.113    23.465     7.194
    18   6 C        2.766     0.274    22.369     7.746
    19   6 C        2.977    -0.002    28.077     8.692
    20   6 C        2.921    -0.022    28.566     8.765
    21   6 C        2.917     0.005    27.900     8.662
    22   7 N        2.760     0.547    13.507     5.458
    23   8 O        0.930    -0.376    21.175     6.171
    24   8 O        0.930    -0.387    21.386     6.202
    25   6 C        2.918    -0.019    28.481     8.751
    26   6 C        2.920    -0.020    28.496     8.754
    27   6 C        2.924    -0.009    28.248     8.716
    28   8 O        0.859    -0.421    22.107     6.304
    29   6 C        3.821     0.029    20.077     6.376
    30   6 C        2.973    -0.007    28.184     8.708
    31   6 C        2.924    -0.030    28.761     8.795
    32   6 C        2.919    -0.026    28.653     8.778
    33   6 C        2.921    -0.028    28.696     8.785
    34   6 C        2.920    -0.027    28.687     8.783
    35   6 C        2.924    -0.039    28.958     8.825
    36   6 C        3.852     0.036    19.936     6.351
    37   6 C        2.972    -0.002    28.072     8.691
    38   6 C        2.927    -0.031    28.765     8.796
    39   6 C        2.919    -0.023    28.586     8.768
    40   6 C        2.920    -0.026    28.655     8.778
    41   6 C        2.920    -0.028    28.708     8.786
    42   6 C        2.922    -0.039    28.976     8.827
    43   1 H        0.926     0.078     1.996     2.209
    44   1 H        0.926     0.064     2.148     2.292
    45   1 H        0.926     0.085     1.925     2.170
    46   1 H        0.926     0.088     1.902     2.157
    47   1 H        0.923     0.091     1.870     2.139
    48   1 H        0.804     0.348     0.594     1.210
    49   1 H        0.926     0.080     1.979     2.200
    50   1 H        0.926     0.086     1.914     2.164
    51   1 H        0.926     0.065     2.137     2.286
    52   1 H        0.926     0.069     2.101     2.267
    53   1 H        0.924     0.063     2.160     2.298
    54   1 H        0.926     0.027     2.633     2.538
    55   1 H        0.926     0.048     2.343     2.394
    56   1 H        0.926     0.045     2.385     2.415
    57   1 H        0.926     0.043     2.404     2.425
    58   1 H        0.926     0.034     2.533     2.489
    59   1 H        0.924     0.086     1.917     2.165
    60   1 H        0.926     0.051     2.307     2.375
    61   1 H        0.926     0.044     2.400     2.423
    62   1 H        0.926     0.041     2.434     2.440
    63   1 H        0.926     0.039     2.467     2.456
    64   1 H        0.926     0.034     2.531     2.488

Wiberg/Mayer (AO) data.
largest (>0.10) Wiberg bond orders for each atom

     #   Z sym  total        # sym  WBO       # sym  WBO       # sym  WBO
 ---------------------------------------------------------------------------
     1   8 O    2.033 --     2 C    1.698    12 N    0.191
     2   6 C    3.948 --     1 O    1.698    12 N    1.201     3 C    0.966
     3   6 C    3.987 --    11 C    1.416     4 C    1.392     2 C    0.966
                             6 C    0.102
     4   6 C    3.985 --     5 C    1.436     3 C    1.392    43 H    0.960
     5   6 C    3.989 --     6 C    1.448     4 C    1.436    44 H    0.967
                            11 C    0.106
     6   6 C    3.984 --     5 C    1.448     7 C    1.383    45 H    0.960
                             3 C    0.102
     7   6 C    3.964 --    11 C    1.389     6 C    1.383     8 N    0.958
     8   7 N    3.913 --     9 O    1.457    10 O    1.455     7 C    0.958
     9   8 O    1.941 --     8 N    1.457    10 O    0.366
    10   8 O    1.939 --     8 N    1.455     9 O    0.366
    11   6 C    3.984 --     3 C    1.416     7 C    1.389    46 H    0.958
                             5 C    0.106
    12   7 N    3.470 --     2 C    1.201    13 C    0.994    36 C    0.951
                             1 O    0.191
    13   6 C    3.969 --    12 N    0.994    17 N    0.977    47 H    0.924
                            14 C    0.915
    14   6 C    3.922 --    16 O    1.768    15 O    1.171    13 C    0.915
    15   8 O    2.236 --    14 C    1.171    48 H    0.853    16 O    0.184
    16   8 O    2.060 --    14 C    1.768    15 O    0.184
    17   7 N    3.464 --    18 C    1.213    13 C    0.977    29 C    0.958
                            28 O    0.191
    18   6 C    3.950 --    28 O    1.688    17 N    1.213    19 C    0.967
    19   6 C    3.988 --    20 C    1.417    27 C    1.393    18 C    0.967
                            25 C    0.102
    20   6 C    3.987 --    19 C    1.417    21 C    1.387    49 H    0.958
                            26 C    0.104
    21   6 C    3.964 --    20 C    1.387    25 C    1.381    22 N    0.960
    22   7 N    3.913 --    23 O    1.460    24 O    1.449    21 C    0.960
    23   8 O    1.944 --    22 N    1.460    24 O    0.364
    24   8 O    1.932 --    22 N    1.449    23 O    0.364
    25   6 C    3.984 --    26 C    1.447    21 C    1.381    50 H    0.960
                            19 C    0.102
    26   6 C    3.989 --    25 C    1.447    27 C    1.438    51 H    0.967
                            20 C    0.104
    27   6 C    3.986 --    26 C    1.438    19 C    1.393    52 H    0.966
    28   8 O    2.021 --    18 C    1.688    17 N    0.191
    29   6 C    3.963 --    30 C    0.989    36 C    0.960    17 N    0.958
                            53 H    0.948
    30   6 C    3.986 --    35 C    1.412    31 C    1.410    29 C    0.989
                            33 C    0.109
    31   6 C    3.992 --    32 C    1.446    30 C    1.410    54 H    0.968
                            34 C    0.111
    32   6 C    3.991 --    31 C    1.446    33 C    1.437    55 H    0.970
                            35 C    0.110
    33   6 C    3.990 --    34 C    1.439    32 C    1.437    56 H    0.970
                            30 C    0.109
    34   6 C    3.991 --    35 C    1.444    33 C    1.439    57 H    0.970
                            31 C    0.111
    35   6 C    3.991 --    34 C    1.444    30 C    1.412    58 H    0.968
                            32 C    0.110
    36   6 C    3.957 --    37 C    0.983    29 C    0.960    12 N    0.951
                            59 H    0.948
    37   6 C    3.983 --    42 C    1.422    38 C    1.403    36 C    0.983
                            40 C    0.109
    38   6 C    3.989 --    39 C    1.454    37 C    1.403    60 H    0.968
                            41 C    0.113
    39   6 C    3.991 --    38 C    1.454    40 C    1.431    61 H    0.970
                            42 C    0.109
    40   6 C    3.991 --    41 C    1.447    39 C    1.431    62 H    0.971
                            37 C    0.109
    41   6 C    3.992 --    40 C    1.447    42 C    1.434    63 H    0.971
                            38 C    0.113
    42   6 C    3.991 --    41 C    1.434    37 C    1.422    64 H    0.963
                            39 C    0.109
    43   1 H    0.994 --     4 C    0.960
    44   1 H    0.995 --     5 C    0.967
    45   1 H    0.992 --     6 C    0.960
    46   1 H    0.992 --    11 C    0.958
    47   1 H    0.991 --    13 C    0.924
    48   1 H    0.878 --    15 O    0.853
    49   1 H    0.994 --    20 C    0.958
    50   1 H    0.992 --    25 C    0.960
    51   1 H    0.995 --    26 C    0.967
    52   1 H    0.995 --    27 C    0.966
    53   1 H    0.995 --    29 C    0.948
    54   1 H    0.999 --    31 C    0.968
    55   1 H    0.997 --    32 C    0.970
    56   1 H    0.997 --    33 C    0.970
    57   1 H    0.998 --    34 C    0.970
    58   1 H    0.999 --    35 C    0.968
    59   1 H    0.992 --    36 C    0.948
    60   1 H    0.997 --    38 C    0.968
    61   1 H    0.998 --    39 C    0.970
    62   1 H    0.998 --    40 C    0.971
    63   1 H    0.998 --    41 C    0.971
    64   1 H    0.999 --    42 C    0.963
 ---------------------------------------------------------------------------

molecular dipole:
                 x           y           z       tot (Debye)
 q only:       -0.512      -0.371      -1.203
   full:       -0.545      -0.593      -1.207       3.689

           -------------------------------------------------
          | TOTAL ENERGY             -119.534026445098 Eh   |
          | GRADIENT NORM               0.000470483484 Eh/Î± |
          | HOMO-LUMO GAP               2.141638689065 eV   |
           -------------------------------------------------

 * finished run on 2022/03/16 at 23:24:04.739
