   * xtb version 6.3.3 (4ae9cef) compiled by 'conda@95abc7406d43' on 2020-10-14
          program call               : xtb acid_226.xyz --opt --chrg 0 --uhf 0 --gfn 2
          number of atoms            :                    72
          number of electrons        :                   238
          charge                     :                     0
          spin                       :                   0.0

   ID    Z sym.   atoms
    1    6 C      1, 2, 6-15, 19-22, 24-31, 33, 34, 38-45
    2    9 F      3-5, 16-18
    3    7 N      23, 37
    4    8 O      32, 35, 36, 46
    5    1 H      47-72

          :  Hamiltonian                  GFN2-xTB          :
 * total energy  :  -136.5909413 Eh     change       -0.1262720E-08 Eh
 * total energy  :  -136.6091024 Eh     change       -0.1816108E-01 Eh
 * total energy  :  -136.6157269 Eh     change       -0.6624571E-02 Eh
 * total energy  :  -136.6183845 Eh     change       -0.2657537E-02 Eh
 * total energy  :  -136.6202462 Eh     change       -0.1861752E-02 Eh
 * total energy  :  -136.6217161 Eh     change       -0.1469866E-02 Eh
 * total energy  :  -136.6228480 Eh     change       -0.1131951E-02 Eh
 * total energy  :  -136.6235044 Eh     change       -0.6563724E-03 Eh
 * total energy  :  -136.6238905 Eh     change       -0.3860928E-03 Eh
 * total energy  :  -136.6241676 Eh     change       -0.2770717E-03 Eh
 * total energy  :  -136.6258720 Eh     change       -0.6805053E-05 Eh
 * total energy  :  -136.6258801 Eh     change       -0.8078281E-05 Eh
 * total energy  :  -136.6258899 Eh     change       -0.9814621E-05 Eh
 * total energy  :  -136.6259007 Eh     change       -0.1077179E-04 Eh
 * total energy  :  -136.6259135 Eh     change       -0.1282097E-04 Eh
 * total energy  :  -136.6259271 Eh     change       -0.1356743E-04 Eh
 * total energy  :  -136.6259398 Eh     change       -0.1267768E-04 Eh
 * total energy  :  -136.6259516 Eh     change       -0.1177990E-04 Eh
 * total energy  :  -136.6259519 Eh     change       -0.3768768E-06 Eh
   *** GEOMETRY OPTIMIZATION CONVERGED AFTER 44 ITERATIONS ***

 final structure:
================
72
 xtb: 6.3.3 (4ae9cef)
C        -2.56093568042555   -2.23757048450733   -0.32247931088011
C        -2.85090233351329   -1.75976432682146   -1.72446829788543
F        -3.56689399884481   -2.65124832108359   -2.42728843297458
F        -1.75865298381584   -1.52515525062282   -2.46436999177923
F        -3.58045318163773   -0.62841729670210   -1.73707005814337
C        -3.28843851567100   -3.34728370511025    0.10291886813754
C        -3.13820169818449   -3.85607124871592    1.37733536460899
C        -2.25829617435370   -3.24243342835507    2.25009042128683
C        -1.54683883283746   -2.13425724390730    1.83635917321601
C        -1.67001909010488   -1.60298063062213    0.55247885794001
C        -0.77763327769702   -0.42655490679987    0.24675925869244
C         0.52444950785975   -0.83710266552719   -0.49606884103797
C         1.64407351493998   -1.49917831633605    0.26216758900297
C         2.55523557472179   -2.30899584839249   -0.42804188571607
C         2.34004631877381   -2.67843697572694   -1.87226296938942
F         3.36017597388095   -3.37968095738403   -2.38532570498346
F         2.15674037388904   -1.64432788296227   -2.70338327466046
F         1.24891648609690   -3.46828602010692   -2.01585495941839
C         3.65264214480192   -2.86013743033858    0.22082127772791
C         3.86203107291222   -2.61715125580571    1.56485450888342
C         2.95872696224325   -1.83849641487182    2.26287514215589
C         1.86543513081503   -1.28922626170025    1.61726616218025
N         0.95912755890955    0.40882575232821   -1.14102780038522
C         1.76438415764712    1.28486152468400   -0.35955998072895
C         2.79790399301477    1.99827280826694   -1.19136178593421
C         3.95941560187195    1.03222155203832   -1.19711398323307
C         4.66083401691676    0.78603498554374   -0.02276173094109
C         5.68868489328917   -0.13825401265679   -0.00233916244051
C         6.02564772880341   -0.82786228720216   -1.15531399326087
C         5.33286510001529   -0.58452739547570   -2.32849121948096
C         4.30109630855628    0.33827920614131   -2.34899280635483
O         1.75791631352812    1.27543560181643    0.84285828005861
C        -0.27284342032587    0.94648177705553   -1.67137652284431
C        -0.23490126965385    2.47301420849037   -1.83994585626923
O        -0.51581575422517    2.83416966292555   -3.08555476367601
O         0.20399286199670    3.21154199912421   -0.99598872159482
N        -1.28699201706378    0.58832165976553   -0.65755870082521
C        -2.24512062579707    1.50881441828667   -0.39831706209280
C        -3.10780347657252    1.26738229939037    0.82346485354991
C        -3.99025338970556    2.45707239483787    1.07975917014024
C        -5.35247830781660    2.40676217690299    0.82612417276002
C        -6.14643565695537    3.51917788670132    1.04596204523723
C        -5.58284470662667    4.69288791707539    1.51474749280710
C        -4.22145335204814    4.75175424778527    1.76119683247552
C        -3.42916757858272    3.63929977171732    1.54548726260435
O        -2.36921743445501    2.46217981101832   -1.14459772607552
H        -3.97868733430186   -3.81935694657342   -0.57826661450088
H        -3.70782187458314   -4.71918243533672    1.68257621584650
H        -2.12942840913754   -3.61924052203000    3.25285512071075
H        -0.87208875459073   -1.66040735272187    2.53205159430509
H        -0.50702965994715    0.05264190465097    1.19655195269816
H         0.21811753449152   -1.49131179233913   -1.31726345023234
H         4.34370601554395   -3.47742264242044   -0.33078043561164
H         4.72285798039830   -3.03872010881656    2.05935347889908
H         3.10660523208095   -1.64503770625154    3.31425747386813
H         1.20045684482901   -0.65872228751394    2.18114184484295
H         2.44101948123259    2.17513576214169   -2.20298442783552
H         3.06612832977235    2.93618481123616   -0.70647510775864
H         4.38632110298619    1.31386518910539    0.87820266703751
H         6.22706334228310   -0.32187102702747    0.91587088520076
H         6.82715894544606   -1.55154003613072   -1.13983547399179
H         5.59000646747042   -1.12009196008263   -3.23007961487701
H         3.75570934717162    0.51635239821343   -3.26327538290015
H        -0.51240026621398    0.48084271677635   -2.63490648036166
H        -0.55015807321307    3.80124799600146   -3.15518576945439
H        -2.44818207497288    1.09576924424343    1.67881581087521
H        -3.70448908985628    0.36742227502574    0.66452313569372
H        -5.79346575532445    1.49466699725226    0.44968730752480
H        -7.20682746566066    3.47005567575159    0.84570893117300
H        -6.20198385640803    5.56187348602979    1.68289245875529
H        -3.77515709447789    5.66776447404483    2.11955480130553
H        -2.36518275359474    3.68969279261265    1.72663188831581

          :  Hamiltonian                  GFN2-xTB          :
         :: total energy            -136.625951927554 Eh    ::
         :: gradient norm              0.000347749324 Eh/a0 ::
         :: HOMO-LUMO gap              3.095588093123 eV    ::
         :: SCC energy              -138.326916148659 Eh    ::
         :: -> dispersion             -0.106294509925 Eh    ::
         :: repulsion energy           1.696804647377 Eh    ::

    * Orbital Energies and Occupations

         #    Occupation            Energy/Eh            Energy/eV
      -------------------------------------------------------------
         1        2.0000           -0.8846621             -24.0729
       ...           ...                  ...                  ...
       107        2.0000           -0.4363819             -11.8746
       108        2.0000           -0.4334809             -11.7956
       109        2.0000           -0.4264612             -11.6046
       110        2.0000           -0.4240084             -11.5379
       111        2.0000           -0.4200684             -11.4306
       112        2.0000           -0.4175800             -11.3629
       113        2.0000           -0.4142247             -11.2716
       114        2.0000           -0.4085864             -11.1182
       115        2.0000           -0.4081422             -11.1061
       116        2.0000           -0.4048476             -11.0165
       117        2.0000           -0.3986839             -10.8487
       118        2.0000           -0.3965626             -10.7910
       119        2.0000           -0.3929262             -10.6921 (HOMO)
       120                         -0.2791654              -7.5965 (LUMO)
       121                         -0.2731059              -7.4316
       122                         -0.2691048              -7.3227
       123                         -0.2635419              -7.1713
       124                         -0.2568966              -6.9905
       125                         -0.2409595              -6.5568
       126                         -0.2267399              -6.1699
       127                         -0.2218105              -6.0358
       128                         -0.2182859              -5.9399
       129                         -0.2171149              -5.9080
       130                         -0.2145671              -5.8387
       ...                                ...                  ...
       210                          0.6714924              18.2722
      -------------------------------------------------------------
                  HL-Gap            0.1137608 Eh            3.0956 eV

     #   Z          covCN         q      C6AA      Î±(0)
     1   6 C        2.973    -0.031    28.762     8.797
     2   6 C        3.336     0.488    17.256     6.578
     3   9 F        0.793    -0.204    11.272     3.966
     4   9 F        0.791    -0.206    11.298     3.970
     5   9 F        0.791    -0.209    11.327     3.976
     6   6 C        2.927    -0.024    28.595     8.769
     7   6 C        2.919    -0.024    28.592     8.769
     8   6 C        2.918    -0.020    28.499     8.754
     9   6 C        2.933    -0.034    28.854     8.809
    10   6 C        2.964     0.006    27.875     8.660
    11   6 C        3.814     0.039    19.903     6.350
    12   6 C        3.882     0.050    19.691     6.309
    13   6 C        2.966     0.013    27.719     8.636
    14   6 C        2.979    -0.033    28.821     8.806
    15   6 C        3.336     0.484    17.322     6.592
    16   9 F        0.792    -0.202    11.252     3.962
    17   9 F        0.791    -0.201    11.244     3.961
    18   9 F        0.791    -0.217    11.412     3.990
    19   6 C        2.923    -0.024    28.591     8.769
    20   6 C        2.919    -0.023    28.574     8.766
    21   6 C        2.919    -0.020    28.508     8.756
    22   6 C        2.925    -0.021    28.533     8.760
    23   7 N        2.750    -0.191    25.129     7.445
    24   6 C        2.783     0.306    21.799     7.648
    25   6 C        3.813    -0.088    22.166     6.701
    26   6 C        2.995     0.018    27.607     8.619
    27   6 C        2.924    -0.039    28.970     8.827
    28   6 C        2.919    -0.033    28.813     8.802
    29   6 C        2.920    -0.034    28.858     8.809
    30   6 C        2.920    -0.030    28.743     8.792
    31   6 C        2.923    -0.037    28.912     8.818
    32   8 O        0.857    -0.378    21.243     6.179
    33   6 C        3.817     0.099    18.939     6.194
    34   6 C        2.697     0.376    20.636     7.435
    35   8 O        1.660    -0.358    20.052     6.045
    36   8 O        0.856    -0.415    21.991     6.287
    37   7 N        2.766    -0.134    23.908     7.262
    38   6 C        2.764     0.285    22.172     7.711
    39   6 C        3.811    -0.081    22.037     6.682
    40   6 C        2.974     0.023    27.483     8.599
    41   6 C        2.924    -0.034    28.839     8.807
    42   6 C        2.920    -0.028    28.711     8.787
    43   6 C        2.920    -0.031    28.765     8.795
    44   6 C        2.920    -0.027    28.678     8.782
    45   6 C        2.925    -0.029    28.719     8.788
    46   8 O        0.869    -0.407    21.812     6.262
    47   1 H        0.926     0.071     2.071     2.251
    48   1 H        0.926     0.059     2.206     2.323
    49   1 H        0.926     0.057     2.230     2.335
    50   1 H        0.926     0.052     2.297     2.370
    51   1 H        0.924     0.063     2.159     2.298
    52   1 H        0.924     0.068     2.104     2.268
    53   1 H        0.926     0.067     2.120     2.277
    54   1 H        0.926     0.058     2.225     2.333
    55   1 H        0.926     0.059     2.212     2.326
    56   1 H        0.926     0.071     2.078     2.254
    57   1 H        0.925     0.058     2.218     2.329
    58   1 H        0.925     0.083     1.952     2.185
    59   1 H        0.926     0.046     2.370     2.408
    60   1 H        0.926     0.032     2.564     2.504
    61   1 H        0.926     0.034     2.536     2.490
    62   1 H        0.926     0.041     2.439     2.442
    63   1 H        0.926     0.045     2.384     2.414
    64   1 H        0.924     0.084     1.942     2.179
    65   1 H        0.804     0.347     0.595     1.211
    66   1 H        0.924     0.055     2.260     2.351
    67   1 H        0.924     0.059     2.212     2.326
    68   1 H        0.926     0.031     2.570     2.507
    69   1 H        0.926     0.033     2.550     2.497
    70   1 H        0.926     0.032     2.557     2.501
    71   1 H        0.926     0.035     2.521     2.483
    72   1 H        0.926     0.037     2.483     2.464

Wiberg/Mayer (AO) data.
largest (>0.10) Wiberg bond orders for each atom

     #   Z sym  total        # sym  WBO       # sym  WBO       # sym  WBO
 ---------------------------------------------------------------------------
     1   6 C    3.971 --     6 C    1.411    10 C    1.385     2 C    0.948
                             8 C    0.105
     2   6 C    3.823 --     3 F    0.951     1 C    0.948     4 F    0.946
                             5 F    0.940
     3   9 F    1.074 --     2 C    0.951
     4   9 F    1.078 --     2 C    0.946
     5   9 F    1.071 --     2 C    0.940
     6   6 C    3.987 --     7 C    1.446     1 C    1.411    47 H    0.965
                             9 C    0.109
     7   6 C    3.987 --     6 C    1.446     8 C    1.429    48 H    0.968
                            10 C    0.108
     8   6 C    3.989 --     9 C    1.453     7 C    1.429    49 H    0.968
                             1 C    0.105
     9   6 C    3.989 --     8 C    1.453    10 C    1.401    50 H    0.963
                             6 C    0.109
    10   6 C    3.986 --     9 C    1.401     1 C    1.385    11 C    1.000
                             7 C    0.108
    11   6 C    3.969 --    10 C    1.000    37 N    0.973    51 H    0.941
                            12 C    0.938
    12   6 C    3.973 --    13 C    1.001    23 N    0.960    52 H    0.950
                            11 C    0.938
    13   6 C    3.986 --    22 C    1.418    14 C    1.378    12 C    1.001
                            20 C    0.109
    14   6 C    3.971 --    19 C    1.420    13 C    1.378    15 C    0.950
                            21 C    0.106
    15   6 C    3.824 --    16 F    0.954    17 F    0.952    14 C    0.950
                            18 F    0.930
    16   9 F    1.077 --    15 C    0.954
    17   9 F    1.081 --    15 C    0.952
    18   9 F    1.060 --    15 C    0.930
    19   6 C    3.987 --    20 C    1.436    14 C    1.420    53 H    0.965
                            22 C    0.108
    20   6 C    3.988 --    21 C    1.441    19 C    1.436    54 H    0.969
                            13 C    0.109
    21   6 C    3.990 --    20 C    1.441    22 C    1.436    55 H    0.969
                            14 C    0.106
    22   6 C    3.986 --    21 C    1.436    13 C    1.418    56 H    0.957
                            19 C    0.108
    23   7 N    3.231 --    24 C    1.027    33 C    0.983    12 C    0.960
                            32 O    0.107
    24   6 C    3.925 --    32 O    1.802    23 N    1.027    25 C    0.971
    25   6 C    3.991 --    24 C    0.971    26 C    0.971    57 H    0.970
                            58 H    0.957
    26   6 C    3.984 --    31 C    1.412    27 C    1.404    25 C    0.971
                            29 C    0.107
    27   6 C    3.991 --    28 C    1.450    26 C    1.404    59 H    0.968
                            30 C    0.111
    28   6 C    3.992 --    27 C    1.450    29 C    1.434    60 H    0.971
                            31 C    0.110
    29   6 C    3.992 --    30 C    1.441    28 C    1.434    61 H    0.971
                            26 C    0.107
    30   6 C    3.992 --    31 C    1.441    29 C    1.441    62 H    0.970
                            27 C    0.111
    31   6 C    3.991 --    30 C    1.441    26 C    1.412    63 H    0.968
                            28 C    0.110
    32   8 O    2.075 --    24 C    1.802    23 N    0.107
    33   6 C    3.956 --    23 N    0.983    64 H    0.949    37 N    0.938
                            34 C    0.924
    34   6 C    3.926 --    36 O    1.720    35 O    1.152    33 C    0.924
    35   8 O    2.211 --    34 C    1.152    65 H    0.855    36 O    0.163
    36   8 O    2.042 --    34 C    1.720    35 O    0.163
    37   7 N    3.447 --    38 C    1.230    11 C    0.973    33 C    0.938
                            46 O    0.176
    38   6 C    3.941 --    46 O    1.657    37 N    1.230    39 C    0.963
    39   6 C    3.995 --    40 C    1.006    38 C    0.963    67 H    0.953
                            66 H    0.949
    40   6 C    3.986 --    41 C    1.420    45 C    1.411    39 C    1.006
                            43 C    0.110
    41   6 C    3.991 --    42 C    1.440    40 C    1.420    68 H    0.969
                            44 C    0.111
    42   6 C    3.992 --    43 C    1.442    41 C    1.440    69 H    0.971
                            45 C    0.113
    43   6 C    3.992 --    42 C    1.442    44 C    1.436    70 H    0.971
                            40 C    0.110
    44   6 C    3.992 --    45 C    1.449    43 C    1.436    71 H    0.971
                            41 C    0.111
    45   6 C    3.992 --    44 C    1.449    40 C    1.411    72 H    0.970
                            42 C    0.113
    46   8 O    2.091 --    38 C    1.657    37 N    0.176
    47   1 H    0.995 --     6 C    0.965
    48   1 H    0.996 --     7 C    0.968
    49   1 H    0.996 --     8 C    0.968
    50   1 H    0.997 --     9 C    0.963
    51   1 H    0.996 --    11 C    0.941
    52   1 H    0.995 --    12 C    0.950
    53   1 H    0.995 --    19 C    0.965
    54   1 H    0.996 --    20 C    0.969
    55   1 H    0.996 --    21 C    0.969
    56   1 H    0.995 --    22 C    0.957
    57   1 H    0.996 --    25 C    0.970
    58   1 H    0.993 --    25 C    0.957
    59   1 H    0.998 --    27 C    0.968
    60   1 H    0.999 --    28 C    0.971
    61   1 H    0.998 --    29 C    0.971
    62   1 H    0.998 --    30 C    0.970
    63   1 H    0.998 --    31 C    0.968
    64   1 H    0.993 --    33 C    0.949
    65   1 H    0.879 --    35 O    0.855
    66   1 H    0.997 --    39 C    0.949
    67   1 H    0.996 --    39 C    0.953
    68   1 H    0.999 --    41 C    0.969
    69   1 H    0.999 --    42 C    0.971
    70   1 H    0.998 --    43 C    0.971
    71   1 H    0.999 --    44 C    0.971
    72   1 H    0.999 --    45 C    0.970
 ---------------------------------------------------------------------------

molecular dipole:
                 x           y           z       tot (Debye)
 q only:        0.606      -1.479       2.248
   full:        0.434      -1.458       2.183       6.763

           -------------------------------------------------
          | TOTAL ENERGY             -136.625951927554 Eh   |
          | GRADIENT NORM               0.000347749324 Eh/Î± |
          | HOMO-LUMO GAP               3.095588093123 eV   |
           -------------------------------------------------

 * finished run on 2022/03/16 at 22:43:08.289
