   * xtb version 6.3.3 (4ae9cef) compiled by 'conda@95abc7406d43' on 2020-10-14
          program call               : xtb acid_377.xyz --opt --chrg 0 --uhf 0 --gfn 2
          number of atoms            :                    96
          number of electrons        :                   262
          charge                     :                     0
          spin                       :                   0.0

   ID    Z sym.   atoms
    1    6 C      1-22, 24-34, 36, 37, 41-51
    2    7 N      23, 40
    3    8 O      35, 38, 39, 52
    4    1 H      53-96

          :  Hamiltonian                  GFN2-xTB          :
 * total energy  :  -143.0639685 Eh     change       -0.5886164E-08 Eh
 * total energy  :  -143.0853167 Eh     change       -0.2134823E-01 Eh
 * total energy  :  -143.0914675 Eh     change       -0.6150749E-02 Eh
 * total energy  :  -143.0937251 Eh     change       -0.2257601E-02 Eh
 * total energy  :  -143.0958969 Eh     change       -0.2171770E-02 Eh
 * total energy  :  -143.0972118 Eh     change       -0.1314980E-02 Eh
 * total energy  :  -143.0982100 Eh     change       -0.9981644E-03 Eh
 * total energy  :  -143.0991657 Eh     change       -0.9557238E-03 Eh
 * total energy  :  -143.1001045 Eh     change       -0.9387919E-03 Eh
 * total energy  :  -143.1008711 Eh     change       -0.7665716E-03 Eh
 * total energy  :  -143.1271582 Eh     change       -0.9607676E-05 Eh
 * total energy  :  -143.1271704 Eh     change       -0.1215903E-04 Eh
 * total energy  :  -143.1271848 Eh     change       -0.1446752E-04 Eh
 * total energy  :  -143.1271981 Eh     change       -0.1327191E-04 Eh
 * total energy  :  -143.1272104 Eh     change       -0.1231454E-04 Eh
 * total energy  :  -143.1272207 Eh     change       -0.1026663E-04 Eh
 * total energy  :  -143.1272281 Eh     change       -0.7416809E-05 Eh
 * total energy  :  -143.1272332 Eh     change       -0.5123670E-05 Eh
 * total energy  :  -143.1272375 Eh     change       -0.4230526E-05 Eh
   *** GEOMETRY OPTIMIZATION CONVERGED AFTER 135 ITERATIONS ***

 final structure:
================
96
 xtb: 6.3.3 (4ae9cef)
C        -2.65674662556122    2.92804240192520    0.80228322573238
C        -3.72147806591630    3.68691647541524    1.19013568312871
C        -4.03489627358972    4.88861451845690    0.52092516841006
C        -5.12456197482259    5.69861102267761    0.90017914695266
C        -5.39642614724000    6.85964359200921    0.23191479511658
C        -4.59100236811425    7.26331659665376   -0.84451821854562
C        -3.52800713460839    6.49904245222050   -1.23673976900069
C        -3.22256686730946    5.29491346118791   -0.56922079687929
C        -2.13713010768816    4.48257714721272   -0.95347746178003
C        -1.85536310628759    3.32030987963390   -0.28807479679252
C        -0.66732698585638    2.48740332709707   -0.67283695138990
C         0.43456041547086    2.50294183637056    0.42053208647838
C         1.53626192492013    3.47089004341181    0.07320015273803
C         2.71778797891430    3.07093856961441   -0.48921417440699
C         3.71603711465611    4.01083469942734   -0.81817680123782
C         4.94426896017251    3.61816352439145   -1.38899938074574
C         5.89729778950734    4.54799464558062   -1.69747909401355
C         5.66584155142580    5.91037593231657   -1.45035341039337
C         4.48389372688403    6.32181897801776   -0.90053997493182
C         3.48044854563940    5.38777492476941   -0.57126110164698
C         2.24827884710869    5.77211436418759   -0.00123890872073
C         1.30356461347615    4.83988913909164    0.31523987637969
N         0.86230387147088    1.11426576742304    0.51064238238595
C         1.66764781947888    0.68816074269566    1.52440521293228
C         2.03530139138567   -0.75836540261419    1.46316995359534
C         3.32037068853178   -1.10785431616700    1.07860614285674
C         3.69700962815107   -2.43742164583983    1.01819095882101
C         2.81025300817426   -3.45542669078604    1.34716485303066
C         3.18673478971460   -4.92774497766750    1.29250875917093
C         3.04724377324058   -5.53195918885788    2.69689164513123
C         4.62415149631592   -5.15156194098942    0.81607031655575
C         2.24242354724319   -5.64865870100595    0.32046753453906
C         1.52830590408317   -3.08854606839934    1.75078804157079
C         1.14186400230155   -1.76364681508160    1.81148599645748
O         2.06207356622058    1.45064064654507    2.37861680012303
C         0.20961505042694    0.31611281309948   -0.49134580143250
C         1.11173875825573    0.13054758941416   -1.74956741228737
O         0.47578640358516    0.16464880004435   -2.91793921027999
O         2.28708033020910   -0.06201473401946   -1.66139249084859
N        -0.98071797812866    1.06571160096188   -0.79582522976960
C        -2.16919703481158    0.57444223955960   -1.26035109849094
C        -2.37493765540225   -0.88303753139237   -1.01321110512252
C        -2.66784910615450   -1.74895101648895   -2.05583605522734
C        -2.91059412608879   -3.08880391992031   -1.80675620649642
C        -2.88608947764605   -3.59958414831821   -0.51437258088856
C        -3.15304166252380   -5.06129002832802   -0.19593812403107
C        -1.92059906141103   -5.64764455227559    0.50674669935825
C        -3.43188762047373   -5.89728959459932   -1.44757330069354
C        -4.37664006287964   -5.15569907865702    0.72673549291612
C        -2.61240351775613   -2.71285380108011    0.52609837519856
C        -2.35994636494993   -1.37803009653662    0.28735080480431
O        -2.98631388771005    1.27752179260246   -1.81626942213123
H        -2.42425249266799    2.01066545322493    1.32456349501737
H        -4.34023525608299    3.37749293279198    2.02023792633266
H        -5.74162901810050    5.38364914517663    1.72967590887540
H        -6.23337719675585    7.47556224770258    0.52680162918262
H        -4.82042166545509    8.18412770664293   -1.36052001624666
H        -2.90574809854045    6.80483415420932   -2.06560753913359
H        -1.52533136469189    4.79397223827769   -1.78861143596922
H        -0.24478347203971    2.86038808047832   -1.61785235718022
H         0.00921068783905    2.79461371631647    1.39009708648403
H         2.91537031829673    2.02710446965941   -0.68329519324789
H         5.11379194056694    2.56774575241496   -1.57668474530941
H         6.83722177166737    4.24208008589743   -2.13336892023530
H         6.43132502775393    6.63093035086374   -1.69932259068168
H         4.30090268061979    7.36965916496486   -0.70837527503521
H         2.06665988477076    6.82034617374388    0.18823808180449
H         0.36367191626461    5.13957932747210    0.75665505086528
H         4.02531960699117   -0.33325529587714    0.82024957491838
H         4.70308306527232   -2.66445877041393    0.70787134215550
H         3.69963011703110   -5.01253307299119    3.39546855125827
H         3.32524189881078   -6.58359950913893    2.68074344927940
H         2.02703708819833   -5.45547724090380    3.06277469183179
H         4.77030245881925   -4.75437177100509   -0.18557901647115
H         4.83393335310135   -6.21895351836499    0.78846831512256
H         5.33769625094980   -4.68764646026977    1.49276610276795
H         1.21193888525255   -5.59404001905855    0.65914687998611
H         2.30459389414571   -5.19770398618299   -0.66795604766329
H         2.51796499004225   -6.69796611922834    0.23967731097254
H         0.81015692846208   -3.84573431459076    2.02785117028541
H         0.14606239343105   -1.51199529066127    2.15069585079283
H        -0.00897067478385   -0.69581024559189   -0.12626762201186
H        -0.46404679227530    0.39644887266455   -2.83529185837655
H        -2.70843098022028   -1.37167188188710   -3.06722684028142
H        -3.12748551494903   -3.72891107439787   -2.64548392657238
H        -1.04841874443993   -5.56164563528072   -0.13847988096946
H        -2.08241816120103   -6.69981538272429    0.73009446891454
H        -1.71219032029369   -5.13129437624322    1.44003012461584
H        -4.31624117189493   -5.53904846846237   -1.96908431645700
H        -2.58322181982747   -5.88118894241889   -2.12748308575169
H        -3.60983312001951   -6.93087329802760   -1.15865392107778
H        -4.59667076835195   -6.19767404632889    0.94766334013479
H        -5.24605698870475   -4.71412134509668    0.24451458826409
H        -4.20894915639737   -4.63773339159521    1.66686356877666
H        -2.60054851754234   -3.06270825635263    1.54701501603130
H        -2.17427614697973   -0.70776343430446    1.11514283790838

          :  Hamiltonian                  GFN2-xTB          :
         :: total energy            -143.127237470887 Eh    ::
         :: gradient norm              0.000390924849 Eh/a0 ::
         :: HOMO-LUMO gap              3.033957258413 eV    ::
         :: SCC energy              -145.447974205926 Eh    ::
         :: -> dispersion             -0.129841024823 Eh    ::
         :: repulsion energy           2.317805377860 Eh    ::

    * Orbital Energies and Occupations

         #    Occupation            Energy/Eh            Energy/eV
      -------------------------------------------------------------
         1        2.0000           -0.7722269             -21.0134
       ...           ...                  ...                  ...
       119        2.0000           -0.4179213             -11.3722
       120        2.0000           -0.4172952             -11.3552
       121        2.0000           -0.4159038             -11.3173
       122        2.0000           -0.4120321             -11.2120
       123        2.0000           -0.4112508             -11.1907
       124        2.0000           -0.4083130             -11.1108
       125        2.0000           -0.4029826             -10.9657
       126        2.0000           -0.4008944             -10.9089
       127        2.0000           -0.3962454             -10.7824
       128        2.0000           -0.3953665             -10.7585
       129        2.0000           -0.3901668             -10.6170
       130        2.0000           -0.3827223             -10.4144
       131        2.0000           -0.3761619             -10.2359 (HOMO)
       132                         -0.2646661              -7.2019 (LUMO)
       133                         -0.2628830              -7.1534
       134                         -0.2611574              -7.1065
       135                         -0.2570576              -6.9949
       136                         -0.2431533              -6.6165
       137                         -0.2357210              -6.4143
       138                         -0.2337688              -6.3612
       139                         -0.2267968              -6.1715
       140                         -0.2265215              -6.1640
       141                         -0.2187708              -5.9531
       142                         -0.2089350              -5.6854
       ...                                ...                  ...
       252                          0.6984693              19.0063
      -------------------------------------------------------------
                  HL-Gap            0.1114959 Eh            3.0340 eV

     #   Z          covCN         q      C6AA      Î±(0)
     1   6 C        2.919    -0.028    28.711     8.787
     2   6 C        2.917    -0.032    28.787     8.798
     3   6 C        2.988     0.015    27.660     8.627
     4   6 C        2.918    -0.033    28.826     8.804
     5   6 C        2.916    -0.029    28.713     8.787
     6   6 C        2.916    -0.028    28.705     8.786
     7   6 C        2.918    -0.033    28.823     8.804
     8   6 C        2.987     0.018    27.606     8.619
     9   6 C        2.923    -0.035    28.878     8.813
    10   6 C        2.969     0.011    27.761     8.643
    11   6 C        3.834     0.049    19.737     6.321
    12   6 C        3.829     0.044    19.818     6.334
    13   6 C        2.969     0.003    27.955     8.673
    14   6 C        2.921    -0.038    28.944     8.822
    15   6 C        2.988     0.017    27.632     8.623
    16   6 C        2.919    -0.033    28.815     8.803
    17   6 C        2.916    -0.029    28.723     8.788
    18   6 C        2.916    -0.029    28.733     8.790
    19   6 C        2.918    -0.034    28.858     8.809
    20   6 C        2.987     0.013    27.711     8.635
    21   6 C        2.917    -0.034    28.835     8.806
    22   6 C        2.920    -0.036    28.898     8.815
    23   7 N        2.766    -0.118    23.572     7.211
    24   6 C        2.761     0.275    22.350     7.742
    25   6 C        2.976    -0.021    28.530     8.762
    26   6 C        2.924    -0.018    28.455     8.748
    27   6 C        2.925    -0.034    28.851     8.809
    28   6 C        2.973     0.012    27.744     8.640
    29   6 C        3.903     0.026    20.086     6.371
    30   6 C        3.762    -0.106    22.580     6.774
    31   6 C        3.761    -0.110    22.647     6.784
    32   6 C        3.762    -0.106    22.576     6.773
    33   6 C        2.927    -0.036    28.891     8.815
    34   6 C        2.920    -0.037    28.915     8.818
    35   8 O        0.859    -0.415    21.984     6.286
    36   6 C        3.771     0.074    19.381     6.274
    37   6 C        2.685     0.344    21.161     7.528
    38   8 O        1.659    -0.352    19.933     6.027
    39   8 O        0.856    -0.349    20.692     6.099
    40   7 N        2.767    -0.137    23.972     7.272
    41   6 C        2.757     0.263    22.559     7.778
    42   6 C        2.976    -0.030    28.754     8.796
    43   6 C        2.921    -0.027    28.686     8.783
    44   6 C        2.925    -0.035    28.883     8.813
    45   6 C        2.974     0.016    27.651     8.625
    46   6 C        3.903     0.026    20.084     6.370
    47   6 C        3.762    -0.104    22.540     6.768
    48   6 C        3.761    -0.110    22.658     6.786
    49   6 C        3.762    -0.107    22.591     6.775
    50   6 C        2.926    -0.032    28.802     8.801
    51   6 C        2.921    -0.031    28.785     8.798
    52   8 O        0.859    -0.419    22.070     6.299
    53   1 H        0.926     0.026     2.644     2.543
    54   1 H        0.926     0.038     2.482     2.464
    55   1 H        0.926     0.034     2.530     2.487
    56   1 H        0.926     0.033     2.545     2.495
    57   1 H        0.926     0.033     2.541     2.493
    58   1 H        0.926     0.035     2.521     2.483
    59   1 H        0.926     0.035     2.517     2.481
    60   1 H        0.923     0.038     2.476     2.461
    61   1 H        0.923     0.065     2.147     2.291
    62   1 H        0.926     0.045     2.378     2.411
    63   1 H        0.926     0.039     2.457     2.451
    64   1 H        0.926     0.032     2.555     2.500
    65   1 H        0.926     0.031     2.572     2.508
    66   1 H        0.926     0.032     2.559     2.502
    67   1 H        0.926     0.036     2.498     2.471
    68   1 H        0.926     0.029     2.597     2.520
    69   1 H        0.926     0.048     2.339     2.392
    70   1 H        0.926     0.049     2.336     2.390
    71   1 H        0.925     0.037     2.493     2.469
    72   1 H        0.925     0.039     2.457     2.451
    73   1 H        0.925     0.036     2.499     2.472
    74   1 H        0.925     0.039     2.465     2.455
    75   1 H        0.925     0.038     2.473     2.459
    76   1 H        0.925     0.038     2.469     2.457
    77   1 H        0.925     0.036     2.503     2.474
    78   1 H        0.925     0.033     2.539     2.492
    79   1 H        0.925     0.039     2.457     2.451
    80   1 H        0.926     0.032     2.551     2.498
    81   1 H        0.925     0.023     2.693     2.566
    82   1 H        0.924     0.074     2.045     2.236
    83   1 H        0.804     0.333     0.629     1.246
    84   1 H        0.926     0.040     2.443     2.444
    85   1 H        0.926     0.049     2.329     2.387
    86   1 H        0.925     0.036     2.509     2.477
    87   1 H        0.925     0.042     2.424     2.435
    88   1 H        0.925     0.035     2.518     2.481
    89   1 H        0.925     0.039     2.464     2.455
    90   1 H        0.925     0.038     2.476     2.460
    91   1 H        0.925     0.041     2.436     2.441
    92   1 H        0.925     0.042     2.422     2.434
    93   1 H        0.925     0.037     2.487     2.466
    94   1 H        0.925     0.038     2.473     2.459
    95   1 H        0.926     0.040     2.448     2.447
    96   1 H        0.926     0.030     2.590     2.517

Wiberg/Mayer (AO) data.
largest (>0.10) Wiberg bond orders for each atom

     #   Z sym  total        # sym  WBO       # sym  WBO       # sym  WBO
 ---------------------------------------------------------------------------
     1   6 C    3.992 --     2 C    1.568    10 C    1.290    53 H    0.968
     2   6 C    3.991 --     1 C    1.568     3 C    1.274    54 H    0.968
                             9 C    0.113
     3   6 C    3.990 --     4 C    1.283     2 C    1.274     8 C    1.252
     4   6 C    3.992 --     5 C    1.555     3 C    1.283    55 H    0.968
                             7 C    0.118
     5   6 C    3.990 --     4 C    1.555     6 C    1.322    56 H    0.971
     6   6 C    3.992 --     7 C    1.557     5 C    1.322    57 H    0.971
     7   6 C    3.989 --     6 C    1.557     8 C    1.280    58 H    0.968
                             4 C    0.118
     8   6 C    3.990 --     9 C    1.280     7 C    1.280     3 C    1.252
     9   6 C    3.989 --    10 C    1.527     8 C    1.280    59 H    0.965
                             2 C    0.113
    10   6 C    3.985 --     9 C    1.527     1 C    1.290    11 C    0.997
    11   6 C    3.960 --    10 C    0.997    60 H    0.956    40 N    0.952
                            12 C    0.945
    12   6 C    3.959 --    13 C    0.988    23 N    0.962    61 H    0.950
                            11 C    0.945
    13   6 C    3.985 --    14 C    1.534    22 C    1.288    12 C    0.988
    14   6 C    3.989 --    13 C    1.534    15 C    1.277    62 H    0.961
                            21 C    0.114
    15   6 C    3.990 --    16 C    1.280    14 C    1.277    20 C    1.253
    16   6 C    3.990 --    17 C    1.557    15 C    1.280    63 H    0.968
                            19 C    0.118
    17   6 C    3.992 --    16 C    1.557    18 C    1.322    64 H    0.971
    18   6 C    3.990 --    19 C    1.555    17 C    1.322    65 H    0.971
    19   6 C    3.992 --    18 C    1.555    20 C    1.282    66 H    0.968
                            16 C    0.118
    20   6 C    3.990 --    19 C    1.282    21 C    1.274    15 C    1.253
    21   6 C    3.991 --    22 C    1.568    20 C    1.274    67 H    0.968
                            14 C    0.114
    22   6 C    3.991 --    21 C    1.568    13 C    1.288    68 H    0.969
    23   7 N    3.454 --    24 C    1.189    36 C    0.994    12 C    0.962
                            35 O    0.188
    24   6 C    3.941 --    35 O    1.707    23 N    1.189    25 C    0.961
    25   6 C    3.986 --    26 C    1.409    34 C    1.395    24 C    0.961
                            28 C    0.108
    26   6 C    3.989 --    27 C    1.440    25 C    1.409    69 H    0.969
                            33 C    0.110
    27   6 C    3.991 --    26 C    1.440    28 C    1.418    70 H    0.964
                            34 C    0.107
    28   6 C    3.986 --    27 C    1.418    33 C    1.402    29 C    0.985
                            25 C    0.108
    29   6 C    3.992 --    31 C    1.000    32 C    0.987    30 C    0.987
                            28 C    0.985
    30   6 C    3.995 --    71 H    0.987    29 C    0.987    72 H    0.984
                            73 H    0.984
    31   6 C    3.996 --    29 C    1.000    74 H    0.984    76 H    0.984
                            75 H    0.984
    32   6 C    3.995 --    78 H    0.987    29 C    0.987    79 H    0.984
                            77 H    0.981
    33   6 C    3.991 --    34 C    1.454    28 C    1.402    80 H    0.964
                            26 C    0.110
    34   6 C    3.991 --    33 C    1.454    25 C    1.395    81 H    0.968
                            27 C    0.107
    35   8 O    2.026 --    24 C    1.707    23 N    0.188
    36   6 C    3.970 --    23 N    0.994    40 N    0.991    82 H    0.924
                            37 C    0.893
    37   6 C    3.921 --    39 O    1.801    38 O    1.156    36 C    0.893
    38   8 O    2.233 --    37 C    1.156    83 H    0.851    39 O    0.172
    39   8 O    2.091 --    37 C    1.801    38 O    0.172
    40   7 N    3.451 --    41 C    1.180    36 C    0.991    11 C    0.952
                            52 O    0.188
    41   6 C    3.943 --    52 O    1.695    40 N    1.180    42 C    0.970
    42   6 C    3.984 --    43 C    1.410    51 C    1.381    41 C    0.970
                            45 C    0.106
    43   6 C    3.990 --    44 C    1.439    42 C    1.410    84 H    0.969
                            50 C    0.107
    44   6 C    3.990 --    43 C    1.439    45 C    1.418    85 H    0.964
                            51 C    0.106
    45   6 C    3.985 --    44 C    1.418    50 C    1.396    46 C    0.986
                            42 C    0.106
    46   6 C    3.991 --    48 C    1.000    45 C    0.986    47 C    0.986
                            49 C    0.985
    47   6 C    3.995 --    46 C    0.986    86 H    0.984    87 H    0.984
                            88 H    0.983
    48   6 C    3.996 --    46 C    1.000    90 H    0.984    89 H    0.984
                            91 H    0.984
    49   6 C    3.995 --    93 H    0.987    46 C    0.985    92 H    0.984
                            94 H    0.983
    50   6 C    3.991 --    51 C    1.463    45 C    1.396    95 H    0.964
                            43 C    0.107
    51   6 C    3.991 --    50 C    1.463    42 C    1.381    96 H    0.968
                            44 C    0.106
    52   8 O    2.025 --    41 C    1.695    40 N    0.188
    53   1 H    0.999 --     1 C    0.968
    54   1 H    0.998 --     2 C    0.968
    55   1 H    0.998 --     4 C    0.968
    56   1 H    0.998 --     5 C    0.971
    57   1 H    0.998 --     6 C    0.971
    58   1 H    0.998 --     7 C    0.968
    59   1 H    0.998 --     9 C    0.965
    60   1 H    0.998 --    11 C    0.956
    61   1 H    0.995 --    12 C    0.950
    62   1 H    0.997 --    14 C    0.961
    63   1 H    0.998 --    16 C    0.968
    64   1 H    0.998 --    17 C    0.971
    65   1 H    0.999 --    18 C    0.971
    66   1 H    0.999 --    19 C    0.968
    67   1 H    0.998 --    21 C    0.968
    68   1 H    0.999 --    22 C    0.969
    69   1 H    0.997 --    26 C    0.969
    70   1 H    0.997 --    27 C    0.964
    71   1 H    0.999 --    30 C    0.987
    72   1 H    0.998 --    30 C    0.984
    73   1 H    0.999 --    30 C    0.984
    74   1 H    0.998 --    31 C    0.984
    75   1 H    0.998 --    31 C    0.984
    76   1 H    0.999 --    31 C    0.984
    77   1 H    0.999 --    32 C    0.981
    78   1 H    0.999 --    32 C    0.987
    79   1 H    0.998 --    32 C    0.984
    80   1 H    0.998 --    33 C    0.964
    81   1 H    0.999 --    34 C    0.968
    82   1 H    0.994 --    36 C    0.924
    83   1 H    0.889 --    38 O    0.851
    84   1 H    0.998 --    43 C    0.969
    85   1 H    0.997 --    44 C    0.964
    86   1 H    0.999 --    47 C    0.984
    87   1 H    0.997 --    47 C    0.984
    88   1 H    0.999 --    47 C    0.983
    89   1 H    0.998 --    48 C    0.984
    90   1 H    0.999 --    48 C    0.984
    91   1 H    0.998 --    48 C    0.984
    92   1 H    0.997 --    49 C    0.984
    93   1 H    0.999 --    49 C    0.987
    94   1 H    0.999 --    49 C    0.983
    95   1 H    0.998 --    50 C    0.964
    96   1 H    0.999 --    51 C    0.968
 ---------------------------------------------------------------------------

molecular dipole:
                 x           y           z       tot (Debye)
 q only:       -0.766      -1.293      -0.190
   full:       -1.142      -1.508      -0.163       4.827

           -------------------------------------------------
          | TOTAL ENERGY             -143.127237470887 Eh   |
          | GRADIENT NORM               0.000390924849 Eh/Î± |
          | HOMO-LUMO GAP               3.033957258413 eV   |
           -------------------------------------------------

 * finished run on 2022/03/17 at 00:28:23.837
