   * xtb version 6.3.3 (4ae9cef) compiled by 'conda@95abc7406d43' on 2020-10-14
          program call               : xtb acid_299.xyz --opt --chrg 0 --uhf 0 --gfn 2
          number of atoms            :                    68
          number of electrons        :                   202
          charge                     :                     0
          spin                       :                   0.0

   ID    Z sym.   atoms
    1    8 O      1, 12, 13, 22, 30, 35
    2    6 C      2-8, 10, 11, 15-21, 23-29, 31-34, 36-40
    3    7 N      9, 14
    4    1 H      41-68

          :  Hamiltonian                  GFN2-xTB          :
 * total energy  :  -113.0587623 Eh     change       -0.1772207E-08 Eh
 * total energy  :  -113.0729927 Eh     change       -0.1423043E-01 Eh
 * total energy  :  -113.0772023 Eh     change       -0.4209558E-02 Eh
 * total energy  :  -113.0784694 Eh     change       -0.1267187E-02 Eh
 * total energy  :  -113.0793136 Eh     change       -0.8441447E-03 Eh
 * total energy  :  -113.0798834 Eh     change       -0.5697954E-03 Eh
 * total energy  :  -113.0804233 Eh     change       -0.5399191E-03 Eh
 * total energy  :  -113.0809849 Eh     change       -0.5616247E-03 Eh
 * total energy  :  -113.0814997 Eh     change       -0.5147538E-03 Eh
 * total energy  :  -113.0818753 Eh     change       -0.3755695E-03 Eh
 * total energy  :  -113.0897052 Eh     change       -0.1436124E-04 Eh
 * total energy  :  -113.0897170 Eh     change       -0.1179318E-04 Eh
 * total energy  :  -113.0897318 Eh     change       -0.1478479E-04 Eh
 * total energy  :  -113.0897444 Eh     change       -0.1263264E-04 Eh
 * total energy  :  -113.0897537 Eh     change       -0.9253867E-05 Eh
 * total energy  :  -113.0897615 Eh     change       -0.7835139E-05 Eh
 * total energy  :  -113.0897690 Eh     change       -0.7497998E-05 Eh
 * total energy  :  -113.0897770 Eh     change       -0.7957207E-05 Eh
 * total energy  :  -113.0897807 Eh     change       -0.3767290E-05 Eh
   *** GEOMETRY OPTIMIZATION CONVERGED AFTER 97 ITERATIONS ***

 final structure:
================
68
 xtb: 6.3.3 (4ae9cef)
O        -1.94871083284035   -0.82974896516044    3.00517077067923
C        -1.71228968407444    0.29944748477966    2.63003548712076
C        -1.96060300724276    1.50290315965755    3.47581885673356
C        -1.32737820113722    1.60702912487690    4.70864743333879
C        -1.56959216031075    2.70020281988751    5.52064922493838
C        -2.46372351749671    3.67895601647300    5.11902137516469
C        -3.12112939766490    3.56105039097353    3.90574578020181
C        -2.86962177234794    2.47823625384878    3.08299046781573
N        -1.24126981030879    0.54976532704140    1.37607005354507
C        -0.65879176951867    1.77687872453712    0.90169611713371
C         0.18641462816910    2.49180487940192    1.98047297275385
O        -0.25692869555863    3.71763035052369    2.22891687891189
O         1.06511342918712    1.94390202449545    2.58922392500618
N         0.21563536195845    1.35939973087182   -0.17776809511866
C         1.26513522859910    2.15435945217772   -0.47948287691237
C         2.16258361073032    1.68532867442533   -1.56976888813533
C         1.67711949470840    1.45199039448212   -2.85030321472319
C         2.54119280444632    1.04021050700451   -3.84897078136006
C         3.88416864271125    0.84711174453951   -3.57160151573586
C         4.37241784504975    1.09829613996097   -2.29987215655031
C         3.51840019003949    1.53325252363926   -1.30408567684627
O         1.42816812545350    3.20933140969361    0.11414454696653
C         0.05344953402600   -0.04022486605964   -0.53788955620968
C         1.35672915312352   -0.79360629922741   -0.47998178922568
C         2.14266559337427   -0.73403226336203    0.65932263157212
C         3.34319014782758   -1.41870273049911    0.72520835705088
C         3.75500344827710   -2.17426623811784   -0.35583306515294
C         2.97766189377143   -2.25111975683900   -1.49900651494697
C         1.77195090339350   -1.56508471871758   -1.57318478299286
O         0.94761001940686   -1.57538598554207   -2.66053565966645
C         1.34688198696290   -2.29874683911302   -3.79791733493809
C        -0.96540796529660   -0.57177295619623    0.49519695591423
C        -2.20209975359833   -1.11105433134299   -0.17752023650664
C        -2.13058529740536   -2.39962654373653   -0.72951604791011
O        -0.93460530181542   -3.03494006521468   -0.59038765200437
C        -0.79919350099197   -4.33897282155937   -1.09698392209104
C        -3.24342169952750   -2.93132975161504   -1.36756201139246
C        -4.41082256741296   -2.19055432720377   -1.46124768054559
C        -4.48059616343524   -0.91960296567502   -0.92642805938652
C        -3.37242900870060   -0.38603329832085   -0.28777664746065
H        -0.63743938420312    0.83477986045794    5.01234115454020
H        -1.06359263202787    2.78561549978544    6.47091578984162
H        -2.65489337873614    4.53053760398403    5.75538585951271
H        -3.82993811501612    4.31565822320797    3.59900527452929
H        -3.39147441287417    2.38193888105350    2.14203889339777
H        -1.41256364233894    2.49096389060504    0.52791611594662
H         0.32492810216099    4.16383011953119    2.86366169730491
H         0.63029699353485    1.60366233645934   -3.06724950496437
H         2.16321512466569    0.86678263452311   -4.84608341428121
H         4.55398578524754    0.51151250180304   -4.35025811154106
H         5.42161607560894    0.96058628103691   -2.08581742657668
H         3.88653496536032    1.74185251350530   -0.31146008094554
H        -0.36423244680865   -0.12154022897689   -1.54712179989733
H         1.82111804271583   -0.12759368769429    1.49387985706065
H         3.95031230389707   -1.36035137753168    1.61487515306442
H         4.69014332039083   -2.71316034010229   -0.31806796267870
H         3.32457065434677   -2.84674915700145   -2.32843008568426
H         0.55424474647879   -2.15344099779353   -4.53078443169731
H         2.28959676544071   -1.91763957790119   -4.20346995132354
H         1.44728531161924   -3.36752893218041   -3.58279305058577
H        -0.52687781832453   -1.38328035935057    1.08911557773448
H         0.22046649510107   -4.63902739686357   -0.85860175074419
H        -1.50004016606281   -5.03218982070154   -0.62104362829003
H        -0.94177115689646   -4.36449958195570   -2.18256021651338
H        -3.21513623249862   -3.92265181922654   -1.79144933737875
H        -5.26920603365035   -2.61909205091233   -1.95686177192131
H        -5.39100269880970   -0.34531667951848   -1.00130141320946
H        -3.42243750289824    0.60405825196458    0.13951189627057

          :  Hamiltonian                  GFN2-xTB          :
         :: total energy            -113.089780738265 Eh    ::
         :: gradient norm              0.000357839459 Eh/a0 ::
         :: HOMO-LUMO gap              3.492987998237 eV    ::
         :: SCC energy              -114.745339987858 Eh    ::
         :: -> dispersion             -0.100890561649 Eh    ::
         :: repulsion energy           1.652241366850 Eh    ::

    * Orbital Energies and Occupations

         #    Occupation            Energy/Eh            Energy/eV
      -------------------------------------------------------------
         1        2.0000           -0.7466498             -20.3174
       ...           ...                  ...                  ...
        89        2.0000           -0.4262745             -11.5995
        90        2.0000           -0.4199149             -11.4265
        91        2.0000           -0.4147357             -11.2855
        92        2.0000           -0.4091842             -11.1345
        93        2.0000           -0.4087682             -11.1231
        94        2.0000           -0.4078349             -11.0978
        95        2.0000           -0.4032387             -10.9727
        96        2.0000           -0.4011614             -10.9162
        97        2.0000           -0.3990916             -10.8598
        98        2.0000           -0.3902345             -10.6188
        99        2.0000           -0.3872935             -10.5388
       100        2.0000           -0.3842219             -10.4552
       101        2.0000           -0.3804277             -10.3520 (HOMO)
       102                         -0.2520628              -6.8590 (LUMO)
       103                         -0.2452603              -6.6739
       104                         -0.2359538              -6.4206
       105                         -0.2326325              -6.3303
       106                         -0.2304656              -6.2713
       107                         -0.2271593              -6.1813
       108                         -0.2256547              -6.1404
       109                         -0.2187486              -5.9525
       110                         -0.2171848              -5.9099
       111                         -0.2036484              -5.5416
       112                         -0.1939315              -5.2771
       ...                                ...                  ...
       188                          0.6699611              18.2306
      -------------------------------------------------------------
                  HL-Gap            0.1283649 Eh            3.4930 eV

     #   Z          covCN         q      C6AA      Î±(0)
     1   8 O        0.859    -0.419    22.062     6.297
     2   6 C        2.767     0.271    22.414     7.753
     3   6 C        2.976    -0.018    28.462     8.751
     4   6 C        2.924    -0.018    28.466     8.749
     5   6 C        2.919    -0.028    28.689     8.784
     6   6 C        2.920    -0.028    28.702     8.785
     7   6 C        2.919    -0.026    28.643     8.776
     8   6 C        2.922    -0.026    28.662     8.779
     9   7 N        2.759    -0.116    23.522     7.203
    10   6 C        3.760     0.097    19.027     6.218
    11   6 C        2.689     0.372    20.691     7.444
    12   8 O        1.659    -0.361    20.109     6.054
    13   8 O        0.856    -0.407    21.823     6.263
    14   7 N        2.765    -0.109    23.380     7.181
    15   6 C        2.773     0.273    22.381     7.748
    16   6 C        2.977    -0.009    28.238     8.717
    17   6 C        2.922    -0.024    28.595     8.769
    18   6 C        2.920    -0.026    28.641     8.776
    19   6 C        2.920    -0.028    28.707     8.786
    20   6 C        2.920    -0.026    28.661     8.779
    21   6 C        2.924    -0.019    28.488     8.753
    22   8 O        0.861    -0.431    22.302     6.332
    23   6 C        3.813     0.041    19.884     6.347
    24   6 C        2.974    -0.020    28.496     8.756
    25   6 C        2.924    -0.035    28.877     8.812
    26   6 C        2.918    -0.039    28.960     8.825
    27   6 C        2.921    -0.032    28.810     8.802
    28   6 C        2.918    -0.068    29.682     8.934
    29   6 C        2.867     0.140    24.944     8.187
    30   8 O        1.705    -0.275    18.556     5.816
    31   6 C        3.644     0.040    20.243     6.467
    32   6 C        3.828     0.047    19.763     6.325
    33   6 C        2.973    -0.015    28.373     8.737
    34   6 C        2.870     0.141    24.922     8.183
    35   8 O        1.705    -0.269    18.467     5.802
    36   6 C        3.644     0.041    20.227     6.465
    37   6 C        2.917    -0.065    29.629     8.926
    38   6 C        2.921    -0.032    28.801     8.801
    39   6 C        2.918    -0.041    29.016     8.833
    40   6 C        2.923    -0.031    28.774     8.797
    41   1 H        0.926     0.051     2.305     2.374
    42   1 H        0.926     0.040     2.449     2.447
    43   1 H        0.926     0.037     2.488     2.467
    44   1 H        0.926     0.039     2.463     2.454
    45   1 H        0.926     0.029     2.598     2.521
    46   1 H        0.923     0.060     2.194     2.316
    47   1 H        0.804     0.345     0.601     1.218
    48   1 H        0.926     0.037     2.496     2.470
    49   1 H        0.926     0.037     2.483     2.464
    50   1 H        0.926     0.035     2.510     2.478
    51   1 H        0.926     0.041     2.439     2.442
    52   1 H        0.926     0.049     2.327     2.386
    53   1 H        0.924     0.067     2.115     2.274
    54   1 H        0.926     0.063     2.164     2.301
    55   1 H        0.926     0.044     2.393     2.419
    56   1 H        0.926     0.039     2.466     2.456
    57   1 H        0.926     0.037     2.488     2.467
    58   1 H        0.925     0.061     2.193     2.316
    59   1 H        0.924     0.042     2.428     2.437
    60   1 H        0.924     0.041     2.431     2.438
    61   1 H        0.924     0.089     1.893     2.152
    62   1 H        0.925     0.060     2.199     2.319
    63   1 H        0.924     0.044     2.391     2.418
    64   1 H        0.924     0.040     2.453     2.449
    65   1 H        0.926     0.039     2.463     2.454
    66   1 H        0.926     0.038     2.472     2.459
    67   1 H        0.926     0.038     2.475     2.460
    68   1 H        0.926     0.035     2.514     2.480

Wiberg/Mayer (AO) data.
largest (>0.10) Wiberg bond orders for each atom

     #   Z sym  total        # sym  WBO       # sym  WBO       # sym  WBO
 ---------------------------------------------------------------------------
     1   8 O    2.022 --     2 C    1.694     9 N    0.187
     2   6 C    3.945 --     1 O    1.694     9 N    1.196     3 C    0.970
     3   6 C    3.988 --     4 C    1.402     8 C    1.401     2 C    0.970
                             6 C    0.109
     4   6 C    3.989 --     5 C    1.445     3 C    1.402    41 H    0.969
                             7 C    0.111
     5   6 C    3.992 --     4 C    1.445     6 C    1.438    42 H    0.970
                             8 C    0.111
     6   6 C    3.992 --     5 C    1.438     7 C    1.437    43 H    0.971
                             3 C    0.109
     7   6 C    3.992 --     8 C    1.446     6 C    1.437    44 H    0.970
                             4 C    0.111
     8   6 C    3.992 --     7 C    1.446     3 C    1.401    45 H    0.969
                             5 C    0.111
     9   7 N    3.457 --     2 C    1.196    10 C    0.989    32 C    0.965
                             1 O    0.187
    10   6 C    3.966 --     9 N    0.989    14 N    0.973    46 H    0.944
                            11 C    0.909
    11   6 C    3.923 --    13 O    1.746    12 O    1.152    10 C    0.909
    12   8 O    2.212 --    11 C    1.152    47 H    0.856    13 O    0.169
    13   8 O    2.043 --    11 C    1.746    12 O    0.169
    14   7 N    3.474 --    15 C    1.237    10 C    0.973    23 C    0.958
                            22 O    0.186
    15   6 C    3.942 --    22 O    1.639    14 N    1.237    16 C    0.974
    16   6 C    3.988 --    17 C    1.402    21 C    1.399    15 C    0.974
                            19 C    0.109
    17   6 C    3.991 --    18 C    1.444    16 C    1.402    48 H    0.969
                            20 C    0.110
    18   6 C    3.992 --    17 C    1.444    19 C    1.438    49 H    0.970
                            21 C    0.111
    19   6 C    3.992 --    18 C    1.438    20 C    1.436    50 H    0.971
                            16 C    0.109
    20   6 C    3.991 --    21 C    1.448    19 C    1.436    51 H    0.970
                            17 C    0.110
    21   6 C    3.990 --    20 C    1.448    16 C    1.399    52 H    0.969
                            18 C    0.111
    22   8 O    2.045 --    15 C    1.639    14 N    0.186
    23   6 C    3.962 --    24 C    0.990    14 N    0.958    53 H    0.951
                            32 C    0.950
    24   6 C    3.983 --    25 C    1.433    29 C    1.328    23 C    0.990
                            27 C    0.106
    25   6 C    3.988 --    24 C    1.433    26 C    1.429    54 H    0.963
                            28 C    0.103
    26   6 C    3.991 --    27 C    1.442    25 C    1.429    55 H    0.970
    27   6 C    3.990 --    26 C    1.442    28 C    1.435    56 H    0.971
                            24 C    0.106
    28   6 C    3.986 --    27 C    1.435    29 C    1.381    57 H    0.966
                            25 C    0.103
    29   6 C    3.934 --    28 C    1.381    24 C    1.328    30 O    1.056
    30   8 O    2.228 --    29 C    1.056    31 C    0.984
    31   6 C    3.946 --    30 O    0.984    58 H    0.980    60 H    0.976
                            59 H    0.975
    32   6 C    3.961 --    33 C    0.989     9 N    0.965    23 C    0.950
                            61 H    0.943
    33   6 C    3.983 --    40 C    1.447    34 C    1.315    32 C    0.989
                            38 C    0.106
    34   6 C    3.934 --    37 C    1.386    33 C    1.315    35 O    1.063
    35   8 O    2.237 --    34 C    1.063    36 C    0.984
    36   6 C    3.945 --    35 O    0.984    62 H    0.980    63 H    0.976
                            64 H    0.976
    37   6 C    3.987 --    38 C    1.429    34 C    1.386    65 H    0.966
                            40 C    0.101
    38   6 C    3.991 --    39 C    1.450    37 C    1.429    66 H    0.971
                            33 C    0.106
    39   6 C    3.991 --    38 C    1.450    40 C    1.417    67 H    0.971
    40   6 C    3.990 --    33 C    1.447    39 C    1.417    68 H    0.967
                            37 C    0.101
    41   1 H    0.997 --     4 C    0.969
    42   1 H    0.998 --     5 C    0.970
    43   1 H    0.998 --     6 C    0.971
    44   1 H    0.998 --     7 C    0.970
    45   1 H    0.999 --     8 C    0.969
    46   1 H    0.995 --    10 C    0.944
    47   1 H    0.880 --    12 O    0.856
    48   1 H    0.999 --    17 C    0.969
    49   1 H    0.998 --    18 C    0.970
    50   1 H    0.998 --    19 C    0.971
    51   1 H    0.998 --    20 C    0.970
    52   1 H    0.998 --    21 C    0.969
    53   1 H    0.995 --    23 C    0.951
    54   1 H    0.995 --    25 C    0.963
    55   1 H    0.998 --    26 C    0.970
    56   1 H    0.998 --    27 C    0.971
    57   1 H    0.998 --    28 C    0.966
    58   1 H    0.996 --    31 C    0.980
    59   1 H    0.998 --    31 C    0.975
    60   1 H    0.998 --    31 C    0.976
    61   1 H    0.992 --    32 C    0.943
    62   1 H    0.996 --    36 C    0.980
    63   1 H    0.998 --    36 C    0.976
    64   1 H    0.998 --    36 C    0.976
    65   1 H    0.998 --    37 C    0.966
    66   1 H    0.998 --    38 C    0.971
    67   1 H    0.998 --    39 C    0.971
    68   1 H    0.998 --    40 C    0.967
 ---------------------------------------------------------------------------

molecular dipole:
                 x           y           z       tot (Debye)
 q only:        0.127      -0.786      -1.909
   full:        0.199      -0.784      -2.117       5.760

           -------------------------------------------------
          | TOTAL ENERGY             -113.089780738265 Eh   |
          | GRADIENT NORM               0.000357839459 Eh/Î± |
          | HOMO-LUMO GAP               3.492987998237 eV   |
           -------------------------------------------------

 * finished run on 2022/03/16 at 23:33:05.642
