   * xtb version 6.3.3 (4ae9cef) compiled by 'conda@95abc7406d43' on 2020-10-14
          program call               : xtb acid_343.xyz --opt --chrg 0 --uhf 0 --gfn 2
          number of atoms            :                    62
          number of electrons        :                   206
          charge                     :                     0
          spin                       :                   0.0

   ID    Z sym.   atoms
    1    6 C      1, 3-16, 18, 20-24, 28, 29, 33-37
    2    8 O      2, 17, 27, 30, 31, 40
    3    7 N      19, 32
    4   17 Cl     25, 38
    5   16 S      26, 39
    6    1 H      41-62

          :  Hamiltonian                  GFN2-xTB          :
 * total energy  :  -116.9919839 Eh     change       -0.2616730E-08 Eh
 * total energy  :  -117.0066512 Eh     change       -0.1466726E-01 Eh
 * total energy  :  -117.0114803 Eh     change       -0.4829095E-02 Eh
 * total energy  :  -117.0132309 Eh     change       -0.1750637E-02 Eh
 * total energy  :  -117.0145202 Eh     change       -0.1289291E-02 Eh
 * total energy  :  -117.0157379 Eh     change       -0.1217672E-02 Eh
 * total energy  :  -117.0171940 Eh     change       -0.1456090E-02 Eh
 * total energy  :  -117.0187419 Eh     change       -0.1547957E-02 Eh
 * total energy  :  -117.0202924 Eh     change       -0.1550471E-02 Eh
 * total energy  :  -117.0206273 Eh     change       -0.3348858E-03 Eh
 * total energy  :  -117.0390264 Eh     change       -0.5639082E-04 Eh
 * total energy  :  -117.0390343 Eh     change       -0.7860577E-05 Eh
 * total energy  :  -117.0390413 Eh     change       -0.7002113E-05 Eh
 * total energy  :  -117.0390354 Eh     change        0.5860015E-05 Eh
 * total energy  :  -117.0390459 Eh     change       -0.1053469E-04 Eh
 * total energy  :  -117.0390513 Eh     change       -0.5411314E-05 Eh
 * total energy  :  -117.0390557 Eh     change       -0.4374971E-05 Eh
 * total energy  :  -117.0390612 Eh     change       -0.5497977E-05 Eh
 * total energy  :  -117.0390658 Eh     change       -0.4612975E-05 Eh
   *** GEOMETRY OPTIMIZATION CONVERGED AFTER 93 ITERATIONS ***

 final structure:
================
62
 xtb: 6.3.3 (4ae9cef)
C         1.17113790474745    2.84196446093639   -0.62213273824936
O         0.56063527808338    3.21772928978780    0.54062572610264
C         0.40289383866454    4.58764421397136    0.80859260344403
C         1.66450590778315    3.72692136603164   -1.57117040396324
C         2.24719975692807    3.24751657964178   -2.73304346695358
C         2.33828580211177    1.88912391333720   -2.96294273674829
C         1.84582827188765    1.00043156712165   -2.02152104099470
C         1.27506201401451    1.46229855638151   -0.85023214185054
C         0.67731644190634    0.52938189162312    0.16700426957915
C        -0.75424978944022    0.13064133839384   -0.23017041083512
C        -1.74978074429411    1.08570665619355    0.36429370768220
C        -2.13378193376142    0.99936437003666    1.68962731783187
C        -3.00149633907808    1.92738519276112    2.23913113637631
C        -3.47558354719850    2.96033337753633    1.45464417894342
C        -3.08813978778394    3.07323733274900    0.12993790355227
C        -2.22126597414145    2.14193459351448   -0.42783698165593
O        -1.76661516806722    2.18073996085701   -1.71086393834197
C        -2.16749480065201    3.24195245811124   -2.54053008696062
N        -0.86902942427907   -1.23307254417646    0.27715133654169
C        -2.08975955434101   -1.83767637079158    0.28043165757249
C        -2.24754832294747   -3.16867630096239    0.91111265055555
C        -3.37748935907101   -3.92077374495971    0.73642251831665
C        -3.41096851556401   -5.09955873001932    1.50318863673271
C        -2.30572406466853   -5.23824398897083    2.28624196439086
Cl       -1.94959263851941   -6.50943444423401    3.36387057130801
S        -1.19201081416395   -3.92172330555369    2.08623779003765
O        -3.07497814833709   -1.28491047387675   -0.16775184607071
C         0.44002571161346   -1.85316737629426    0.27966595728940
C         0.62718194041625   -2.68471635825406   -1.02998711072685
O         0.03367426954640   -3.87526294290466   -1.04003645058037
O         1.22989462732486   -2.26383370254808   -1.96940767187996
N         1.35911702688568   -0.75077787960166    0.30929044368275
C         2.69371611479250   -0.76748087748078    0.56515725161207
C         3.40871706405383   -2.05265349798791    0.68219821593920
C         4.77774084838229   -2.10267870258889    0.68979071563296
C         5.30925899080477   -3.39748384228571    0.81498796500570
C         4.33338424786536   -4.34330787434873    0.90945697489609
Cl        4.54022819064486   -6.02647611103603    1.08535907766950
S         2.74664588070619   -3.65489659862076    0.84331750886477
O         3.31921380182817    0.26978904634461    0.68202121376608
H         1.36796439048851    5.09539147704047    0.90480863721205
H        -0.19400951671659    5.08362754544668    0.03586029810852
H        -0.13014135574603    4.63912926809485    1.75697079081750
H         1.60291813378749    4.79283259929214   -1.41635827796258
H         2.62749992521493    3.95002606354662   -3.46029289919062
H         2.78719467474795    1.51799510647338   -3.87121423425557
H         1.90746339848364   -0.06212357562429   -2.19853305477039
H         0.67375315747133    1.03748595555428    1.13979666974958
H        -0.85794081281058    0.13407245139742   -1.32222648862995
H        -1.75272533804799    0.19185297553737    2.29805945320168
H        -3.30025479207445    1.84459260193827    3.27281649807497
H        -4.15163918931308    3.69250039012140    1.87116313392617
H        -3.46915315925587    3.89241087508161   -0.45940870308389
H        -3.25008946713816    3.24280922126167   -2.70234798807260
H        -1.85851191227148    4.21007562303451   -2.13280545436112
H        -1.65945844676291    3.07673375258368   -3.48939617644854
H        -4.15965155792719   -3.61377392291133    0.06641823962281
H        -4.21568609800542   -5.81029669658298    1.48426890520784
H         0.56739354323462   -2.49785097168761    1.16330669698798
H        -0.38939940574346   -4.11056352543569   -0.19878646886479
H         5.36984237728883   -1.21007606292085    0.60209131618349
H         6.35847444640101   -3.62413564906198    0.83367783902619

          :  Hamiltonian                  GFN2-xTB          :
         :: total energy            -117.039065827526 Eh    ::
         :: gradient norm              0.000729771421 Eh/a0 ::
         :: HOMO-LUMO gap              1.850943022491 eV    ::
         :: SCC energy              -118.460723948236 Eh    ::
         :: -> dispersion             -0.097217866886 Eh    ::
         :: repulsion energy           1.419333489044 Eh    ::

    * Orbital Energies and Occupations

         #    Occupation            Energy/Eh            Energy/eV
      -------------------------------------------------------------
         1        2.0000           -1.0884012             -29.6169
       ...           ...                  ...                  ...
        91        2.0000           -0.4272774             -11.6268
        92        2.0000           -0.4250586             -11.5664
        93        2.0000           -0.4242959             -11.5457
        94        2.0000           -0.4189930             -11.4014
        95        2.0000           -0.4171509             -11.3513
        96        2.0000           -0.4097547             -11.1500
        97        2.0000           -0.4067576             -11.0684
        98        2.0000           -0.4045534             -11.0085
        99        2.0000           -0.4037838             -10.9875
       100        2.0000           -0.3969226             -10.8008
       101        2.0000           -0.3928919             -10.6911
       102        2.0000           -0.3814928             -10.3809
       103        2.0000           -0.3714195             -10.1068 (HOMO)
       104                         -0.3033986              -8.2559 (LUMO)
       105                         -0.2881931              -7.8421
       106                         -0.2652162              -7.2169
       107                         -0.2506700              -6.8211
       108                         -0.2341564              -6.3717
       109                         -0.2307782              -6.2798
       110                         -0.2278432              -6.1999
       111                         -0.2185799              -5.9479
       112                         -0.2157976              -5.8722
       113                         -0.2147947              -5.8449
       114                         -0.2074808              -5.6458
       ...                                ...                  ...
       202                          0.6765457              18.4097
      -------------------------------------------------------------
                  HL-Gap            0.0680209 Eh            1.8509 eV

     #   Z          covCN         q      C6AA      Î±(0)
     1   6 C        2.869     0.144    24.865     8.174
     2   8 O        1.705    -0.278    18.606     5.824
     3   6 C        3.643     0.041    20.216     6.463
     4   6 C        2.918    -0.065    29.618     8.924
     5   6 C        2.921    -0.032    28.799     8.800
     6   6 C        2.919    -0.038    28.944     8.822
     7   6 C        2.922    -0.032    28.801     8.801
     8   6 C        2.974    -0.004    28.115     8.698
     9   6 C        3.834     0.045    19.788     6.329
    10   6 C        3.839     0.047    19.756     6.323
    11   6 C        2.975    -0.002    28.074     8.691
    12   6 C        2.924    -0.028    28.698     8.785
    13   6 C        2.918    -0.039    28.976     8.827
    14   6 C        2.921    -0.031    28.777     8.797
    15   6 C        2.918    -0.064    29.583     8.919
    16   6 C        2.869     0.148    24.787     8.161
    17   8 O        1.705    -0.270    18.485     5.805
    18   6 C        3.644     0.040    20.244     6.468
    19   7 N        2.761    -0.115    23.501     7.200
    20   6 C        2.768     0.268    22.472     7.764
    21   6 C        2.980    -0.028    28.696     8.787
    22   6 C        3.116    -0.027    28.495     8.744
    23   6 C        3.105    -0.054    29.186     8.852
    24   6 C        2.906     0.105    25.671     8.308
    25  17 Cl       1.016    -0.119   102.890    15.519
    26  16 S        2.387    -0.026   142.122    20.065
    27   8 O        0.860    -0.407    21.829     6.264
    28   6 C        3.759     0.065    19.543     6.302
    29   6 C        2.687     0.349    21.077     7.513
    30   8 O        1.659    -0.353    19.964     6.032
    31   8 O        0.856    -0.337    20.468     6.066
    32   7 N        2.761    -0.098    23.160     7.148
    33   6 C        2.770     0.270    22.449     7.760
    34   6 C        2.981    -0.014    28.353     8.734
    35   6 C        3.129    -0.026    28.442     8.732
    36   6 C        3.109    -0.053    29.152     8.846
    37   6 C        2.909     0.109    25.600     8.296
    38  17 Cl       1.016    -0.127   103.128    15.536
    39  16 S        2.405    -0.030   142.287    20.076
    40   8 O        0.861    -0.418    22.050     6.296
    41   1 H        0.924     0.045     2.385     2.415
    42   1 H        0.924     0.035     2.514     2.480
    43   1 H        0.925     0.060     2.197     2.318
    44   1 H        0.926     0.036     2.505     2.475
    45   1 H        0.926     0.036     2.502     2.473
    46   1 H        0.926     0.040     2.446     2.446
    47   1 H        0.926     0.062     2.174     2.306
    48   1 H        0.924     0.077     2.010     2.217
    49   1 H        0.924     0.076     2.026     2.226
    50   1 H        0.926     0.033     2.545     2.495
    51   1 H        0.926     0.038     2.478     2.461
    52   1 H        0.926     0.038     2.472     2.459
    53   1 H        0.926     0.039     2.459     2.452
    54   1 H        0.924     0.045     2.379     2.412
    55   1 H        0.924     0.037     2.486     2.465
    56   1 H        0.925     0.064     2.148     2.292
    57   1 H        0.926     0.089     1.893     2.151
    58   1 H        0.926     0.075     2.034     2.230
    59   1 H        0.923     0.072     2.065     2.247
    60   1 H        0.804     0.330     0.637     1.253
    61   1 H        0.926     0.086     1.916     2.165
    62   1 H        0.926     0.070     2.081     2.256

Wiberg/Mayer (AO) data.
largest (>0.10) Wiberg bond orders for each atom

     #   Z sym  total        # sym  WBO       # sym  WBO       # sym  WBO
 ---------------------------------------------------------------------------
     1   6 C    3.932 --     4 C    1.386     8 C    1.323     2 O    1.053
     2   8 O    2.225 --     1 C    1.053     3 C    0.985
     3   6 C    3.946 --     2 O    0.985    43 H    0.980    41 H    0.976
                            42 H    0.976
     4   6 C    3.987 --     5 C    1.430     1 C    1.386    44 H    0.966
                             7 C    0.103
     5   6 C    3.991 --     6 C    1.449     4 C    1.430    45 H    0.971
                             8 C    0.107
     6   6 C    3.991 --     5 C    1.449     7 C    1.421    46 H    0.971
     7   6 C    3.987 --     8 C    1.442     6 C    1.421    47 H    0.961
                             4 C    0.103
     8   6 C    3.981 --     7 C    1.442     1 C    1.323     9 C    0.991
                             5 C    0.107
     9   6 C    3.956 --     8 C    0.991    32 N    0.953    10 C    0.951
                            48 H    0.947
    10   6 C    3.956 --    11 C    0.995    19 N    0.951     9 C    0.951
                            49 H    0.947
    11   6 C    3.982 --    12 C    1.440    16 C    1.321    10 C    0.995
                            14 C    0.106
    12   6 C    3.990 --    11 C    1.440    13 C    1.424    50 H    0.968
                            15 C    0.102
    13   6 C    3.991 --    14 C    1.445    12 C    1.424    51 H    0.971
    14   6 C    3.991 --    13 C    1.445    15 C    1.434    52 H    0.971
                            11 C    0.106
    15   6 C    3.987 --    14 C    1.434    16 C    1.381    53 H    0.966
                            12 C    0.102
    16   6 C    3.935 --    15 C    1.381    11 C    1.321    17 O    1.063
    17   8 O    2.236 --    16 C    1.063    18 C    0.983
    18   6 C    3.944 --    17 O    0.983    56 H    0.979    54 H    0.976
                            55 H    0.976
    19   7 N    3.453 --    20 C    1.195    28 C    0.978    10 C    0.951
                            27 O    0.184
    20   6 C    3.956 --    27 O    1.662    19 N    1.195    21 C    1.013
    21   6 C    3.932 --    22 C    1.557    26 S    1.113    20 C    1.013
                            24 C    0.104
    22   6 C    3.984 --    21 C    1.557    23 C    1.289    57 H    0.956
    23   6 C    3.980 --    24 C    1.559    22 C    1.289    58 H    0.959
    24   6 C    3.888 --    23 C    1.559    26 S    1.147    25 Cl   1.022
                            21 C    0.104
    25  17 Cl   1.184 --    24 C    1.022
    26  16 S    2.624 --    24 C    1.147    21 C    1.113
    27   8 O    2.032 --    20 C    1.662    19 N    0.184
    28   6 C    3.969 --    32 N    1.003    19 N    0.978    59 H    0.921
                            29 C    0.886
    29   6 C    3.924 --    31 O    1.808    30 O    1.153    28 C    0.886
    30   8 O    2.231 --    29 C    1.153    60 H    0.845    31 O    0.171
    31   8 O    2.107 --    29 C    1.808    30 O    0.171
    32   7 N    3.473 --    33 C    1.200    28 C    1.003     9 C    0.953
                            40 O    0.186
    33   6 C    3.956 --    40 O    1.649    32 N    1.200    34 C    1.026
    34   6 C    3.934 --    35 C    1.550    39 S    1.125    33 C    1.026
                            37 C    0.103
    35   6 C    3.984 --    34 C    1.550    36 C    1.295    61 H    0.956
    36   6 C    3.981 --    37 C    1.552    35 C    1.295    62 H    0.960
    37   6 C    3.887 --    36 C    1.552    39 S    1.160    38 Cl   1.014
                            34 C    0.103
    38  17 Cl   1.171 --    37 C    1.014
    39  16 S    2.635 --    37 C    1.160    34 C    1.125
    40   8 O    2.014 --    33 C    1.649    32 N    0.186
    41   1 H    0.998 --     3 C    0.976
    42   1 H    0.999 --     3 C    0.976
    43   1 H    0.996 --     3 C    0.980
    44   1 H    0.998 --     4 C    0.966
    45   1 H    0.998 --     5 C    0.971
    46   1 H    0.998 --     6 C    0.971
    47   1 H    0.995 --     7 C    0.961
    48   1 H    0.993 --     9 C    0.947
    49   1 H    0.993 --    10 C    0.947
    50   1 H    0.998 --    12 C    0.968
    51   1 H    0.998 --    13 C    0.971
    52   1 H    0.998 --    14 C    0.971
    53   1 H    0.998 --    15 C    0.966
    54   1 H    0.998 --    18 C    0.976
    55   1 H    0.999 --    18 C    0.976
    56   1 H    0.995 --    18 C    0.979
    57   1 H    0.992 --    22 C    0.956
    58   1 H    0.994 --    23 C    0.959
    59   1 H    0.994 --    28 C    0.921
    60   1 H    0.891 --    30 O    0.845
    61   1 H    0.993 --    35 C    0.956
    62   1 H    0.994 --    36 C    0.960
 ---------------------------------------------------------------------------

molecular dipole:
                 x           y           z       tot (Debye)
 q only:       -0.887       1.079       0.329
   full:       -0.925       0.187       0.932       3.371

           -------------------------------------------------
          | TOTAL ENERGY             -117.039065827526 Eh   |
          | GRADIENT NORM               0.000729771421 Eh/Î± |
          | HOMO-LUMO GAP               1.850943022491 eV   |
           -------------------------------------------------

 * finished run on 2022/03/17 at 00:04:48.309
