   * xtb version 6.3.3 (4ae9cef) compiled by 'conda@95abc7406d43' on 2020-10-14
          program call               : xtb acid_18.xyz --opt --chrg 0 --uhf 0 --gfn 2
          number of atoms            :                    68
          number of electrons        :                   214
          charge                     :                     0
          spin                       :                   0.0

   ID    Z sym.   atoms
    1    6 C      1, 3-16, 18, 20-22, 24-27, 29, 30, 34-40
    2    8 O      2, 17, 28, 31, 32, 42
    3    7 N      19, 33
    4   53 I      23, 41
    5    1 H      43-68

          :  Hamiltonian                  GFN2-xTB          :
 * total energy  :  -119.6618866 Eh     change       -0.2858499E-08 Eh
 * total energy  :  -119.6778338 Eh     change       -0.1594724E-01 Eh
 * total energy  :  -119.6833286 Eh     change       -0.5494851E-02 Eh
 * total energy  :  -119.6852383 Eh     change       -0.1909675E-02 Eh
 * total energy  :  -119.6863845 Eh     change       -0.1146222E-02 Eh
 * total energy  :  -119.6870931 Eh     change       -0.7085504E-03 Eh
 * total energy  :  -119.6878114 Eh     change       -0.7183276E-03 Eh
 * total energy  :  -119.6886489 Eh     change       -0.8374269E-03 Eh
 * total energy  :  -119.6895589 Eh     change       -0.9100643E-03 Eh
 * total energy  :  -119.6903600 Eh     change       -0.8010695E-03 Eh
 * total energy  :  -119.7002673 Eh     change       -0.1383547E-04 Eh
 * total energy  :  -119.7002788 Eh     change       -0.1158200E-04 Eh
 * total energy  :  -119.7002784 Eh     change        0.4667736E-06 Eh
 * total energy  :  -119.7002622 Eh     change        0.1619982E-04 Eh
 * total energy  :  -119.7002395 Eh     change        0.2267207E-04 Eh
 * total energy  :  -119.7002044 Eh     change        0.3514395E-04 Eh
 * total energy  :  -119.7002763 Eh     change       -0.7197529E-04 Eh
 * total energy  :  -119.7002876 Eh     change       -0.1131046E-04 Eh
 * total energy  :  -119.7002897 Eh     change       -0.2014015E-05 Eh
   *** GEOMETRY OPTIMIZATION CONVERGED AFTER 149 ITERATIONS ***

 final structure:
================
68
 xtb: 6.3.3 (4ae9cef)
C        -1.30054155212493   -2.60746509702882   -1.72544527107265
O        -2.02313096828612   -2.85373899069934   -0.60372008842366
C        -3.16745452943108   -3.66598456505880   -0.68661545086936
C        -1.66105281287812   -3.02559408476759   -3.00050929645643
C        -0.85642435004728   -2.72118490530158   -4.08514358528518
C         0.31248777120118   -2.00817224624552   -3.90797982097184
C         0.67706829259438   -1.59061254401424   -2.63824409650939
C        -0.11390672355045   -1.87567421362227   -1.53955170164305
C         0.20806926994849   -1.43274220685073   -0.13077955228480
C         1.57126499425170   -0.75482675652993    0.05474578255245
C         2.02980021145753   -0.86915084967710    1.48879424437244
C         2.02530108723974    0.19080063154056    2.37493265721237
C         2.42584591463915    0.02261779481998    3.69132851443407
C         2.83699213896473   -1.22191762929201    4.12380049481607
C         2.85752020900540   -2.29721130625310    3.25043287578033
C         2.45560864271120   -2.13248822647883    1.93190515394056
O         2.43564739040866   -3.11924220374627    0.99537590994152
C         2.83929765819023   -4.41486037746228    1.36804359216097
N         1.26843434501339    0.61442420632915   -0.33425334614284
C         2.13035701795789    1.37515584351453   -1.04730186308092
C         1.62352246741388    2.74843154837568   -1.36720877405599
C         1.44494601485452    3.16807073636609   -2.67775738401103
I         1.78402056935054    1.83662822913845   -4.27883808512163
C         1.01258527584885    4.45241857545944   -2.95934860096143
C         0.77759829830461    5.33770489957946   -1.92292939520077
C         0.98340237877589    4.94474491476106   -0.61114615096779
C         1.40655093957965    3.65826424209643   -0.33729392304795
O         3.23278368907280    0.99020083263589   -1.37208034285828
C        -0.11680655539902    0.92376044109632   -0.05401281665991
C        -0.86833601476897    1.56730891026462   -1.23682442165756
O        -0.75986890638169    0.87737513562207   -2.35447828948100
O        -1.52394428498671    2.56826044956496   -1.11111602759822
N        -0.68867402955081   -0.35683337941244    0.30120565755435
C        -1.54804489423610   -0.52767739054018    1.34531555727653
C        -2.28953530198821    0.72359844935112    1.71425788328356
C        -1.91588683408657    1.42511777808622    2.85500955409213
C        -2.58765727200107    2.57863929170518    3.21797593980557
C        -3.64539193895198    3.03293125403910    2.44793054936267
C        -4.04149188605013    2.33176259990872    1.32253907915275
C        -3.36061012626243    1.18308084765926    0.96429009815743
I        -3.99369142760770    0.10541106578187   -0.73509543498448
O        -1.71949203433621   -1.58101160281841    1.91099087622182
H        -3.94014964263891   -3.21187728910931   -1.31557946099090
H        -2.92418442823992   -4.66394025368091   -1.06534657427096
H        -3.53584621262753   -3.74322198173616    0.33490526302756
H        -2.57077363098089   -3.58315220306519   -3.15580192066708
H        -1.15128137128311   -3.04785241130096   -5.07117389976811
H         0.94210986367871   -1.76644752620636   -4.75004486227755
H         1.59263860690003   -1.03348254590254   -2.52803448707972
H         0.05238572012304   -2.27182687608777    0.55291066855632
H         2.34566503683054   -1.16292906100423   -0.59777377094879
H         1.71969967065346    1.16974836229935    2.03667791325369
H         2.41596969519730    0.86174938127475    4.37018672058409
H         3.14896997981066   -1.36576002336149    5.14726876782319
H         3.18745543411602   -3.25903201437838    3.60894908757287
H         3.88373422700866   -4.43353511615909    1.69411757264594
H         2.20151249572743   -4.82129204641006    2.15879429615504
H         2.73115426362451   -5.02140483259731    0.47053031125248
H         0.86285162555387    4.76003360138867   -3.98298210403141
H         0.43775666324154    6.33767984127083   -2.14427568398362
H         0.81250526740208    5.63858644451017    0.19725121427547
H         1.58536120034800    3.35227016760337    0.68338433015822
H        -0.22449382417452    1.63519447716427    0.78262270637466
H        -1.30727366393750    1.24374192376718   -3.06963886159860
H        -1.09307215327989    1.05283292448044    3.44885521425338
H        -2.28673758394371    3.12094544161713    4.10138044630196
H        -4.17159328483154    3.93381057173807    2.72450105066639
H        -4.87152808812877    2.67884194196959    0.72711136192737

          :  Hamiltonian                  GFN2-xTB          :
         :: total energy            -119.700289658859 Eh    ::
         :: gradient norm              0.000418820341 Eh/a0 ::
         :: HOMO-LUMO gap              2.681604322577 eV    ::
         :: SCC energy              -121.342639244108 Eh    ::
         :: -> dispersion             -0.112701682454 Eh    ::
         :: repulsion energy           1.637198728619 Eh    ::

    * Orbital Energies and Occupations

         #    Occupation            Energy/Eh            Energy/eV
      -------------------------------------------------------------
         1        2.0000           -0.7783682             -21.1805
       ...           ...                  ...                  ...
        95        2.0000           -0.4253461             -11.5743
        96        2.0000           -0.4170510             -11.3485
        97        2.0000           -0.4128112             -11.2332
        98        2.0000           -0.4110591             -11.1855
        99        2.0000           -0.4090669             -11.1313
       100        2.0000           -0.4077755             -11.0961
       101        2.0000           -0.4040078             -10.9936
       102        2.0000           -0.4033202             -10.9749
       103        2.0000           -0.4026776             -10.9574
       104        2.0000           -0.4021278             -10.9425
       105        2.0000           -0.3983105             -10.8386
       106        2.0000           -0.3863923             -10.5143
       107        2.0000           -0.3751463             -10.2083 (HOMO)
       108                         -0.2765991              -7.5266 (LUMO)
       109                         -0.2593398              -7.0570
       110                         -0.2568172              -6.9884
       111                         -0.2549158              -6.9366
       112                         -0.2535362              -6.8991
       113                         -0.2366068              -6.4384
       114                         -0.2332701              -6.3476
       115                         -0.2291891              -6.2366
       116                         -0.2241965              -6.1007
       117                         -0.2234306              -6.0799
       118                         -0.2183789              -5.9424
       ...                                ...                  ...
       204                          0.6748345              18.3632
      -------------------------------------------------------------
                  HL-Gap            0.0985471 Eh            2.6816 eV

     #   Z          covCN         q      C6AA      Î±(0)
     1   6 C        2.870     0.141    24.928     8.184
     2   8 O        1.706    -0.256    18.245     5.767
     3   6 C        3.643     0.035    20.320     6.480
     4   6 C        2.917    -0.068    29.687     8.935
     5   6 C        2.921    -0.032    28.797     8.800
     6   6 C        2.918    -0.042    29.041     8.837
     7   6 C        2.922    -0.033    28.814     8.803
     8   6 C        2.969    -0.019    28.490     8.755
     9   6 C        3.840     0.043    19.820     6.333
    10   6 C        3.839     0.043    19.822     6.334
    11   6 C        2.973    -0.019    28.483     8.754
    12   6 C        2.923    -0.033    28.827     8.805
    13   6 C        2.918    -0.042    29.033     8.836
    14   6 C        2.921    -0.031    28.763     8.795
    15   6 C        2.917    -0.063    29.577     8.918
    16   6 C        2.871     0.140    24.936     8.186
    17   8 O        1.705    -0.270    18.469     5.802
    18   6 C        3.644     0.036    20.313     6.479
    19   7 N        2.773    -0.111    23.418     7.187
    20   6 C        2.782     0.277    22.308     7.736
    21   6 C        3.098    -0.027    28.543     8.756
    22   6 C        2.959     0.055    26.762     8.485
    23  53 I        1.251    -0.110   380.104    33.655
    24   6 C        3.062    -0.030    28.686     8.783
    25   6 C        2.923    -0.021    28.537     8.760
    26   6 C        2.918    -0.023    28.583     8.767
    27   6 C        2.927    -0.026    28.653     8.778
    28   8 O        0.860    -0.410    21.876     6.271
    29   6 C        3.765     0.097    19.027     6.217
    30   6 C        2.689     0.355    20.970     7.494
    31   8 O        1.661    -0.333    19.603     5.977
    32   8 O        0.856    -0.408    21.848     6.267
    33   7 N        2.776    -0.114    23.491     7.199
    34   6 C        2.785     0.281    22.240     7.725
    35   6 C        3.105    -0.023    28.450     8.740
    36   6 C        2.926    -0.026    28.649     8.778
    37   6 C        2.918    -0.028    28.688     8.783
    38   6 C        2.923    -0.024    28.614     8.772
    39   6 C        3.060    -0.025    28.573     8.766
    40   6 C        2.960     0.056    26.731     8.480
    41  53 I        1.259    -0.123   381.061    33.698
    42   8 O        0.858    -0.398    21.632     6.236
    43   1 H        0.924     0.045     2.384     2.415
    44   1 H        0.924     0.039     2.456     2.451
    45   1 H        0.925     0.071     2.075     2.253
    46   1 H        0.926     0.040     2.446     2.446
    47   1 H        0.926     0.038     2.475     2.460
    48   1 H        0.926     0.044     2.400     2.422
    49   1 H        0.926     0.052     2.297     2.370
    50   1 H        0.924     0.097     1.810     2.104
    51   1 H        0.924     0.095     1.832     2.117
    52   1 H        0.926     0.023     2.689     2.564
    53   1 H        0.926     0.035     2.522     2.483
    54   1 H        0.926     0.040     2.454     2.450
    55   1 H        0.926     0.042     2.417     2.431
    56   1 H        0.924     0.044     2.393     2.419
    57   1 H        0.924     0.045     2.379     2.412
    58   1 H        0.925     0.066     2.131     2.283
    59   1 H        0.926     0.058     2.223     2.331
    60   1 H        0.926     0.051     2.307     2.375
    61   1 H        0.926     0.048     2.344     2.394
    62   1 H        0.926     0.035     2.519     2.482
    63   1 H        0.923     0.049     2.328     2.386
    64   1 H        0.804     0.352     0.584     1.200
    65   1 H        0.926     0.044     2.392     2.418
    66   1 H        0.926     0.046     2.369     2.407
    67   1 H        0.926     0.049     2.338     2.391
    68   1 H        0.926     0.059     2.209     2.324

Wiberg/Mayer (AO) data.
largest (>0.10) Wiberg bond orders for each atom

     #   Z sym  total        # sym  WBO       # sym  WBO       # sym  WBO
 ---------------------------------------------------------------------------
     1   6 C    3.936 --     4 C    1.378     8 C    1.315     2 O    1.075
     2   8 O    2.257 --     1 C    1.075     3 C    0.982
     3   6 C    3.943 --     2 O    0.982    45 H    0.978    44 H    0.977
                            43 H    0.974
     4   6 C    3.987 --     5 C    1.434     1 C    1.378    46 H    0.965
                             7 C    0.102
     5   6 C    3.991 --     6 C    1.446     4 C    1.434    47 H    0.971
                             8 C    0.106
     6   6 C    3.990 --     5 C    1.446     7 C    1.419    48 H    0.969
     7   6 C    3.989 --     8 C    1.444     6 C    1.419    49 H    0.961
                             4 C    0.102
     8   6 C    3.980 --     7 C    1.444     1 C    1.315     9 C    0.987
                             5 C    0.106
     9   6 C    3.954 --     8 C    0.987    10 C    0.962    33 N    0.942
                            50 H    0.942
    10   6 C    3.958 --    11 C    0.988     9 C    0.962    19 N    0.958
                            51 H    0.938
    11   6 C    3.983 --    12 C    1.448    16 C    1.312    10 C    0.988
                            14 C    0.106
    12   6 C    3.990 --    11 C    1.448    13 C    1.415    52 H    0.966
                            15 C    0.100
    13   6 C    3.991 --    14 C    1.450    12 C    1.415    53 H    0.971
    14   6 C    3.991 --    13 C    1.450    15 C    1.429    54 H    0.971
                            11 C    0.106
    15   6 C    3.987 --    14 C    1.429    16 C    1.387    55 H    0.965
                            12 C    0.100
    16   6 C    3.936 --    15 C    1.387    11 C    1.312    17 O    1.067
    17   8 O    2.239 --    16 C    1.067    18 C    0.981
    18   6 C    3.942 --    17 O    0.981    58 H    0.979    56 H    0.976
                            57 H    0.976
    19   7 N    3.476 --    20 C    1.222    29 C    0.981    10 C    0.958
                            28 O    0.194
    20   6 C    3.950 --    28 O    1.688    19 N    1.222    21 C    0.958
    21   6 C    3.987 --    22 C    1.394    27 C    1.392    20 C    0.958
                            25 C    0.106
    22   6 C    3.960 --    24 C    1.421    21 C    1.394    23 I    0.977
                            26 C    0.101
    23  53 I    1.135 --    22 C    0.977
    24   6 C    3.989 --    25 C    1.440    22 C    1.421    59 H    0.967
                            27 C    0.109
    25   6 C    3.990 --    24 C    1.440    26 C    1.429    60 H    0.968
                            21 C    0.106
    26   6 C    3.991 --    27 C    1.448    25 C    1.429    61 H    0.969
                            22 C    0.101
    27   6 C    3.991 --    26 C    1.448    21 C    1.392    62 H    0.966
                            24 C    0.109
    28   8 O    2.036 --    20 C    1.688    19 N    0.194
    29   6 C    3.974 --    33 N    0.984    19 N    0.981    63 H    0.942
                            30 C    0.912
    30   6 C    3.923 --    32 O    1.749    31 O    1.186    29 C    0.912
    31   8 O    2.262 --    30 C    1.186    64 H    0.848    32 O    0.184
    32   8 O    2.040 --    30 C    1.749    31 O    0.184
    33   7 N    3.456 --    34 C    1.196    29 C    0.984     9 C    0.942
                            42 O    0.188
    34   6 C    3.948 --    42 O    1.720    33 N    1.196    35 C    0.952
    35   6 C    3.987 --    40 C    1.399    36 C    1.398    34 C    0.952
                            38 C    0.108
    36   6 C    3.990 --    37 C    1.442    35 C    1.398    65 H    0.967
                            39 C    0.110
    37   6 C    3.991 --    36 C    1.442    38 C    1.434    66 H    0.969
                            40 C    0.102
    38   6 C    3.991 --    39 C    1.437    37 C    1.434    67 H    0.968
                            35 C    0.108
    39   6 C    3.989 --    38 C    1.437    40 C    1.424    68 H    0.967
                            36 C    0.110
    40   6 C    3.956 --    39 C    1.424    35 C    1.399    41 I    0.967
                            37 C    0.102
    41  53 I    1.115 --    40 C    0.967
    42   8 O    2.050 --    34 C    1.720    33 N    0.188
    43   1 H    0.998 --     3 C    0.974
    44   1 H    0.998 --     3 C    0.977
    45   1 H    0.995 --     3 C    0.978
    46   1 H    0.998 --     4 C    0.965
    47   1 H    0.998 --     5 C    0.971
    48   1 H    0.998 --     6 C    0.969
    49   1 H    0.997 --     7 C    0.961
    50   1 H    0.989 --     9 C    0.942
    51   1 H    0.990 --    10 C    0.938
    52   1 H    0.999 --    12 C    0.966
    53   1 H    0.998 --    13 C    0.971
    54   1 H    0.998 --    14 C    0.971
    55   1 H    0.998 --    15 C    0.965
    56   1 H    0.998 --    18 C    0.976
    57   1 H    0.998 --    18 C    0.976
    58   1 H    0.995 --    18 C    0.979
    59   1 H    0.996 --    24 C    0.967
    60   1 H    0.997 --    25 C    0.968
    61   1 H    0.996 --    26 C    0.969
    62   1 H    0.999 --    27 C    0.966
    63   1 H    0.997 --    29 C    0.942
    64   1 H    0.876 --    31 O    0.848
    65   1 H    0.998 --    36 C    0.967
    66   1 H    0.996 --    37 C    0.969
    67   1 H    0.997 --    38 C    0.968
    68   1 H    0.996 --    39 C    0.967
 ---------------------------------------------------------------------------

molecular dipole:
                 x           y           z       tot (Debye)
 q only:       -0.609       0.001       0.367
   full:       -0.451       0.800       1.668       4.841

           -------------------------------------------------
          | TOTAL ENERGY             -119.700289658859 Eh   |
          | GRADIENT NORM               0.000418820341 Eh/Î± |
          | HOMO-LUMO GAP               2.681604322577 eV   |
           -------------------------------------------------

 * finished run on 2022/03/16 at 22:10:31.386
