   * xtb version 6.3.3 (4ae9cef) compiled by 'conda@95abc7406d43' on 2020-10-14
          program call               : xtb acid_116.xyz --opt --chrg 0 --uhf 0 --gfn 2
          number of atoms            :                    80
          number of electrons        :                   242
          charge                     :                     0
          spin                       :                   0.0

   ID    Z sym.   atoms
    1    6 C      1, 3-16, 18, 20-29, 32, 33, 37-46
    2    8 O      2, 17, 30, 31, 34, 35, 47, 48
    3    7 N      19, 36
    4    1 H      49-80

          :  Hamiltonian                  GFN2-xTB          :
 * total energy  :  -136.1210921 Eh     change       -0.4263995E-08 Eh
 * total energy  :  -136.1354196 Eh     change       -0.1432748E-01 Eh
 * total energy  :  -136.1398719 Eh     change       -0.4452284E-02 Eh
 * total energy  :  -136.1416086 Eh     change       -0.1736705E-02 Eh
 * total energy  :  -136.1426839 Eh     change       -0.1075250E-02 Eh
 * total energy  :  -136.1434131 Eh     change       -0.7292371E-03 Eh
 * total energy  :  -136.1441516 Eh     change       -0.7385201E-03 Eh
 * total energy  :  -136.1448997 Eh     change       -0.7481280E-03 Eh
 * total energy  :  -136.1455909 Eh     change       -0.6912039E-03 Eh
 * total energy  :  -136.1462303 Eh     change       -0.6393647E-03 Eh
 * total energy  :  -136.1536421 Eh     change       -0.5142710E-04 Eh
 * total energy  :  -136.1536923 Eh     change       -0.5021801E-04 Eh
 * total energy  :  -136.1537146 Eh     change       -0.2234793E-04 Eh
 * total energy  :  -136.1537447 Eh     change       -0.3003718E-04 Eh
 * total energy  :  -136.1537598 Eh     change       -0.1516341E-04 Eh
 * total energy  :  -136.1537676 Eh     change       -0.7754820E-05 Eh
 * total energy  :  -136.1537740 Eh     change       -0.6400763E-05 Eh
 * total energy  :  -136.1537799 Eh     change       -0.5888020E-05 Eh
 * total energy  :  -136.1537845 Eh     change       -0.4609572E-05 Eh
   *** GEOMETRY OPTIMIZATION CONVERGED AFTER 88 ITERATIONS ***

 final structure:
================
80
 xtb: 6.3.3 (4ae9cef)
C         1.32813143431752   -3.98491858356721    0.78062825897299
O         1.60627255193562   -4.20339540198787   -0.53384188167332
C         1.93461119891048   -5.50488610997867   -0.94798769430929
C         1.33755929231791   -4.96376038849406    1.76586861209889
C         1.02265787297770   -4.63678176096906    3.07493576536524
C         0.69150775959897   -3.33992171511828    3.41450695406744
C         0.68077975498989   -2.36053791778562    2.43492818307861
C         1.00504547602222   -2.66463489503432    1.12671653440433
C         0.96970293166872   -1.63397224393752    0.02915534025579
C        -0.40938671520269   -1.60846104652332   -0.65107000668331
C        -0.37568468857995   -2.10329382545227   -2.07295227078503
C         0.19779066735646   -1.35940206548000   -3.08826158040768
C         0.22184960388466   -1.83158505723910   -4.39019535738222
C        -0.33106596557255   -3.06373520466118   -4.67622078903122
C        -0.89732554027137   -3.82951027412562   -3.67056560095136
C        -0.92173610912717   -3.36324269303884   -2.36203837080382
O        -1.43425404526539   -4.06204072806670   -1.31085203567264
C        -2.08036028377726   -5.28347343378974   -1.56456119512647
N        -0.86366152573731   -0.22534164773278   -0.51370335271233
C        -2.18376473950429    0.00557159053733   -0.74430561782015
C        -2.79829976556372    1.29650988264458   -0.38631567598516
C        -4.10016626802584    1.67571556061486   -0.58185980827667
C        -5.19542009900636    0.94471004226037   -1.26304199985828
C        -4.23041062176071    2.97534186932780    0.01250125894101
C        -5.27788148092522    3.88355519251829    0.15416718612509
C        -5.02629218646446    5.06633251250420    0.81444174893728
C        -3.76338719839060    5.35755194961679    1.33368388788795
C        -2.70951740119926    4.47422902567099    1.20594351207143
C        -2.96789325454676    3.28903627539842    0.53923490445150
O        -2.09313261499907    2.27709815447462    0.29429780779561
O        -2.87563135467210   -0.87894425915388   -1.22547494548794
C         0.15959806946439    0.62656944910038    0.04583667473794
C         0.77052117885606    1.55900063089745   -1.05223061327924
O         0.08226842142307    2.66013687158832   -1.31870604045179
O         1.77737047504594    1.27260960884698   -1.63025347847354
N         1.16944265237964   -0.27970460927961    0.52107848063639
C         2.41744063503963    0.04873470303164    0.96713238061459
C         2.70356021627135    1.46072604295343    1.25547311066365
C         3.91166736962672    2.02048162149526    1.58022953851833
C         5.21704749170319    1.35004365096260    1.79488765629082
C         3.67696338802710    3.43118196367735    1.67033280079487
C         2.31170727865087    3.61142888676427    1.38418807176120
C         1.71885727174104    4.86345884993280    1.36391703501325
C         2.52954854795581    5.94502717353425    1.64418089849449
C         3.88582744111760    5.78448530148089    1.93580377252470
C         4.47436473997832    4.53932300114593    1.95130639049372
O         1.72003550569422    2.41915691259956    1.14391495423868
O         3.25607024662608   -0.81849315639516    1.14151023068197
H         2.85011921136951   -5.86369583733219   -0.46652953624550
H         1.11906370999519   -6.20800936107911   -0.74776821596906
H         2.09614039343996   -5.43632037561279   -2.02321739259286
H         1.59075981211875   -5.98471893696639    1.52656804271860
H         1.03672198534833   -5.40884481449676    3.83024000680328
H         0.44387674384466   -3.08891934425537    4.43467375860974
H         0.42733481389787   -1.34259530356925    2.69321258625375
H         1.75717478265707   -1.87420023836322   -0.69562122615779
H        -1.11932193329150   -2.24103106753733   -0.10485407867288
H         0.64114702831275   -0.40215092568562   -2.86450590597418
H         0.67139781663549   -1.23753249881108   -5.17074440513436
H        -0.32267528159714   -3.44313623230126   -5.68760434654866
H        -1.31800759277586   -4.79087531031956   -3.92065719308420
H        -2.43484778992872   -5.63406231835234   -0.59589089481984
H        -1.39371600868807   -6.02537896127600   -1.98702973035153
H        -2.93475153890187   -5.15468640514265   -2.23652609020067
H        -4.85228561844346   -0.03517544344065   -1.57733400136418
H        -6.04278438063129    0.83602031268628   -0.58718888319540
H        -5.52899005493059    1.51084100398733   -2.13225597017738
H        -6.25560623677563    3.65974914182196   -0.24250120752380
H        -5.82009938946804    5.78719701198757    0.93866856824677
H        -3.60805289547091    6.29359289937509    1.84771762022317
H        -1.73394056213515    4.68783210690770    1.61252372841124
H        -0.23874347124609    1.23417658634687    0.87079784328130
H        -0.69830592506985    2.75329304937037   -0.73974559655030
H         5.11804043144102    0.28276631147169    1.62688024968328
H         5.95901157500093    1.76174254748120    1.11181240245365
H         5.56177891162845    1.52631585408589    2.81342800965225
H         0.67436815790033    4.98329064743362    1.12404080132116
H         2.10756605508132    6.93866935057840    1.63408506721709
H         4.48102967003630    6.65999627715671    2.14800078858158
H         5.52366896569929    4.41786756807820    2.17096256635476

          :  Hamiltonian                  GFN2-xTB          :
         :: total energy            -136.153784484698 Eh    ::
         :: gradient norm              0.000646369215 Eh/a0 ::
         :: HOMO-LUMO gap              2.301439670020 eV    ::
         :: SCC energy              -138.073182239679 Eh    ::
         :: -> dispersion             -0.111183714985 Eh    ::
         :: repulsion energy           1.917209674255 Eh    ::

    * Orbital Energies and Occupations

         #    Occupation            Energy/Eh            Energy/eV
      -------------------------------------------------------------
         1        2.0000           -0.7659360             -20.8422
       ...           ...                  ...                  ...
       109        2.0000           -0.4199440             -11.4273
       110        2.0000           -0.4171378             -11.3509
       111        2.0000           -0.4053014             -11.0288
       112        2.0000           -0.4048481             -11.0165
       113        2.0000           -0.4045477             -11.0083
       114        2.0000           -0.4002672             -10.8918
       115        2.0000           -0.3950113             -10.7488
       116        2.0000           -0.3923810             -10.6772
       117        2.0000           -0.3889020             -10.5826
       118        2.0000           -0.3880420             -10.5592
       119        2.0000           -0.3805581             -10.3555
       120        2.0000           -0.3729482             -10.1484
       121        2.0000           -0.3684079             -10.0249 (HOMO)
       122                         -0.2838315              -7.7234 (LUMO)
       123                         -0.2682818              -7.3003
       124                         -0.2447454              -6.6599
       125                         -0.2397340              -6.5235
       126                         -0.2232653              -6.0754
       127                         -0.2215351              -6.0283
       128                         -0.2208432              -6.0094
       129                         -0.2142695              -5.8306
       130                         -0.2077181              -5.6523
       131                         -0.2075608              -5.6480
       132                         -0.2050308              -5.5792
       ...                                ...                  ...
       224                          0.7167414              19.5035
      -------------------------------------------------------------
                  HL-Gap            0.0845764 Eh            2.3014 eV

     #   Z          covCN         q      C6AA      Î±(0)
     1   6 C        2.870     0.144    24.855     8.172
     2   8 O        1.705    -0.268    18.436     5.797
     3   6 C        3.644     0.041    20.224     6.464
     4   6 C        2.917    -0.065    29.619     8.925
     5   6 C        2.921    -0.033    28.812     8.802
     6   6 C        2.918    -0.041    29.018     8.834
     7   6 C        2.923    -0.030    28.738     8.791
     8   6 C        2.974    -0.007    28.188     8.709
     9   6 C        3.830     0.047    19.763     6.325
    10   6 C        3.831     0.046    19.784     6.329
    11   6 C        2.971    -0.008    28.209     8.712
    12   6 C        2.923    -0.034    28.840     8.807
    13   6 C        2.918    -0.040    28.993     8.830
    14   6 C        2.921    -0.032    28.807     8.802
    15   6 C        2.918    -0.066    29.644     8.928
    16   6 C        2.869     0.148    24.780     8.160
    17   8 O        1.705    -0.267    18.424     5.795
    18   6 C        3.644     0.041    20.228     6.465
    19   7 N        2.757    -0.109    23.378     7.181
    20   6 C        2.764     0.257    22.673     7.798
    21   6 C        3.051     0.071    26.355     8.419
    22   6 C        3.022     0.008    27.816     8.651
    23   6 C        3.754    -0.117    22.806     6.810
    24   6 C        3.075    -0.018    28.369     8.733
    25   6 C        2.913    -0.030    28.753     8.793
    26   6 C        2.921    -0.035    28.866     8.811
    27   6 C        2.928    -0.029    28.728     8.790
    28   6 C        2.908    -0.052    29.299     8.876
    29   6 C        3.071     0.125    25.190     8.229
    30   8 O        1.717    -0.260    18.299     5.776
    31   8 O        0.861    -0.436    22.404     6.346
    32   6 C        3.746     0.077    19.365     6.277
    33   6 C        2.685     0.358    20.925     7.486
    34   8 O        1.658    -0.368    20.233     6.072
    35   8 O        0.856    -0.361    20.914     6.131
    36   7 N        2.760    -0.106    23.318     7.172
    37   6 C        2.764     0.266    22.511     7.770
    38   6 C        3.074     0.079    26.163     8.386
    39   6 C        3.024     0.005    27.874     8.660
    40   6 C        3.754    -0.115    22.766     6.804
    41   6 C        3.081    -0.018    28.373     8.732
    42   6 C        3.087     0.132    25.032     8.201
    43   6 C        2.908    -0.051    29.269     8.871
    44   6 C        2.927    -0.032    28.790     8.799
    45   6 C        2.921    -0.037    28.920     8.819
    46   6 C        2.912    -0.031    28.770     8.795
    47   8 O        1.718    -0.245    18.062     5.738
    48   8 O        0.860    -0.429    22.274     6.328
    49   1 H        0.924     0.043     2.407     2.426
    50   1 H        0.924     0.039     2.467     2.456
    51   1 H        0.925     0.061     2.191     2.315
    52   1 H        0.926     0.038     2.480     2.463
    53   1 H        0.926     0.036     2.506     2.476
    54   1 H        0.926     0.035     2.515     2.480
    55   1 H        0.926     0.034     2.531     2.488
    56   1 H        0.924     0.084     1.942     2.179
    57   1 H        0.924     0.083     1.949     2.183
    58   1 H        0.926     0.048     2.349     2.397
    59   1 H        0.926     0.039     2.465     2.455
    60   1 H        0.926     0.035     2.515     2.480
    61   1 H        0.926     0.036     2.500     2.472
    62   1 H        0.925     0.059     2.206     2.323
    63   1 H        0.924     0.037     2.495     2.470
    64   1 H        0.924     0.044     2.392     2.419
    65   1 H        0.925     0.088     1.902     2.157
    66   1 H        0.925     0.059     2.209     2.324
    67   1 H        0.925     0.059     2.209     2.324
    68   1 H        0.926     0.048     2.342     2.393
    69   1 H        0.926     0.045     2.388     2.416
    70   1 H        0.926     0.047     2.355     2.400
    71   1 H        0.926     0.048     2.349     2.397
    72   1 H        0.923     0.072     2.063     2.246
    73   1 H        0.804     0.344     0.604     1.220
    74   1 H        0.925     0.084     1.934     2.175
    75   1 H        0.925     0.058     2.224     2.332
    76   1 H        0.925     0.056     2.248     2.345
    77   1 H        0.926     0.040     2.451     2.448
    78   1 H        0.926     0.041     2.431     2.438
    79   1 H        0.926     0.040     2.451     2.448
    80   1 H        0.926     0.045     2.386     2.416

Wiberg/Mayer (AO) data.
largest (>0.10) Wiberg bond orders for each atom

     #   Z sym  total        # sym  WBO       # sym  WBO       # sym  WBO
 ---------------------------------------------------------------------------
     1   6 C    3.934 --     4 C    1.384     8 C    1.317     2 O    1.064
     2   8 O    2.238 --     1 C    1.064     3 C    0.985
     3   6 C    3.946 --     2 O    0.985    51 H    0.980    49 H    0.976
                            50 H    0.976
     4   6 C    3.987 --     5 C    1.430     1 C    1.384    52 H    0.966
                             7 C    0.101
     5   6 C    3.990 --     6 C    1.448     4 C    1.430    53 H    0.971
                             8 C    0.106
     6   6 C    3.991 --     5 C    1.448     7 C    1.419    54 H    0.971
     7   6 C    3.990 --     8 C    1.445     6 C    1.419    55 H    0.968
                             4 C    0.101
     8   6 C    3.983 --     7 C    1.445     1 C    1.317     9 C    0.990
                             5 C    0.106
     9   6 C    3.960 --     8 C    0.990    36 N    0.961    10 C    0.954
                            56 H    0.945
    10   6 C    3.956 --    11 C    0.989     9 C    0.954    19 N    0.951
                            57 H    0.946
    11   6 C    3.981 --    12 C    1.443    16 C    1.321    10 C    0.989
                            14 C    0.106
    12   6 C    3.989 --    11 C    1.443    13 C    1.421    58 H    0.965
                            15 C    0.102
    13   6 C    3.991 --    14 C    1.447    12 C    1.421    59 H    0.971
    14   6 C    3.990 --    13 C    1.447    15 C    1.432    60 H    0.971
                            11 C    0.106
    15   6 C    3.987 --    14 C    1.432    16 C    1.383    61 H    0.966
                            12 C    0.102
    16   6 C    3.934 --    15 C    1.383    11 C    1.321    17 O    1.062
    17   8 O    2.237 --    16 C    1.062    18 C    0.985
    18   6 C    3.947 --    17 O    0.985    62 H    0.980    64 H    0.976
                            63 H    0.975
    19   7 N    3.478 --    20 C    1.214    32 C    0.982    10 C    0.951
                            31 O    0.190
    20   6 C    3.958 --    31 O    1.623    19 N    1.214    21 C    1.029
    21   6 C    3.896 --    22 C    1.568    20 C    1.029    30 O    1.019
    22   6 C    3.982 --    21 C    1.568    24 C    1.175    23 C    1.042
    23   6 C    3.988 --    22 C    1.042    65 H    0.972    66 H    0.965
                            67 H    0.963
    24   6 C    3.985 --    25 C    1.333    29 C    1.284    22 C    1.175
    25   6 C    3.983 --    26 C    1.499    24 C    1.333    68 H    0.968
                            28 C    0.115
    26   6 C    3.991 --    25 C    1.499    27 C    1.386    69 H    0.970
    27   6 C    3.980 --    28 C    1.475    26 C    1.386    70 H    0.971
    28   6 C    3.987 --    27 C    1.475    29 C    1.363    71 H    0.965
                            25 C    0.115
    29   6 C    3.917 --    28 C    1.363    24 C    1.284    30 O    1.054
    30   8 O    2.356 --    29 C    1.054    21 C    1.019
    31   8 O    1.989 --    20 C    1.623    19 N    0.190
    32   6 C    3.965 --    36 N    0.997    19 N    0.982    72 H    0.936
                            33 C    0.885
    33   6 C    3.921 --    35 O    1.790    34 O    1.166    32 C    0.885
    34   8 O    2.223 --    33 C    1.166    73 H    0.817    35 O    0.170
    35   8 O    2.086 --    33 C    1.790    34 O    0.170
    36   7 N    3.453 --    37 C    1.188    32 C    0.997     9 C    0.961
                            48 O    0.181
    37   6 C    3.956 --    48 O    1.642    36 N    1.188    38 C    1.033
    38   6 C    3.901 --    39 C    1.554    47 O    1.039    37 C    1.033
    39   6 C    3.983 --    38 C    1.554    41 C    1.184    40 C    1.041
    40   6 C    3.990 --    39 C    1.041    74 H    0.973    75 H    0.966
                            76 H    0.965
    41   6 C    3.985 --    46 C    1.332    42 C    1.274    39 C    1.184
    42   6 C    3.919 --    43 C    1.356    41 C    1.274    47 O    1.077
    43   6 C    3.987 --    44 C    1.479    42 C    1.356    77 H    0.966
                            46 C    0.114
    44   6 C    3.980 --    43 C    1.479    45 C    1.382    78 H    0.971
    45   6 C    3.990 --    46 C    1.501    44 C    1.382    79 H    0.971
    46   6 C    3.983 --    45 C    1.501    41 C    1.332    80 H    0.968
                            43 C    0.114
    47   8 O    2.362 --    42 C    1.077    38 C    1.039
    48   8 O    1.992 --    37 C    1.642    36 N    0.181
    49   1 H    0.998 --     3 C    0.976
    50   1 H    0.998 --     3 C    0.976
    51   1 H    0.996 --     3 C    0.980
    52   1 H    0.998 --     4 C    0.966
    53   1 H    0.998 --     5 C    0.971
    54   1 H    0.998 --     6 C    0.971
    55   1 H    0.998 --     7 C    0.968
    56   1 H    0.992 --     9 C    0.945
    57   1 H    0.992 --    10 C    0.946
    58   1 H    0.997 --    12 C    0.965
    59   1 H    0.998 --    13 C    0.971
    60   1 H    0.998 --    14 C    0.971
    61   1 H    0.998 --    15 C    0.966
    62   1 H    0.996 --    18 C    0.980
    63   1 H    0.999 --    18 C    0.975
    64   1 H    0.998 --    18 C    0.976
    65   1 H    0.992 --    23 C    0.972
    66   1 H    0.996 --    23 C    0.965
    67   1 H    0.996 --    23 C    0.963
    68   1 H    0.998 --    25 C    0.968
    69   1 H    0.998 --    26 C    0.970
    70   1 H    0.997 --    27 C    0.971
    71   1 H    0.997 --    28 C    0.965
    72   1 H    0.994 --    32 C    0.936
    73   1 H    0.882 --    34 O    0.817
    74   1 H    0.992 --    40 C    0.973
    75   1 H    0.996 --    40 C    0.966
    76   1 H    0.996 --    40 C    0.965
    77   1 H    0.998 --    43 C    0.966
    78   1 H    0.998 --    44 C    0.971
    79   1 H    0.998 --    45 C    0.971
    80   1 H    0.998 --    46 C    0.968
 ---------------------------------------------------------------------------

molecular dipole:
                 x           y           z       tot (Debye)
 q only:       -1.447       0.348       0.671
   full:       -1.771       0.564       0.870       5.217

           -------------------------------------------------
          | TOTAL ENERGY             -136.153784484698 Eh   |
          | GRADIENT NORM               0.000646369215 Eh/Î± |
          | HOMO-LUMO GAP               2.301439670020 eV   |
           -------------------------------------------------

 * finished run on 2022/03/16 at 21:29:05.788
