   * xtb version 6.3.3 (4ae9cef) compiled by 'conda@95abc7406d43' on 2020-10-14
          program call               : xtb acid_381.xyz --opt --chrg 0 --uhf 0 --gfn 2
          number of atoms            :                    72
          number of electrons        :                   234
          charge                     :                     0
          spin                       :                   0.0

   ID    Z sym.   atoms
    1    6 C      1, 3-16, 18, 20-22, 26-29, 31, 32, 36-42
    2    8 O      2, 17, 24, 25, 30, 33, 34, 44-46
    3    7 N      19, 23, 35, 43
    4    1 H      47-72

          :  Hamiltonian                  GFN2-xTB          :
 * total energy  :  -133.9497018 Eh     change       -0.1777920E-08 Eh
 * total energy  :  -133.9685618 Eh     change       -0.1886008E-01 Eh
 * total energy  :  -133.9743477 Eh     change       -0.5785896E-02 Eh
 * total energy  :  -133.9765925 Eh     change       -0.2244784E-02 Eh
 * total energy  :  -133.9785456 Eh     change       -0.1953123E-02 Eh
 * total energy  :  -133.9800761 Eh     change       -0.1530472E-02 Eh
 * total energy  :  -133.9814254 Eh     change       -0.1349321E-02 Eh
 * total energy  :  -133.9825455 Eh     change       -0.1120022E-02 Eh
 * total energy  :  -133.9838315 Eh     change       -0.1285996E-02 Eh
 * total energy  :  -133.9848671 Eh     change       -0.1035632E-02 Eh
 * total energy  :  -133.9969906 Eh     change       -0.2630695E-04 Eh
 * total energy  :  -133.9970099 Eh     change       -0.1928056E-04 Eh
 * total energy  :  -133.9970278 Eh     change       -0.1792870E-04 Eh
 * total energy  :  -133.9970443 Eh     change       -0.1644305E-04 Eh
 * total energy  :  -133.9970529 Eh     change       -0.8687544E-05 Eh
 * total energy  :  -133.9970575 Eh     change       -0.4566859E-05 Eh
 * total energy  :  -133.9970641 Eh     change       -0.6552704E-05 Eh
 * total energy  :  -133.9970698 Eh     change       -0.5704829E-05 Eh
 * total energy  :  -133.9970747 Eh     change       -0.4972981E-05 Eh
   *** GEOMETRY OPTIMIZATION CONVERGED AFTER 48 ITERATIONS ***

 final structure:
================
72
 xtb: 6.3.3 (4ae9cef)
C         1.68109160921769   -1.80893145164658    2.03426730381683
O         1.20114702531269   -0.53707160263033    2.21828320697235
C         1.29055728389984    0.03189235037700    3.50074967985715
C         2.33636448665393   -2.53745966709788    3.01774793171317
C         2.79767362856968   -3.81560330069862    2.75026594913536
C         2.61204308758611   -4.37814521814887    1.50311215668487
C         1.96003324403259   -3.65352753634006    0.52038917338814
C         1.48826353407850   -2.37610307618473    0.76618962782948
C         0.74449040300609   -1.63070455586952   -0.31381641488890
C        -0.74372107935660   -1.46007623399170    0.02641418807806
C        -1.69169941111268   -2.07009549353193   -0.97725580643483
C        -1.53932629236518   -1.85423156898032   -2.33649221173068
C        -2.45987163494719   -2.34828115764692   -3.24353304568967
C        -3.54970984688738   -3.06230806330256   -2.78469783280157
C        -3.70961773641957   -3.30580225252988   -1.43228687232360
C        -2.78119219463418   -2.82425533774202   -0.51530227203244
O        -2.83770129114073   -3.06357210192068    0.82150301812754
C        -4.02886932440517   -3.57928285096723    1.36274757691177
N        -0.93311039987435   -0.01108391712840    0.10493482481305
C        -2.00713345480713    0.51037655769241    0.74710112772281
C        -2.05383397043399    2.01842207772951    0.69020617616391
C        -2.55727389436537    2.69910292878171   -0.41720627581042
N        -3.07411680389443    1.96402226824764   -1.54470350006180
O        -3.39243629024601    0.80993510545446   -1.37491084742370
O        -3.15004294301539    2.55687286970648   -2.60215902204226
C        -2.57617155529714    4.08796540771994   -0.46287748470808
C        -2.10428729013094    4.81097043648155    0.61468188164447
C        -1.62380290738223    4.14692027206378    1.73341677627134
C        -1.59936061071418    2.76294835761161    1.77032004369536
O        -2.82774277139189   -0.13651825106723    1.35122755988921
C         0.23702815444867    0.73727718081114   -0.26544395047377
C         0.05836369155053    1.61384772556734   -1.53148313324028
O        -0.64253684563547    1.02699490682663   -2.47205794052847
O         0.50821173642411    2.72988604375700   -1.59794623597228
N         1.24379505909340   -0.27083085373131   -0.47201606331488
C         2.54494050171122   -0.05261085579118   -0.75073278801662
C         3.01224422795020    1.37762071332989   -0.67442779753700
C         3.33399888260478    1.91765581605566    0.56290975605603
C         3.90963543107237    3.17451797543588    0.65166416119261
C         4.19261653000820    3.90327219234165   -0.49408225599131
C         3.88813084750064    3.37857298157786   -1.73470829969856
C         3.29823587183155    2.12417400995743   -1.81515294886266
N         2.91706645538246    1.61715672343044   -3.10178584741871
O         3.43469313602889    2.09705573624580   -4.08312537720659
O         2.06110342989647    0.75233023091726   -3.12381308372426
O         3.33993510346605   -0.94263738487997   -0.96375667123603
H         2.33056551891921    0.14105725187747    3.82723255697157
H         0.83854864685969    1.02033271133232    3.41908614018866
H         0.73835560093343   -0.55530814908454    4.24079426287128
H         2.49455308259723   -2.12074696369733    3.99983657138391
H         3.30592114540661   -4.36573447115738    3.52793476863223
H         2.97415119029957   -5.37227099261175    1.29310613628619
H         1.81441281794855   -4.08278251585483   -0.45884682301252
H         0.87599009151668   -2.16809626800471   -1.25891269157797
H        -0.97699807834433   -1.88163117385463    1.00989659022666
H        -0.69775703889144   -1.28232729546995   -2.69337823584261
H        -2.33012833073280   -2.16590497126520   -4.29900491705494
H        -4.28475672714115   -3.43959728279802   -3.48038785886756
H        -4.56487027000234   -3.87187598383820   -1.09884267343217
H        -3.89538748869462   -3.55099992557111    2.44290066622427
H        -4.88774575654738   -2.96011232794420    1.09006741722419
H        -4.20278195944605   -4.61422052179531    1.04718776875278
H        -2.96821078988255    4.57479483574766   -1.34268780957250
H        -2.11737523515091    5.88895569043017    0.58672977017911
H        -1.26537966258790    4.71083590301942    2.58118001037293
H        -1.23129772086942    2.24500440385884    2.64321721865522
H         0.53871298268199    1.43544295019623    0.53715974676106
H        -0.70740511438859    1.55499291811973   -3.28720702583876
H         3.13623341881750    1.34109078967352    1.45351243038993
H         4.14590506867009    3.58606148885683    1.62158276682370
H         4.64522245522650    4.87961550117915   -0.41860437529942
H         4.08342133993908    3.92276726237039   -2.64591055223748

          :  Hamiltonian                  GFN2-xTB          :
         :: total energy            -133.997074743104 Eh    ::
         :: gradient norm              0.000688094014 Eh/a0 ::
         :: HOMO-LUMO gap              1.117765987627 eV    ::
         :: SCC energy              -135.712761583012 Eh    ::
         :: -> dispersion             -0.108659130893 Eh    ::
         :: repulsion energy           1.710577796909 Eh    ::

    * Orbital Energies and Occupations

         #    Occupation            Energy/Eh            Energy/eV
      -------------------------------------------------------------
         1        2.0000           -0.7813311             -21.2611
       ...           ...                  ...                  ...
       105        2.0000           -0.4419899             -12.0272
       106        2.0000           -0.4383726             -11.9287
       107        2.0000           -0.4346302             -11.8269
       108        2.0000           -0.4293154             -11.6823
       109        2.0000           -0.4168699             -11.3436
       110        2.0000           -0.4162020             -11.3254
       111        2.0000           -0.4082625             -11.1094
       112        2.0000           -0.4041787             -10.9983
       113        2.0000           -0.4036799             -10.9847
       114        2.0000           -0.3975773             -10.8186
       115        2.0000           -0.3923864             -10.6774
       116        2.0000           -0.3875372             -10.5454
       117        2.0000           -0.3694737             -10.0539 (HOMO)
       118                         -0.3283966              -8.9361 (LUMO)
       119                         -0.3263465              -8.8803
       120                         -0.2738631              -7.4522
       121                         -0.2669747              -7.2648
       122                         -0.2643699              -7.1939
       123                         -0.2517942              -6.8517
       124                         -0.2473823              -6.7316
       125                         -0.2333364              -6.3494
       126                         -0.2231069              -6.0710
       127                         -0.2219187              -6.0387
       128                         -0.2194379              -5.9712
       ...                                ...                  ...
       210                          0.6755857              18.3836
      -------------------------------------------------------------
                  HL-Gap            0.0410771 Eh            1.1178 eV

     #   Z          covCN         q      C6AA      Î±(0)
     1   6 C        2.867     0.139    24.966     8.190
     2   8 O        1.704    -0.287    18.763     5.848
     3   6 C        3.643     0.045    20.167     6.456
     4   6 C        2.918    -0.065    29.614     8.924
     5   6 C        2.921    -0.030    28.754     8.794
     6   6 C        2.917    -0.036    28.894     8.815
     7   6 C        2.926    -0.027    28.687     8.784
     8   6 C        2.972    -0.010    28.269     8.721
     9   6 C        3.821     0.043    19.835     6.338
    10   6 C        3.820     0.041    19.873     6.344
    11   6 C        2.972    -0.018    28.464     8.751
    12   6 C        2.923    -0.034    28.854     8.809
    13   6 C        2.918    -0.038    28.946     8.823
    14   6 C        2.921    -0.028    28.705     8.786
    15   6 C        2.918    -0.063    29.576     8.918
    16   6 C        2.869     0.147    24.802     8.164
    17   8 O        1.705    -0.263    18.351     5.784
    18   6 C        3.645     0.038    20.272     6.471
    19   7 N        2.765    -0.097    23.137     7.144
    20   6 C        2.762     0.280    22.252     7.725
    21   6 C        2.973    -0.006    28.168     8.706
    22   6 C        2.918     0.003    27.960     8.671
    23   7 N        2.760     0.544    13.540     5.465
    24   8 O        0.929    -0.365    20.954     6.139
    25   8 O        0.930    -0.392    21.487     6.217
    26   6 C        2.919    -0.016    28.417     8.742
    27   6 C        2.920    -0.020    28.500     8.755
    28   6 C        2.919    -0.016    28.410     8.741
    29   6 C        2.924    -0.022    28.548     8.762
    30   8 O        0.858    -0.389    21.468     6.212
    31   6 C        3.747     0.089    19.164     6.244
    32   6 C        2.686     0.353    20.998     7.499
    33   8 O        1.659    -0.327    19.492     5.960
    34   8 O        0.856    -0.422    22.128     6.307
    35   7 N        2.764    -0.084    22.870     7.103
    36   6 C        2.764     0.280    22.255     7.726
    37   6 C        2.972     0.000    28.014     8.682
    38   6 C        2.925    -0.022    28.559     8.764
    39   6 C        2.919    -0.015    28.392     8.738
    40   6 C        2.920    -0.020    28.505     8.755
    41   6 C        2.919    -0.014    28.352     8.732
    42   6 C        2.921     0.016    27.664     8.625
    43   7 N        2.761     0.553    13.453     5.447
    44   8 O        0.930    -0.368    21.013     6.148
    45   8 O        0.931    -0.402    21.687     6.245
    46   8 O        0.859    -0.411    21.895     6.274
    47   1 H        0.924     0.038     2.477     2.461
    48   1 H        0.925     0.049     2.331     2.387
    49   1 H        0.924     0.046     2.377     2.411
    50   1 H        0.926     0.039     2.467     2.456
    51   1 H        0.926     0.041     2.438     2.442
    52   1 H        0.926     0.044     2.391     2.418
    53   1 H        0.926     0.050     2.322     2.383
    54   1 H        0.924     0.078     2.000     2.212
    55   1 H        0.924     0.089     1.888     2.149
    56   1 H        0.926     0.055     2.255     2.348
    57   1 H        0.926     0.040     2.452     2.449
    58   1 H        0.926     0.038     2.475     2.460
    59   1 H        0.926     0.040     2.454     2.450
    60   1 H        0.925     0.063     2.168     2.303
    61   1 H        0.924     0.050     2.315     2.380
    62   1 H        0.924     0.036     2.496     2.471
    63   1 H        0.926     0.086     1.923     2.168
    64   1 H        0.926     0.063     2.164     2.301
    65   1 H        0.926     0.059     2.205     2.322
    66   1 H        0.926     0.056     2.251     2.346
    67   1 H        0.922     0.057     2.238     2.340
    68   1 H        0.804     0.359     0.568     1.184
    69   1 H        0.926     0.057     2.234     2.337
    70   1 H        0.926     0.058     2.228     2.334
    71   1 H        0.926     0.061     2.185     2.311
    72   1 H        0.926     0.085     1.924     2.169

Wiberg/Mayer (AO) data.
largest (>0.10) Wiberg bond orders for each atom

     #   Z sym  total        # sym  WBO       # sym  WBO       # sym  WBO
 ---------------------------------------------------------------------------
     1   6 C    3.931 --     4 C    1.390     8 C    1.330     2 O    1.041
     2   8 O    2.209 --     1 C    1.041     3 C    0.987
     3   6 C    3.948 --     2 O    0.987    48 H    0.978    49 H    0.976
                            47 H    0.976
     4   6 C    3.987 --     5 C    1.431     1 C    1.390    50 H    0.965
                             7 C    0.103
     5   6 C    3.990 --     6 C    1.447     4 C    1.431    51 H    0.971
                             8 C    0.107
     6   6 C    3.991 --     5 C    1.447     7 C    1.426    52 H    0.970
     7   6 C    3.988 --     8 C    1.436     6 C    1.426    53 H    0.967
                             4 C    0.103
     8   6 C    3.983 --     7 C    1.436     1 C    1.330     9 C    0.989
                             5 C    0.107
     9   6 C    3.958 --     8 C    0.989    10 C    0.963    35 N    0.950
                            54 H    0.950
    10   6 C    3.953 --    11 C    0.987     9 C    0.963    55 H    0.948
                            19 N    0.942
    11   6 C    3.979 --    12 C    1.436    16 C    1.325    10 C    0.987
                            14 C    0.105
    12   6 C    3.989 --    11 C    1.436    13 C    1.428    56 H    0.962
                            15 C    0.104
    13   6 C    3.991 --    14 C    1.440    12 C    1.428    57 H    0.971
    14   6 C    3.990 --    15 C    1.440    13 C    1.440    58 H    0.971
                            11 C    0.105
    15   6 C    3.987 --    14 C    1.440    16 C    1.375    59 H    0.966
                            12 C    0.104
    16   6 C    3.937 --    15 C    1.375    11 C    1.325    17 O    1.070
    17   8 O    2.242 --    16 C    1.070    18 C    0.981
    18   6 C    3.944 --    17 O    0.981    60 H    0.979    61 H    0.977
                            62 H    0.976
    19   7 N    3.475 --    20 C    1.214    31 C    0.996    10 C    0.942
                            30 O    0.195
    20   6 C    3.956 --    30 O    1.710    19 N    1.214    21 C    0.939
    21   6 C    3.984 --    29 C    1.414    22 C    1.356    20 C    0.939
                            27 C    0.105
    22   6 C    3.962 --    26 C    1.382    21 C    1.356    23 N    0.961
    23   7 N    3.912 --    24 O    1.466    25 O    1.437    22 C    0.961
    24   8 O    1.971 --    23 N    1.466    25 O    0.362
    25   8 O    1.921 --    23 N    1.437    24 O    0.362
    26   6 C    3.984 --    27 C    1.453    22 C    1.382    63 H    0.959
                            29 C    0.106
    27   6 C    3.989 --    26 C    1.453    28 C    1.426    64 H    0.968
                            21 C    0.105
    28   6 C    3.988 --    29 C    1.439    27 C    1.426    65 H    0.968
    29   6 C    3.989 --    28 C    1.439    21 C    1.414    66 H    0.966
                            26 C    0.106
    30   8 O    2.052 --    20 C    1.710    19 N    0.195
    31   6 C    3.973 --    19 N    0.996    35 N    0.985    67 H    0.941
                            32 C    0.901
    32   6 C    3.921 --    34 O    1.737    33 O    1.205    31 C    0.901
    33   8 O    2.271 --    32 C    1.205    68 H    0.841    34 O    0.188
    34   8 O    2.023 --    32 C    1.737    33 O    0.188
    35   7 N    3.491 --    36 C    1.232    31 C    0.985     9 C    0.950
                            46 O    0.195
    36   6 C    3.955 --    46 O    1.682    35 N    1.232    37 C    0.944
    37   6 C    3.983 --    38 C    1.414    42 C    1.354    36 C    0.944
                            40 C    0.105
    38   6 C    3.989 --    39 C    1.437    37 C    1.414    69 H    0.966
                            41 C    0.106
    39   6 C    3.989 --    38 C    1.437    40 C    1.427    70 H    0.968
    40   6 C    3.990 --    41 C    1.452    39 C    1.427    71 H    0.968
                            37 C    0.105
    41   6 C    3.984 --    40 C    1.452    42 C    1.379    72 H    0.960
                            38 C    0.106
    42   6 C    3.962 --    41 C    1.379    37 C    1.354    43 N    0.970
    43   7 N    3.915 --    44 O    1.466    45 O    1.430    42 C    0.970
    44   8 O    1.948 --    43 N    1.466    45 O    0.354
    45   8 O    1.933 --    43 N    1.430    44 O    0.354
    46   8 O    2.034 --    36 C    1.682    35 N    0.195
    47   1 H    0.999 --     3 C    0.976
    48   1 H    0.997 --     3 C    0.978
    49   1 H    0.998 --     3 C    0.976
    50   1 H    0.998 --     4 C    0.965
    51   1 H    0.998 --     5 C    0.971
    52   1 H    0.998 --     6 C    0.970
    53   1 H    0.997 --     7 C    0.967
    54   1 H    0.993 --     9 C    0.950
    55   1 H    0.991 --    10 C    0.948
    56   1 H    0.996 --    12 C    0.962
    57   1 H    0.998 --    13 C    0.971
    58   1 H    0.998 --    14 C    0.971
    59   1 H    0.998 --    15 C    0.966
    60   1 H    0.996 --    18 C    0.979
    61   1 H    0.997 --    18 C    0.977
    62   1 H    0.999 --    18 C    0.976
    63   1 H    0.992 --    26 C    0.959
    64   1 H    0.995 --    27 C    0.968
    65   1 H    0.996 --    28 C    0.968
    66   1 H    0.996 --    29 C    0.966
    67   1 H    0.996 --    31 C    0.941
    68   1 H    0.871 --    33 O    0.841
    69   1 H    0.996 --    38 C    0.966
    70   1 H    0.997 --    39 C    0.968
    71   1 H    0.995 --    40 C    0.968
    72   1 H    0.992 --    41 C    0.960
 ---------------------------------------------------------------------------

molecular dipole:
                 x           y           z       tot (Debye)
 q only:        0.332       1.264       3.047
   full:        0.281       1.680       3.168       9.143

           -------------------------------------------------
          | TOTAL ENERGY             -133.997074743104 Eh   |
          | GRADIENT NORM               0.000688094014 Eh/Î± |
          | HOMO-LUMO GAP               1.117765987627 eV   |
           -------------------------------------------------

 * finished run on 2022/03/17 at 00:31:54.450
