   * xtb version 6.3.3 (4ae9cef) compiled by 'conda@95abc7406d43' on 2020-10-14
          program call               : xtb acid_62.xyz --opt --chrg 0 --uhf 0 --gfn 2
          number of atoms            :                    76
          number of electrons        :                   246
          charge                     :                     0
          spin                       :                   0.0

   ID    Z sym.   atoms
    1    6 C      1-22, 24-29, 33, 35, 36, 40-43, 47-49
    2    7 N      23, 30, 39, 44
    3    8 O      31, 32, 34, 37, 38, 45, 46, 50
    4    1 H      51-76

          :  Hamiltonian                  GFN2-xTB          :
 * total energy  :  -138.6746038 Eh     change       -0.4297334E-08 Eh
 * total energy  :  -138.6983221 Eh     change       -0.2371836E-01 Eh
 * total energy  :  -138.7045097 Eh     change       -0.6187571E-02 Eh
 * total energy  :  -138.7057323 Eh     change       -0.1222568E-02 Eh
 * total energy  :  -138.7066617 Eh     change       -0.9294697E-03 Eh
 * total energy  :  -138.7072212 Eh     change       -0.5594581E-03 Eh
 * total energy  :  -138.7076246 Eh     change       -0.4034365E-03 Eh
 * total energy  :  -138.7082755 Eh     change       -0.6508242E-03 Eh
 * total energy  :  -138.7087949 Eh     change       -0.5194629E-03 Eh
 * total energy  :  -138.7095522 Eh     change       -0.7572519E-03 Eh
 * total energy  :  -138.7215092 Eh     change       -0.8116570E-05 Eh
 * total energy  :  -138.7215228 Eh     change       -0.1363304E-04 Eh
 * total energy  :  -138.7215371 Eh     change       -0.1432191E-04 Eh
 * total energy  :  -138.7215522 Eh     change       -0.1503674E-04 Eh
 * total energy  :  -138.7215588 Eh     change       -0.6590107E-05 Eh
 * total energy  :  -138.7215604 Eh     change       -0.1660168E-05 Eh
 * total energy  :  -138.7215657 Eh     change       -0.5306391E-05 Eh
 * total energy  :  -138.7215725 Eh     change       -0.6785159E-05 Eh
 * total energy  :  -138.7215774 Eh     change       -0.4874248E-05 Eh
   *** GEOMETRY OPTIMIZATION CONVERGED AFTER 98 ITERATIONS ***

 final structure:
================
76
 xtb: 6.3.3 (4ae9cef)
C        -2.89171173332124   -0.44113096056628    2.58187815327354
C        -3.54827343611400   -1.50150178515292    3.13785095691518
C        -2.94218185436349   -2.77262297277703    3.21231533495235
C        -3.59335694558330   -3.89044945724722    3.77346522702668
C        -2.97070160460025   -5.10605161712818    3.82490115842069
C        -1.66911912136414   -5.26013193277248    3.32099763964004
C        -1.01090794419286   -4.19632369658785    2.77150743238663
C        -1.62801040930381   -2.92981268996554    2.70121230179176
C        -0.97802528414265   -1.81761812785689    2.13060225012792
C        -1.58943034535425   -0.59185040228191    2.06678062582920
C        -0.92931989767455    0.59302193757872    1.39825855825726
C         0.59802693910071    0.67723123967004    1.60841592358844
C         1.10319035139526    2.09023290718002    1.78602462351217
C         2.15964513968762    2.57294493740276    1.06083194242115
C         2.60587114467400    3.90168438428814    1.21588598656883
C         3.67035503223923    4.42263069790471    0.45129442164084
C         4.07543413506456    5.71787426095178    0.61499438376067
C         3.43711391381811    6.54878829924565    1.54940279048400
C         2.40331579255825    6.07159260761358    2.30605164091179
C         1.96102314865586    4.74087093434385    2.16040022410887
C         0.90682007457559    4.20483563735861    2.92952398098215
C         0.49036467385505    2.91768584015409    2.74909975647458
N         1.10888305354867    0.03529835234542    0.40577062852125
C         2.06601371877911   -0.93256772613832    0.44213080319716
C         2.17307337479309   -1.77048471063168   -0.79736938571023
C         3.31115630494087   -1.75043483132206   -1.59461742224336
C         3.40371063921160   -2.57877206144069   -2.70314301745253
C         2.36838492207210   -3.43794975558864   -3.02525891859453
C         1.23767547112453   -3.45600766262430   -2.22133492735702
N         0.12884969152530   -4.32225688150404   -2.54785640540114
O         0.33782482832455   -5.24896619912174   -3.29176673169842
O        -0.93776902284155   -4.06570203821541   -2.02938668521331
C         1.13255235715221   -2.63773890558458   -1.10742461811724
O         2.74866184379758   -1.12057500326291    1.42362071175722
C         0.22722671440804    0.33868496043544   -0.68848503177007
C         0.68792678521003    1.63756424129964   -1.39099982037946
O        -0.07353484006827    2.68440722354462   -1.10235862186299
O         1.63185022865365    1.66930620674957   -2.12971164663524
N        -1.06285714029184    0.46622894688422   -0.05884309765826
C        -2.23297846578475    0.76595075682481   -0.67582323747515
C        -2.20992922695068    0.65224056486903   -2.17204877864754
C        -1.77960381188282   -0.49508047583693   -2.82283568504822
C        -1.75432780008953   -0.51069764889791   -4.21072519005880
N        -1.18753369942957   -1.65090629986512   -4.88556664324139
O        -0.42453223049240   -2.34300546703056   -4.24032451972917
O        -1.47045666186362   -1.82461809214178   -6.04649316367766
C        -2.20675851089479    0.56650655542021   -4.96193840274608
C        -2.68057353541286    1.68657193928719   -4.30393982152672
C        -2.67284912355903    1.73245111433356   -2.91920968142662
O        -3.22247604990016    1.11188078206012   -0.06901322300005
H        -3.37165734000341    0.52265369747514    2.51157977881907
H        -4.54889270472944   -1.37963217444098    3.52646142434504
H        -4.59501267469596   -3.76739250546926    4.15991538274333
H        -3.47537811702560   -5.95917447360688    4.25395570464844
H        -1.19344413389545   -6.22840389401784    3.37114410119798
H        -0.00782612667821   -4.30885053858703    2.38453477492455
H         0.02571930942922   -1.96327012003298    1.75798116372086
H        -1.43828508564755    1.51255308391392    1.70411373115596
H         0.91638745295390    0.08194824258033    2.47182560888133
H         2.68039223392552    1.94038650132331    0.35642056411155
H         4.15588250811971    3.77808836013226   -0.26745007645071
H         4.89105187451164    6.11194991179989    0.02687706654931
H         3.77202963957496    7.56894583089251    1.66559390139513
H         1.90977957781984    6.70659102937352    3.02767887258163
H         0.43334453889561    4.83243260181976    3.67051298740847
H        -0.30636035352626    2.51669109212901    3.35809626557547
H         4.11958492646843   -1.08135051251529   -1.34405989150526
H         4.28837894608267   -2.54973529797237   -3.31978227809741
H         2.40962433744449   -4.08333392470435   -3.88853467553389
H         0.24505779312389   -2.70241870904237   -0.49230871689145
H         0.27118453786486   -0.44867053053950   -1.44831730673200
H         0.26442952841009    3.49175952950866   -1.52379426816018
H        -1.50127089353437   -1.38932305177116   -2.28366101879824
H        -2.17449232771719    0.50977647943638   -6.03926933981364
H        -3.04707936397573    2.52843039205562   -4.87032434812703
H        -3.03088566685327    2.60612305408055   -2.39593118785396

          :  Hamiltonian                  GFN2-xTB          :
         :: total energy            -138.721577396685 Eh    ::
         :: gradient norm              0.000832763771 Eh/a0 ::
         :: HOMO-LUMO gap              1.367244015121 eV    ::
         :: SCC energy              -140.720315403514 Eh    ::
         :: -> dispersion             -0.113676788611 Eh    ::
         :: repulsion energy           1.994789627998 Eh    ::

    * Orbital Energies and Occupations

         #    Occupation            Energy/Eh            Energy/eV
      -------------------------------------------------------------
         1        2.0000           -0.7926855             -21.5701
       ...           ...                  ...                  ...
       111        2.0000           -0.4372178             -11.8973
       112        2.0000           -0.4323915             -11.7660
       113        2.0000           -0.4308921             -11.7252
       114        2.0000           -0.4298069             -11.6956
       115        2.0000           -0.4249384             -11.5632
       116        2.0000           -0.4216514             -11.4737
       117        2.0000           -0.4194643             -11.4142
       118        2.0000           -0.4166384             -11.3373
       119        2.0000           -0.4153354             -11.3019
       120        2.0000           -0.4112372             -11.1903
       121        2.0000           -0.4040216             -10.9940
       122        2.0000           -0.3942362             -10.7277
       123        2.0000           -0.3844204             -10.4606 (HOMO)
       124                         -0.3341751              -9.0934 (LUMO)
       125                         -0.3176965              -8.6450
       126                         -0.2877588              -7.8303
       127                         -0.2830762              -7.7029
       128                         -0.2745932              -7.4721
       129                         -0.2728248              -7.4239
       130                         -0.2663942              -7.2490
       131                         -0.2594027              -7.0587
       132                         -0.2471547              -6.7254
       133                         -0.2450974              -6.6694
       134                         -0.2359016              -6.4192
       ...                                ...                  ...
       226                          0.6917230              18.8227
      -------------------------------------------------------------
                  HL-Gap            0.0502453 Eh            1.3672 eV

     #   Z          covCN         q      C6AA      Î±(0)
     1   6 C        2.919    -0.033    28.818     8.803
     2   6 C        2.917    -0.032    28.801     8.800
     3   6 C        2.987     0.015    27.672     8.629
     4   6 C        2.918    -0.033    28.824     8.804
     5   6 C        2.916    -0.027    28.677     8.781
     6   6 C        2.916    -0.027    28.671     8.781
     7   6 C        2.918    -0.032    28.807     8.801
     8   6 C        2.987     0.015    27.669     8.629
     9   6 C        2.922    -0.043    29.058     8.840
    10   6 C        2.968    -0.002    28.065     8.690
    11   6 C        3.827     0.037    19.938     6.354
    12   6 C        3.835     0.036    19.947     6.354
    13   6 C        2.967     0.000    28.016     8.682
    14   6 C        2.922    -0.042    29.042     8.837
    15   6 C        2.987     0.013    27.722     8.637
    16   6 C        2.918    -0.036    28.885     8.813
    17   6 C        2.916    -0.029    28.714     8.787
    18   6 C        2.916    -0.029    28.721     8.788
    19   6 C        2.918    -0.034    28.851     8.808
    20   6 C        2.987     0.012    27.737     8.639
    21   6 C        2.917    -0.033    28.824     8.804
    22   6 C        2.920    -0.038    28.947     8.823
    23   7 N        2.772    -0.106    23.322     7.173
    24   6 C        2.760     0.274    22.372     7.746
    25   6 C        2.975    -0.010    28.260     8.720
    26   6 C        2.921    -0.011    28.284     8.721
    27   6 C        2.921    -0.018    28.453     8.747
    28   6 C        2.918    -0.013    28.340     8.730
    29   6 C        2.917     0.015    27.679     8.627
    30   7 N        2.760     0.565    13.316     5.420
    31   8 O        0.930    -0.367    21.004     6.146
    32   8 O        0.930    -0.395    21.551     6.226
    33   6 C        2.924    -0.027    28.678     8.782
    34   8 O        0.859    -0.402    21.718     6.248
    35   6 C        3.769     0.080    19.279     6.258
    36   6 C        2.687     0.350    21.052     7.509
    37   8 O        1.659    -0.355    20.001     6.037
    38   8 O        0.856    -0.388    21.449     6.209
    39   7 N        2.766    -0.111    23.431     7.189
    40   6 C        2.762     0.273    22.392     7.749
    41   6 C        2.976    -0.009    28.249     8.718
    42   6 C        2.920    -0.027    28.674     8.781
    43   6 C        2.918     0.008    27.852     8.654
    44   7 N        2.760     0.552    13.459     5.449
    45   8 O        0.930    -0.405    21.748     6.254
    46   8 O        0.930    -0.365    20.961     6.140
    47   6 C        2.918    -0.019    28.485     8.752
    48   6 C        2.920    -0.021    28.523     8.758
    49   6 C        2.925    -0.012    28.314     8.726
    50   8 O        0.859    -0.406    21.800     6.260
    51   1 H        0.926     0.051     2.303     2.373
    52   1 H        0.926     0.041     2.440     2.443
    53   1 H        0.926     0.035     2.515     2.480
    54   1 H        0.926     0.034     2.524     2.484
    55   1 H        0.926     0.035     2.513     2.479
    56   1 H        0.926     0.034     2.531     2.488
    57   1 H        0.926     0.030     2.591     2.517
    58   1 H        0.924     0.074     2.041     2.234
    59   1 H        0.924     0.088     1.902     2.157
    60   1 H        0.926     0.033     2.541     2.493
    61   1 H        0.926     0.037     2.493     2.469
    62   1 H        0.926     0.035     2.516     2.480
    63   1 H        0.926     0.035     2.519     2.482
    64   1 H        0.926     0.036     2.508     2.476
    65   1 H        0.926     0.041     2.440     2.443
    66   1 H        0.926     0.036     2.499     2.472
    67   1 H        0.926     0.065     2.144     2.290
    68   1 H        0.926     0.064     2.149     2.292
    69   1 H        0.926     0.089     1.891     2.150
    70   1 H        0.925     0.073     2.052     2.240
    71   1 H        0.924     0.079     1.994     2.209
    72   1 H        0.804     0.346     0.597     1.213
    73   1 H        0.926     0.083     1.952     2.185
    74   1 H        0.926     0.084     1.939     2.177
    75   1 H        0.926     0.065     2.146     2.291
    76   1 H        0.926     0.071     2.069     2.250

Wiberg/Mayer (AO) data.
largest (>0.10) Wiberg bond orders for each atom

     #   Z sym  total        # sym  WBO       # sym  WBO       # sym  WBO
 ---------------------------------------------------------------------------
     1   6 C    3.989 --     2 C    1.560    10 C    1.297    51 H    0.966
     2   6 C    3.991 --     1 C    1.560     3 C    1.279    52 H    0.967
                             9 C    0.115
     3   6 C    3.990 --     4 C    1.280     2 C    1.279     8 C    1.250
     4   6 C    3.992 --     5 C    1.558     3 C    1.280    53 H    0.968
                             7 C    0.118
     5   6 C    3.990 --     4 C    1.558     6 C    1.320    54 H    0.971
     6   6 C    3.992 --     7 C    1.559     5 C    1.320    55 H    0.971
     7   6 C    3.990 --     6 C    1.559     8 C    1.278    56 H    0.968
                             4 C    0.118
     8   6 C    3.991 --     9 C    1.283     7 C    1.278     3 C    1.250
     9   6 C    3.991 --    10 C    1.526     8 C    1.283    57 H    0.961
                             2 C    0.115
    10   6 C    3.983 --     9 C    1.526     1 C    1.297    11 C    0.984
    11   6 C    3.953 --    10 C    0.984    12 C    0.963    58 H    0.950
                            39 N    0.942
    12   6 C    3.956 --    13 C    0.987    11 C    0.963    23 N    0.960
                            59 H    0.940
    13   6 C    3.985 --    14 C    1.531    22 C    1.289    12 C    0.987
    14   6 C    3.991 --    13 C    1.531    15 C    1.277    60 H    0.963
                            21 C    0.113
    15   6 C    3.990 --    16 C    1.280    14 C    1.277    20 C    1.253
    16   6 C    3.990 --    17 C    1.556    15 C    1.280    61 H    0.968
                            19 C    0.118
    17   6 C    3.992 --    16 C    1.556    18 C    1.322    62 H    0.971
    18   6 C    3.990 --    19 C    1.555    17 C    1.322    63 H    0.971
    19   6 C    3.991 --    18 C    1.555    20 C    1.282    64 H    0.968
                            16 C    0.118
    20   6 C    3.990 --    19 C    1.282    21 C    1.274    15 C    1.253
    21   6 C    3.991 --    22 C    1.567    20 C    1.274    65 H    0.967
                            14 C    0.113
    22   6 C    3.991 --    21 C    1.567    13 C    1.289    66 H    0.967
    23   7 N    3.469 --    24 C    1.197    35 C    0.990    12 C    0.960
                            34 O    0.190
    24   6 C    3.947 --    34 O    1.708    23 N    1.197    25 C    0.958
    25   6 C    3.988 --    33 C    1.407    26 C    1.404    24 C    0.958
                            28 C    0.104
    26   6 C    3.987 --    27 C    1.434    25 C    1.404    67 H    0.967
    27   6 C    3.989 --    28 C    1.448    26 C    1.434    68 H    0.967
                            33 C    0.107
    28   6 C    3.983 --    27 C    1.448    29 C    1.385    69 H    0.960
                            25 C    0.104
    29   6 C    3.967 --    33 C    1.393    28 C    1.385    30 N    0.954
    30   7 N    3.919 --    31 O    1.474    32 O    1.446    29 C    0.954
    31   8 O    1.954 --    30 N    1.474    32 O    0.364
    32   8 O    1.926 --    30 N    1.446    31 O    0.364
    33   6 C    3.987 --    25 C    1.407    29 C    1.393    70 H    0.957
                            27 C    0.107
    34   8 O    2.039 --    24 C    1.708    23 N    0.190
    35   6 C    3.972 --    23 N    0.990    39 N    0.988    71 H    0.925
                            36 C    0.906
    36   6 C    3.919 --    38 O    1.775    37 O    1.164    35 C    0.906
    37   8 O    2.229 --    36 C    1.164    72 H    0.853    38 O    0.184
    38   8 O    2.057 --    36 C    1.775    37 O    0.184
    39   7 N    3.467 --    40 C    1.215    35 C    0.988    11 C    0.942
                            50 O    0.194
    40   6 C    3.953 --    50 O    1.696    39 N    1.215    41 C    0.961
    41   6 C    3.987 --    42 C    1.415    49 C    1.397    40 C    0.961
                            47 C    0.103
    42   6 C    3.986 --    41 C    1.415    43 C    1.388    73 H    0.955
                            48 C    0.106
    43   6 C    3.964 --    42 C    1.388    47 C    1.381    44 N    0.960
    44   7 N    3.913 --    46 O    1.472    45 O    1.435    43 C    0.960
    45   8 O    1.917 --    44 N    1.435    46 O    0.362
    46   8 O    1.955 --    44 N    1.472    45 O    0.362
    47   6 C    3.984 --    48 C    1.447    43 C    1.381    74 H    0.961
                            41 C    0.103
    48   6 C    3.989 --    47 C    1.447    49 C    1.437    75 H    0.967
                            42 C    0.106
    49   6 C    3.986 --    48 C    1.437    41 C    1.397    76 H    0.966
    50   8 O    2.028 --    40 C    1.696    39 N    0.194
    51   1 H    0.997 --     1 C    0.966
    52   1 H    0.997 --     2 C    0.967
    53   1 H    0.998 --     4 C    0.968
    54   1 H    0.998 --     5 C    0.971
    55   1 H    0.998 --     6 C    0.971
    56   1 H    0.998 --     7 C    0.968
    57   1 H    0.999 --     9 C    0.961
    58   1 H    0.993 --    11 C    0.950
    59   1 H    0.990 --    12 C    0.940
    60   1 H    0.998 --    14 C    0.963
    61   1 H    0.998 --    16 C    0.968
    62   1 H    0.998 --    17 C    0.971
    63   1 H    0.998 --    18 C    0.971
    64   1 H    0.998 --    19 C    0.968
    65   1 H    0.997 --    21 C    0.967
    66   1 H    0.998 --    22 C    0.967
    67   1 H    0.996 --    26 C    0.967
    68   1 H    0.995 --    27 C    0.967
    69   1 H    0.992 --    28 C    0.960
    70   1 H    0.995 --    33 C    0.957
    71   1 H    0.994 --    35 C    0.925
    72   1 H    0.880 --    37 O    0.853
    73   1 H    0.993 --    42 C    0.955
    74   1 H    0.992 --    47 C    0.961
    75   1 H    0.995 --    48 C    0.967
    76   1 H    0.995 --    49 C    0.966
 ---------------------------------------------------------------------------

molecular dipole:
                 x           y           z       tot (Debye)
 q only:        0.432       3.111       0.886
   full:        0.485       3.221       0.515       8.382

           -------------------------------------------------
          | TOTAL ENERGY             -138.721577396685 Eh   |
          | GRADIENT NORM               0.000832763771 Eh/Î± |
          | HOMO-LUMO GAP               1.367244015121 eV   |
           -------------------------------------------------

 * finished run on 2022/03/17 at 01:56:02.244
