   * xtb version 6.3.3 (4ae9cef) compiled by 'conda@95abc7406d43' on 2020-10-14
          program call               : xtb acid_420.xyz --opt --chrg 0 --uhf 0 --gfn 2
          number of atoms            :                    72
          number of electrons        :                   226
          charge                     :                     0
          spin                       :                   0.0

   ID    Z sym.   atoms
    1    6 C      1-22, 24-29, 31, 33, 34, 38-41, 43-45
    2    7 N      23, 37
    3   17 Cl     30, 42
    4    8 O      32, 35, 36, 46
    5    1 H      47-72

          :  Hamiltonian                  GFN2-xTB          :
 * total energy  :  -125.8512224 Eh     change       -0.4797300E-08 Eh
 * total energy  :  -125.8672569 Eh     change       -0.1603447E-01 Eh
 * total energy  :  -125.8716934 Eh     change       -0.4436508E-02 Eh
 * total energy  :  -125.8729955 Eh     change       -0.1302100E-02 Eh
 * total energy  :  -125.8737749 Eh     change       -0.7793634E-03 Eh
 * total energy  :  -125.8741365 Eh     change       -0.3616145E-03 Eh
 * total energy  :  -125.8745026 Eh     change       -0.3661580E-03 Eh
 * total energy  :  -125.8748986 Eh     change       -0.3959113E-03 Eh
 * total energy  :  -125.8753811 Eh     change       -0.4825742E-03 Eh
 * total energy  :  -125.8758781 Eh     change       -0.4969693E-03 Eh
 * total energy  :  -125.8853666 Eh     change       -0.1810005E-04 Eh
 * total energy  :  -125.8853773 Eh     change       -0.1069343E-04 Eh
 * total energy  :  -125.8853890 Eh     change       -0.1168318E-04 Eh
 * total energy  :  -125.8853791 Eh     change        0.9839958E-05 Eh
 * total energy  :  -125.8854002 Eh     change       -0.2106973E-04 Eh
 * total energy  :  -125.8854118 Eh     change       -0.1166481E-04 Eh
 * total energy  :  -125.8854200 Eh     change       -0.8197023E-05 Eh
 * total energy  :  -125.8854262 Eh     change       -0.6144721E-05 Eh
 * total energy  :  -125.8854284 Eh     change       -0.2217307E-05 Eh
   *** GEOMETRY OPTIMIZATION CONVERGED AFTER 98 ITERATIONS ***

 final structure:
================
72
 xtb: 6.3.3 (4ae9cef)
C        -4.77211431521136   -3.37748596111501   -1.03506410848381
C        -5.17685257507816   -3.22415240072568    0.26025462615972
C        -4.32356872436315   -2.60729996078868    1.18441886192986
C        -3.10187105392632   -2.13369524803474    0.79289617797544
C        -2.66119477531064   -2.24566383656846   -0.54258103100366
C        -3.51503797010683   -2.90575931442159   -1.46626511784888
C        -3.09063075720449   -3.08986334424519   -2.79824322535737
C        -1.86449251224591   -2.64714691688162   -3.19656455886509
C        -1.03039435973248   -1.96491329338496   -2.29953385817794
C        -1.41413376718997   -1.73345962394980   -1.00471409180659
C        -0.53163574423800   -0.99102010336752   -0.03664150154054
C         0.84363062369380   -0.48552198874961   -0.53049352222311
C         1.91412194655300   -1.54443629919275   -0.56228168830511
C         2.23540860510409   -2.17106441013524    0.61737943331206
C         3.17305000996118   -3.20871233838904    0.66440716181662
C         3.78239174023934   -3.62727938747018   -0.48256622467518
C         3.51701297939956   -2.98570182012871   -1.70896082145366
C         2.59200871737702   -1.90494022190768   -1.75885706436774
C         2.42993718759888   -1.24302508596106   -2.99666207272125
C         3.09325304669254   -1.65481406664203   -4.11873219217533
C         3.96336717666887   -2.75248443886011   -4.07318229685932
C         4.17703220538565   -3.39383355556340   -2.88752769074807
N         1.13781011891030    0.56480009633066    0.45265107468243
C         2.27620361656974    1.30257591734129    0.40494714341109
C         2.31603962613620    2.41544236382285    1.41153552148064
C         3.05304364997501    2.27883458552899    2.57912629360365
C         3.08092141402395    3.31394891767186    3.49796807562826
C         2.38190992542636    4.48541336423137    3.26221793609434
C         1.66005815249013    4.61575395649151    2.08684266748547
Cl        0.78194614173348    6.07049742114145    1.77576544335628
C         1.62210954495979    3.59251895003738    1.15489721001460
O         3.16285493415595    1.07897711157215   -0.38640606748221
C        -0.02609235933745    0.82443062194116    1.27023530630406
C         0.08210102854022    0.16406714556447    2.66859886986719
O        -1.09705406595231   -0.14349790915896    3.20565702207013
O         1.12065341320574   -0.02335065079898    3.22424297834073
N        -1.12164035591026    0.24953627052441    0.51838994691698
C        -1.95347637460727    1.04705560987850   -0.24809343759866
C        -2.10209389678330    2.45191799217158    0.25454193708715
C        -2.54861185917971    2.74086856587562    1.53898822317446
C        -2.66853543813467    4.06365421867822    1.93483913628999
Cl       -3.21117206295658    4.41588066486397    3.53522529527307
C        -2.35075554987110    5.09970029879813    1.07019413651733
C        -1.92271902641674    4.80324082091063   -0.21196349482441
C        -1.80337243696691    3.48788895272904   -0.62443138764304
O        -2.54038207866143    0.65269671739947   -1.22433450993580
H        -5.41067591281966   -3.86848861180767   -1.75535016136745
H        -6.14224990628585   -3.58473892618112    0.58254366662680
H        -4.63490885397260   -2.51205231751950    2.21459276274753
H        -2.45822607860317   -1.68936011534607    1.53591964373888
H        -3.75125517474978   -3.59239805546140   -3.48961210346998
H        -1.52450948681411   -2.80134424282500   -4.20963879713902
H        -0.07384887032143   -1.62876043657763   -2.66095368807161
H        -0.34700241486257   -1.64985068754123    0.82498233040999
H         0.72702060478102    0.00182399955090   -1.50275998700267
H         1.77504467584528   -1.85464970753572    1.54217868426143
H         3.39696088913649   -3.67473106589528    1.61214296104938
H         4.49124550529684   -4.44255607661923   -0.46656303438445
H         1.80375829284296   -0.36724202938145   -3.06942447658455
H         2.95498560718139   -1.12584396204383   -5.05044806839305
H         4.47242162877511   -3.06928560688096   -4.97137455465649
H         4.86678290749713   -4.22369785076319   -2.82761586674583
H         3.58864702532851    1.36219370645350    2.76509144015402
H         3.64933026773242    3.20837919775287    4.40887639404833
H         2.39716788901968    5.29252980572312    3.97753000591561
H         1.06538408699623    3.71818421892136    0.23722667643085
H        -0.16131630449320    1.89960683723606    1.44525810611786
H        -1.82800171383610    0.00827559587075    2.57992800030011
H        -2.82650552913636    1.95471081020012    2.22446336779666
H        -2.44213563357351    6.12249992156454    1.39821534110387
H        -1.67930657334066    5.60504990570015   -0.89140696634837
H        -1.47784067305902    3.25116730631815   -1.62592319126920

          :  Hamiltonian                  GFN2-xTB          :
         :: total energy            -125.885428406455 Eh    ::
         :: gradient norm              0.000564622193 Eh/a0 ::
         :: HOMO-LUMO gap              2.692416674965 eV    ::
         :: SCC energy              -127.798944655508 Eh    ::
         :: -> dispersion             -0.113318724162 Eh    ::
         :: repulsion energy           1.909478711636 Eh    ::

    * Orbital Energies and Occupations

         #    Occupation            Energy/Eh            Energy/eV
      -------------------------------------------------------------
         1        2.0000           -1.0719521             -29.1693
       ...           ...                  ...                  ...
       101        2.0000           -0.4263482             -11.6015
       102        2.0000           -0.4245267             -11.5520
       103        2.0000           -0.4215005             -11.4696
       104        2.0000           -0.4207599             -11.4495
       105        2.0000           -0.4185745             -11.3900
       106        2.0000           -0.4164138             -11.3312
       107        2.0000           -0.4117463             -11.2042
       108        2.0000           -0.4079485             -11.1008
       109        2.0000           -0.4069524             -11.0737
       110        2.0000           -0.4034613             -10.9787
       111        2.0000           -0.4025560             -10.9541
       112        2.0000           -0.3848683             -10.4728
       113        2.0000           -0.3802460             -10.3470 (HOMO)
       114                         -0.2813015              -7.6546 (LUMO)
       115                         -0.2718362              -7.3970
       116                         -0.2676915              -7.2843
       117                         -0.2648816              -7.2078
       118                         -0.2635954              -7.1728
       119                         -0.2554681              -6.9516
       120                         -0.2507983              -6.8246
       121                         -0.2383760              -6.4865
       122                         -0.2354414              -6.4067
       123                         -0.2313254              -6.2947
       124                         -0.2231007              -6.0709
       ...                                ...                  ...
       220                          0.6928008              18.8521
      -------------------------------------------------------------
                  HL-Gap            0.0989445 Eh            2.6924 eV

     #   Z          covCN         q      C6AA      Î±(0)
     1   6 C        2.921    -0.031    28.779     8.797
     2   6 C        2.915    -0.029    28.719     8.788
     3   6 C        2.917    -0.030    28.745     8.792
     4   6 C        2.918    -0.039    28.973     8.827
     5   6 C        2.986     0.015    27.667     8.628
     6   6 C        2.989     0.020    27.557     8.611
     7   6 C        2.920    -0.032    28.796     8.800
     8   6 C        2.915    -0.026    28.654     8.778
     9   6 C        2.920    -0.033    28.834     8.806
    10   6 C        2.964     0.008    27.827     8.653
    11   6 C        3.864     0.047    19.738     6.318
    12   6 C        3.826     0.047    19.772     6.327
    13   6 C        2.966     0.003    27.961     8.673
    14   6 C        2.924    -0.033    28.835     8.806
    15   6 C        2.914    -0.028    28.708     8.786
    16   6 C        2.921    -0.034    28.840     8.807
    17   6 C        2.989     0.017    27.627     8.622
    18   6 C        2.982     0.017    27.626     8.622
    19   6 C        2.917    -0.029    28.733     8.790
    20   6 C        2.917    -0.028    28.692     8.784
    21   6 C        2.915    -0.029    28.712     8.787
    22   6 C        2.922    -0.033    28.813     8.803
    23   7 N        2.767    -0.128    23.780     7.243
    24   6 C        2.759     0.278    22.304     7.734
    25   6 C        2.980    -0.012    28.316     8.729
    26   6 C        2.920    -0.021    28.535     8.760
    27   6 C        2.923    -0.021    28.537     8.760
    28   6 C        2.953    -0.038    28.934     8.823
    29   6 C        2.889     0.097    25.843     8.334
    30  17 Cl       0.969    -0.175   104.662    15.651
    31   6 C        2.960    -0.045    29.125     8.852
    32   8 O        0.859    -0.405    21.781     6.257
    33   6 C        3.800     0.074    19.356     6.264
    34   6 C        2.686     0.346    21.122     7.521
    35   8 O        1.659    -0.354    19.981     6.034
    36   8 O        0.856    -0.345    20.613     6.087
    37   7 N        2.759    -0.160    24.465     7.346
    38   6 C        2.761     0.279    22.284     7.731
    39   6 C        2.976    -0.018    28.459     8.751
    40   6 C        2.959    -0.046    29.137     8.854
    41   6 C        2.888     0.103    25.714     8.314
    42  17 Cl       0.969    -0.160   104.166    15.614
    43   6 C        2.954    -0.030    28.748     8.794
    44   6 C        2.921    -0.019    28.474     8.751
    45   6 C        2.923    -0.025    28.629     8.775
    46   8 O        0.858    -0.382    21.326     6.191
    47   1 H        0.926     0.037     2.484     2.465
    48   1 H        0.926     0.035     2.518     2.482
    49   1 H        0.926     0.032     2.556     2.500
    50   1 H        0.926     0.019     2.750     2.593
    51   1 H        0.926     0.039     2.457     2.451
    52   1 H        0.926     0.039     2.467     2.456
    53   1 H        0.926     0.041     2.433     2.439
    54   1 H        0.923     0.051     2.312     2.378
    55   1 H        0.924     0.053     2.281     2.362
    56   1 H        0.926     0.034     2.527     2.486
    57   1 H        0.926     0.038     2.471     2.458
    58   1 H        0.926     0.038     2.477     2.461
    59   1 H        0.926     0.031     2.566     2.505
    60   1 H        0.926     0.034     2.532     2.488
    61   1 H        0.926     0.034     2.535     2.490
    62   1 H        0.926     0.035     2.515     2.480
    63   1 H        0.926     0.069     2.098     2.265
    64   1 H        0.926     0.060     2.194     2.316
    65   1 H        0.926     0.064     2.157     2.297
    66   1 H        0.926     0.046     2.373     2.409
    67   1 H        0.924     0.064     2.153     2.295
    68   1 H        0.804     0.336     0.623     1.240
    69   1 H        0.926     0.049     2.332     2.388
    70   1 H        0.926     0.071     2.075     2.253
    71   1 H        0.926     0.063     2.169     2.303
    72   1 H        0.926     0.058     2.222     2.331

Wiberg/Mayer (AO) data.
largest (>0.10) Wiberg bond orders for each atom

     #   Z sym  total        # sym  WBO       # sym  WBO       # sym  WBO
 ---------------------------------------------------------------------------
     1   6 C    3.991 --     2 C    1.554     6 C    1.283    47 H    0.968
                             4 C    0.118
     2   6 C    3.992 --     1 C    1.554     3 C    1.326    48 H    0.971
     3   6 C    3.992 --     4 C    1.550     2 C    1.326    49 H    0.971
     4   6 C    3.992 --     3 C    1.550     5 C    1.290    50 H    0.960
                             1 C    0.118
     5   6 C    3.989 --     4 C    1.290     6 C    1.257    10 C    1.241
     6   6 C    3.990 --     1 C    1.283     7 C    1.273     5 C    1.257
     7   6 C    3.991 --     8 C    1.561     6 C    1.273    51 H    0.968
                            10 C    0.114
     8   6 C    3.992 --     7 C    1.561     9 C    1.318    52 H    0.970
     9   6 C    3.990 --    10 C    1.532     8 C    1.318    53 H    0.960
    10   6 C    3.982 --     9 C    1.532     5 C    1.241    11 C    0.997
                             7 C    0.114
    11   6 C    3.955 --    10 C    0.997    12 C    0.960    54 H    0.943
                            37 N    0.937
    12   6 C    3.959 --    13 C    0.993    11 C    0.960    55 H    0.947
                            23 N    0.943
    13   6 C    3.983 --    14 C    1.520    18 C    1.254    12 C    0.993
                            16 C    0.115
    14   6 C    3.991 --    13 C    1.520    15 C    1.329    56 H    0.965
    15   6 C    3.992 --    16 C    1.551    14 C    1.329    57 H    0.970
    16   6 C    3.990 --    15 C    1.551    17 C    1.281    58 H    0.968
                            13 C    0.115
    17   6 C    3.990 --    16 C    1.281    22 C    1.279    18 C    1.251
    18   6 C    3.988 --    19 C    1.282    13 C    1.254    17 C    1.251
    19   6 C    3.992 --    20 C    1.554    18 C    1.282    59 H    0.958
                            22 C    0.118
    20   6 C    3.990 --    19 C    1.554    21 C    1.322    60 H    0.971
    21   6 C    3.992 --    22 C    1.558    20 C    1.322    61 H    0.971
    22   6 C    3.991 --    21 C    1.558    17 C    1.279    62 H    0.968
                            19 C    0.118
    23   7 N    3.455 --    24 C    1.208    33 C    0.982    12 C    0.943
                            32 O    0.195
    24   6 C    3.949 --    32 O    1.709    23 N    1.208    25 C    0.950
    25   6 C    3.987 --    26 C    1.410    31 C    1.403    24 C    0.950
                            28 C    0.108
    26   6 C    3.988 --    27 C    1.436    25 C    1.410    63 H    0.966
                            29 C    0.101
    27   6 C    3.989 --    28 C    1.441    26 C    1.436    64 H    0.967
                            31 C    0.109
    28   6 C    3.988 --    27 C    1.441    29 C    1.403    65 H    0.967
                            25 C    0.108
    29   6 C    3.918 --    31 C    1.407    28 C    1.403    30 Cl   0.972
                            26 C    0.101
    30  17 Cl   1.108 --    29 C    0.972
    31   6 C    3.989 --    29 C    1.407    25 C    1.403    66 H    0.966
                            27 C    0.109
    32   8 O    2.037 --    24 C    1.709    23 N    0.195
    33   6 C    3.969 --    37 N    0.987    23 N    0.982    67 H    0.923
                            34 C    0.906
    34   6 C    3.927 --    36 O    1.807    35 O    1.151    33 C    0.906
    35   8 O    2.227 --    34 C    1.151    68 H    0.841    36 O    0.173
    36   8 O    2.096 --    34 C    1.807    35 O    0.173
    37   7 N    3.391 --    38 C    1.146    33 C    0.987    11 C    0.937
                            46 O    0.171
    38   6 C    3.944 --    46 O    1.749    37 N    1.146    39 C    0.966
    39   6 C    3.987 --    40 C    1.399    45 C    1.397    38 C    0.966
                            43 C    0.105
    40   6 C    3.989 --    41 C    1.405    39 C    1.399    69 H    0.963
                            44 C    0.107
    41   6 C    3.923 --    40 C    1.405    43 C    1.399    42 Cl   0.986
    42  17 Cl   1.126 --    41 C    0.986
    43   6 C    3.987 --    44 C    1.440    41 C    1.399    70 H    0.966
                            39 C    0.105
    44   6 C    3.989 --    43 C    1.440    45 C    1.439    71 H    0.967
                            40 C    0.107
    45   6 C    3.989 --    44 C    1.439    39 C    1.397    72 H    0.968
    46   8 O    2.068 --    38 C    1.749    37 N    0.171
    47   1 H    0.998 --     1 C    0.968
    48   1 H    0.998 --     2 C    0.971
    49   1 H    0.998 --     3 C    0.971
    50   1 H    0.999 --     4 C    0.960
    51   1 H    0.997 --     7 C    0.968
    52   1 H    0.998 --     8 C    0.970
    53   1 H    0.998 --     9 C    0.960
    54   1 H    0.997 --    11 C    0.943
    55   1 H    0.997 --    12 C    0.947
    56   1 H    0.998 --    14 C    0.965
    57   1 H    0.997 --    15 C    0.970
    58   1 H    0.997 --    16 C    0.968
    59   1 H    0.999 --    19 C    0.958
    60   1 H    0.998 --    20 C    0.971
    61   1 H    0.998 --    21 C    0.971
    62   1 H    0.998 --    22 C    0.968
    63   1 H    0.995 --    26 C    0.966
    64   1 H    0.996 --    27 C    0.967
    65   1 H    0.996 --    28 C    0.967
    66   1 H    0.998 --    31 C    0.966
    67   1 H    0.995 --    33 C    0.923
    68   1 H    0.887 --    35 O    0.841
    69   1 H    0.998 --    40 C    0.963
    70   1 H    0.994 --    43 C    0.966
    71   1 H    0.996 --    44 C    0.967
    72   1 H    0.996 --    45 C    0.968
 ---------------------------------------------------------------------------

molecular dipole:
                 x           y           z       tot (Debye)
 q only:       -0.566      -0.819      -0.408
   full:       -0.936      -0.125      -0.167       2.436

           -------------------------------------------------
          | TOTAL ENERGY             -125.885428406455 Eh   |
          | GRADIENT NORM               0.000564622193 Eh/Î± |
          | HOMO-LUMO GAP               2.692416674965 eV   |
           -------------------------------------------------

 * finished run on 2022/03/17 at 01:01:10.542
