   * xtb version 6.3.3 (4ae9cef) compiled by 'conda@95abc7406d43' on 2020-10-14
          program call               : xtb acid_342.xyz --opt --chrg 0 --uhf 0 --gfn 2
          number of atoms            :                    66
          number of electrons        :                   226
          charge                     :                     0
          spin                       :                   0.0

   ID    Z sym.   atoms
    1    6 C      1-14, 16-19, 23-26, 28, 29, 33-40
    2    7 N      15, 32
    3    9 F      20-22, 41-43
    4    8 O      27, 30, 31, 44
    5    1 H      45-66

          :  Hamiltonian                  GFN2-xTB          :
 * total energy  :  -130.2926811 Eh     change       -0.7239578E-09 Eh
 * total energy  :  -130.3069772 Eh     change       -0.1429607E-01 Eh
 * total energy  :  -130.3110479 Eh     change       -0.4070730E-02 Eh
 * total energy  :  -130.3119490 Eh     change       -0.9010944E-03 Eh
 * total energy  :  -130.3124921 Eh     change       -0.5430680E-03 Eh
 * total energy  :  -130.3127972 Eh     change       -0.3050927E-03 Eh
 * total energy  :  -130.3130302 Eh     change       -0.2329582E-03 Eh
 * total energy  :  -130.3132384 Eh     change       -0.2082262E-03 Eh
 * total energy  :  -130.3134340 Eh     change       -0.1955933E-03 Eh
 * total energy  :  -130.3135809 Eh     change       -0.1468801E-03 Eh
 * total energy  :  -130.3143744 Eh     change       -0.2490909E-04 Eh
 * total energy  :  -130.3143965 Eh     change       -0.2202688E-04 Eh
 * total energy  :  -130.3143851 Eh     change        0.1139341E-04 Eh
 * total energy  :  -130.3144065 Eh     change       -0.2148066E-04 Eh
 * total energy  :  -130.3144170 Eh     change       -0.1045836E-04 Eh
 * total energy  :  -130.3144263 Eh     change       -0.9256732E-05 Eh
 * total energy  :  -130.3144342 Eh     change       -0.7974054E-05 Eh
 * total energy  :  -130.3144426 Eh     change       -0.8369304E-05 Eh
 * total energy  :  -130.3144470 Eh     change       -0.4368560E-05 Eh
   *** GEOMETRY OPTIMIZATION CONVERGED AFTER 41 ITERATIONS ***

 final structure:
================
66
 xtb: 6.3.3 (4ae9cef)
C         0.65783930753745    1.17928549034223   -2.78049549118888
C         1.14676713027595    1.66589940687041   -3.98082318021493
C         2.03574998098016    2.72580019958561   -3.99798519847269
C         2.43709215553886    3.30201819504714   -2.80507345675588
C         1.94685766226815    2.82231358700335   -1.60455903662109
C         1.05292785813002    1.75755249482299   -1.58146420044512
C         0.59283968708308    1.24449544113923   -0.23488278678097
C        -0.85823480596960    0.71711636214136   -0.16835422098534
C        -1.64466143688340    1.41473161479857    0.91325374818351
C        -2.73415729549461    2.21074178873288    0.59027978532985
C        -3.45281958321356    2.84778989149791    1.58652809442331
C        -3.08513304039333    2.69803566051976    2.91242964954179
C        -1.99006973502735    1.91593160122256    3.24039938987231
C        -1.27208093906232    1.27876315872450    2.24558764595106
N        -0.70583493427780   -0.70530306465799    0.11331935804678
C        -1.65906266337243   -1.61382090438126    0.42520418482985
C        -3.07142186486332   -1.10305550033174    0.44352816778601
C        -3.85622521331082   -0.99175511218927   -0.70207967169460
C        -3.31818596151176   -1.38566727979846   -2.05262680631713
F        -2.52675017271824   -2.45791914567881   -2.02098616542240
F        -2.60367340408318   -0.38999177807729   -2.62231106968883
F        -4.30088922858031   -1.66365631075844   -2.92584574368804
C        -5.16013997458847   -0.51793213072882   -0.61532307601647
C        -5.69281292769847   -0.17726824155061    0.61391785968596
C        -4.93665275248165   -0.33800496527621    1.76284914966085
C        -3.63903834795573   -0.80571742478524    1.67732261188109
O        -1.37765625232788   -2.75286609091306    0.73534683387685
C         0.67596962141904   -1.12452039437424    0.09768168364558
C         0.97867846202664   -1.90046167882499   -1.20581169419535
O         2.05343397990109   -2.66882237390440   -1.06166567524623
O         0.32678495002029   -1.82744949154448   -2.20314260196981
N         1.40292347579654    0.10868780687796    0.20540139157296
C         2.60752725904341    0.30153000842969    0.78978291820387
C         3.31045015644824   -0.94935111528697    1.23671052543307
C         3.06388766855692   -1.43848122367208    2.51447823253439
C         3.74744173724283   -2.54257521257059    2.99048890933644
C         4.69464066938794   -3.16798545756699    2.19684580581357
C         4.95679251447500   -2.68750023528182    0.92760383471239
C         4.26517368673548   -1.58201063908675    0.44677441664333
C         4.60789213194445   -1.09146525176855   -0.93295217181504
F         5.75102078800621   -0.38652709724994   -0.95023260571343
F         4.79853810480684   -2.11883872181077   -1.78879964751311
F         3.67289663060250   -0.32018662552308   -1.50090174664141
O         3.07928354619775    1.40113444181068    0.97704548667531
H        -0.01900157653411    0.34051424506391   -2.79750245827615
H         0.83196889737419    1.20623588869220   -4.90563824950381
H         2.41829529088805    3.09840972435264   -4.93685750457644
H         3.13594582198620    4.12520363526214   -2.80762128623167
H         2.27368019799045    3.26229332009429   -0.67468896006706
H         0.74505926230377    2.04529160810190    0.49994350496744
H        -1.35318921291723    0.86721256238475   -1.13164858183882
H        -3.02118270683382    2.32715778623722   -0.44448604018027
H        -4.30138378267939    3.46221597586914    1.32619141607442
H        -3.64688028621614    3.19379156003279    3.68968385211892
H        -1.69478421725441    1.80371437235245    4.27305058565145
H        -0.41871099463390    0.66693544322260    2.50196395264475
H        -5.75499684267686   -0.42922049154695   -1.51138398411941
H        -6.70348201347392    0.19511510447247    0.67393206211856
H        -5.35789134520434   -0.10099577986716    2.72749005324801
H        -3.04845484938772   -0.94003378232559    2.56993908811330
H         0.88558386414398   -1.80756745103964    0.93398389910660
H         2.24470792684549   -3.15488319079110   -1.88244510357968
H         2.33702686556823   -0.93929564700067    3.13820501652673
H         3.54299765441688   -2.91243571494735    3.98355187148487
H         5.23218490566157   -4.02707286671755    2.56642492873489
H         5.69459751001837   -3.16527698387860    0.30144850132305

          :  Hamiltonian                  GFN2-xTB          :
         :: total energy            -130.314446970540 Eh    ::
         :: gradient norm              0.000748035907 Eh/a0 ::
         :: HOMO-LUMO gap              3.382576890808 eV    ::
         :: SCC energy              -131.933737311592 Eh    ::
         :: -> dispersion             -0.099785562036 Eh    ::
         :: repulsion energy           1.615650424733 Eh    ::

    * Orbital Energies and Occupations

         #    Occupation            Energy/Eh            Energy/eV
      -------------------------------------------------------------
         1        2.0000           -0.8795846             -23.9347
       ...           ...                  ...                  ...
       101        2.0000           -0.4458991             -12.1335
       102        2.0000           -0.4453662             -12.1190
       103        2.0000           -0.4425361             -12.0420
       104        2.0000           -0.4321351             -11.7590
       105        2.0000           -0.4281377             -11.6502
       106        2.0000           -0.4255796             -11.5806
       107        2.0000           -0.4183726             -11.3845
       108        2.0000           -0.4166929             -11.3388
       109        2.0000           -0.4154700             -11.3055
       110        2.0000           -0.4104622             -11.1692
       111        2.0000           -0.4038644             -10.9897
       112        2.0000           -0.4000063             -10.8847
       113        2.0000           -0.3986112             -10.8468 (HOMO)
       114                         -0.2743038              -7.4642 (LUMO)
       115                         -0.2725760              -7.4172
       116                         -0.2656866              -7.2297
       117                         -0.2640571              -7.1854
       118                         -0.2602801              -7.0826
       119                         -0.2496885              -6.7944
       120                         -0.2464310              -6.7057
       121                         -0.2326573              -6.3309
       122                         -0.2288207              -6.2265
       123                         -0.2237334              -6.0881
       124                         -0.2188037              -5.9540
       ...                                ...                  ...
       198                          0.6712723              18.2663
      -------------------------------------------------------------
                  HL-Gap            0.1243074 Eh            3.3826 eV

     #   Z          covCN         q      C6AA      Î±(0)
     1   6 C        2.922    -0.038    28.956     8.824
     2   6 C        2.921    -0.026    28.655     8.778
     3   6 C        2.920    -0.027    28.687     8.783
     4   6 C        2.920    -0.026    28.657     8.779
     5   6 C        2.926    -0.031    28.765     8.795
     6   6 C        2.971    -0.001    28.059     8.689
     7   6 C        3.825     0.039    19.896     6.347
     8   6 C        3.814     0.029    20.080     6.378
     9   6 C        2.974    -0.003    28.090     8.694
    10   6 C        2.924    -0.037    28.911     8.818
    11   6 C        2.920    -0.027    28.685     8.783
    12   6 C        2.921    -0.029    28.727     8.789
    13   6 C        2.919    -0.028    28.690     8.784
    14   6 C        2.924    -0.032    28.800     8.801
    15   7 N        2.766    -0.104    23.287     7.167
    16   6 C        2.767     0.273    22.392     7.750
    17   6 C        2.974    -0.003    28.085     8.693
    18   6 C        2.976    -0.025    28.615     8.775
    19   6 C        3.335     0.487    17.280     6.585
    20   9 F        0.791    -0.192    11.153     3.945
    21   9 F        0.791    -0.212    11.363     3.982
    22   9 F        0.792    -0.205    11.290     3.969
    23   6 C        2.922    -0.022    28.564     8.764
    24   6 C        2.920    -0.022    28.562     8.764
    25   6 C        2.919    -0.019    28.485     8.752
    26   6 C        2.927    -0.018    28.453     8.748
    27   8 O        0.859    -0.421    22.110     6.304
    28   6 C        3.764     0.093    19.078     6.226
    29   6 C        2.687     0.359    20.910     7.483
    30   8 O        1.659    -0.372    20.309     6.084
    31   8 O        0.856    -0.358    20.851     6.122
    32   7 N        2.765    -0.105    23.306     7.170
    33   6 C        2.761     0.273    22.377     7.747
    34   6 C        2.974    -0.006    28.176     8.707
    35   6 C        2.925    -0.021    28.542     8.761
    36   6 C        2.919    -0.018    28.453     8.747
    37   6 C        2.920    -0.020    28.517     8.757
    38   6 C        2.923    -0.019    28.473     8.751
    39   6 C        2.977    -0.017    28.439     8.748
    40   6 C        3.336     0.489    17.244     6.576
    41   9 F        0.791    -0.200    11.237     3.960
    42   9 F        0.791    -0.214    11.382     3.985
    43   9 F        0.791    -0.207    11.304     3.972
    44   8 O        0.859    -0.408    21.842     6.266
    45   1 H        0.926     0.059     2.210     2.325
    46   1 H        0.926     0.041     2.440     2.443
    47   1 H        0.926     0.036     2.501     2.473
    48   1 H        0.926     0.038     2.470     2.458
    49   1 H        0.926     0.051     2.309     2.376
    50   1 H        0.924     0.074     2.042     2.235
    51   1 H        0.924     0.072     2.061     2.245
    52   1 H        0.926     0.036     2.503     2.474
    53   1 H        0.926     0.041     2.433     2.439
    54   1 H        0.926     0.041     2.429     2.437
    55   1 H        0.926     0.041     2.430     2.438
    56   1 H        0.926     0.032     2.556     2.500
    57   1 H        0.926     0.068     2.106     2.269
    58   1 H        0.926     0.058     2.218     2.329
    59   1 H        0.926     0.057     2.239     2.340
    60   1 H        0.926     0.055     2.255     2.348
    61   1 H        0.923     0.082     1.955     2.187
    62   1 H        0.804     0.352     0.582     1.199
    63   1 H        0.926     0.051     2.304     2.374
    64   1 H        0.926     0.059     2.206     2.322
    65   1 H        0.926     0.060     2.199     2.319
    66   1 H        0.926     0.066     2.133     2.284

Wiberg/Mayer (AO) data.
largest (>0.10) Wiberg bond orders for each atom

     #   Z sym  total        # sym  WBO       # sym  WBO       # sym  WBO
 ---------------------------------------------------------------------------
     1   6 C    3.989 --     2 C    1.440     6 C    1.418    45 H    0.959
                             4 C    0.112
     2   6 C    3.992 --     3 C    1.442     1 C    1.440    46 H    0.971
                             5 C    0.112
     3   6 C    3.991 --     2 C    1.442     4 C    1.437    47 H    0.971
                             6 C    0.109
     4   6 C    3.992 --     5 C    1.446     3 C    1.437    48 H    0.970
                             1 C    0.112
     5   6 C    3.989 --     4 C    1.446     6 C    1.410    49 H    0.966
                             2 C    0.112
     6   6 C    3.982 --     1 C    1.418     5 C    1.410     7 C    0.982
                             3 C    0.109
     7   6 C    3.954 --     6 C    0.982     8 C    0.961    50 H    0.952
                            32 N    0.944
     8   6 C    3.960 --     9 C    0.989     7 C    0.961    15 N    0.957
                            51 H    0.948
     9   6 C    3.986 --    10 C    1.416    14 C    1.406     8 C    0.989
                            12 C    0.109
    10   6 C    3.990 --    11 C    1.441     9 C    1.416    52 H    0.968
                            13 C    0.110
    11   6 C    3.991 --    12 C    1.441    10 C    1.441    53 H    0.970
                            14 C    0.111
    12   6 C    3.990 --    11 C    1.441    13 C    1.434    54 H    0.971
                             9 C    0.109
    13   6 C    3.992 --    14 C    1.449    12 C    1.434    55 H    0.970
                            10 C    0.110
    14   6 C    3.992 --    13 C    1.449     9 C    1.406    56 H    0.969
                            11 C    0.111
    15   7 N    3.482 --    16 C    1.229    28 C    0.983     8 C    0.957
                            27 O    0.197
    16   6 C    3.952 --    27 O    1.685    15 N    1.229    17 C    0.952
    17   6 C    3.987 --    26 C    1.404    18 C    1.389    16 C    0.952
                            24 C    0.110
    18   6 C    3.975 --    23 C    1.411    17 C    1.389    19 C    0.949
                            25 C    0.106
    19   6 C    3.828 --    20 F    0.963    18 C    0.949    22 F    0.948
                            21 F    0.932
    20   9 F    1.093 --    19 C    0.963
    21   9 F    1.066 --    19 C    0.932
    22   9 F    1.071 --    19 C    0.948
    23   6 C    3.987 --    24 C    1.445    18 C    1.411    57 H    0.965
                            26 C    0.111
    24   6 C    3.990 --    23 C    1.445    25 C    1.433    58 H    0.969
                            17 C    0.110
    25   6 C    3.990 --    26 C    1.446    24 C    1.433    59 H    0.968
                            18 C    0.106
    26   6 C    3.989 --    25 C    1.446    17 C    1.404    60 H    0.967
                            23 C    0.111
    27   8 O    2.020 --    16 C    1.685    15 N    0.197
    28   6 C    3.966 --    32 N    0.989    15 N    0.983    61 H    0.939
                            29 C    0.901
    29   6 C    3.921 --    31 O    1.803    30 O    1.152    28 C    0.901
    30   8 O    2.213 --    29 C    1.152    62 H    0.849    31 O    0.184
    31   8 O    2.088 --    29 C    1.803    30 O    0.184
    32   7 N    3.485 --    33 C    1.224    28 C    0.989     7 C    0.944
                            44 O    0.196
    33   6 C    3.953 --    44 O    1.693    32 N    1.224    34 C    0.948
    34   6 C    3.986 --    35 C    1.404    39 C    1.390    33 C    0.948
                            37 C    0.110
    35   6 C    3.990 --    36 C    1.445    34 C    1.404    63 H    0.968
                            38 C    0.111
    36   6 C    3.989 --    35 C    1.445    37 C    1.434    64 H    0.968
                            39 C    0.107
    37   6 C    3.990 --    38 C    1.446    36 C    1.434    65 H    0.969
                            34 C    0.110
    38   6 C    3.987 --    37 C    1.446    39 C    1.409    66 H    0.966
                            35 C    0.111
    39   6 C    3.974 --    38 C    1.409    34 C    1.390    40 C    0.950
                            36 C    0.107
    40   6 C    3.823 --    43 F    0.951    39 C    0.950    41 F    0.949
                            42 F    0.937
    41   9 F    1.079 --    40 C    0.949
    42   9 F    1.061 --    40 C    0.937
    43   9 F    1.079 --    40 C    0.951
    44   8 O    2.030 --    33 C    1.693    32 N    0.196
    45   1 H    0.996 --     1 C    0.959
    46   1 H    0.998 --     2 C    0.971
    47   1 H    0.998 --     3 C    0.971
    48   1 H    0.998 --     4 C    0.970
    49   1 H    0.997 --     5 C    0.966
    50   1 H    0.994 --     7 C    0.952
    51   1 H    0.994 --     8 C    0.948
    52   1 H    0.999 --    10 C    0.968
    53   1 H    0.998 --    11 C    0.970
    54   1 H    0.998 --    12 C    0.971
    55   1 H    0.998 --    13 C    0.970
    56   1 H    0.999 --    14 C    0.969
    57   1 H    0.994 --    23 C    0.965
    58   1 H    0.996 --    24 C    0.969
    59   1 H    0.996 --    25 C    0.968
    60   1 H    0.997 --    26 C    0.967
    61   1 H    0.993 --    28 C    0.939
    62   1 H    0.875 --    30 O    0.849
    63   1 H    0.997 --    35 C    0.968
    64   1 H    0.996 --    36 C    0.968
    65   1 H    0.996 --    37 C    0.969
    66   1 H    0.995 --    38 C    0.966
 ---------------------------------------------------------------------------

molecular dipole:
                 x           y           z       tot (Debye)
 q only:       -1.286       0.541       2.162
   full:       -1.234       0.292       2.121       6.281

           -------------------------------------------------
          | TOTAL ENERGY             -130.314446970540 Eh   |
          | GRADIENT NORM               0.000748035907 Eh/Î± |
          | HOMO-LUMO GAP               3.382576890808 eV   |
           -------------------------------------------------

 * finished run on 2022/03/17 at 00:04:06.645
