   * xtb version 6.3.3 (4ae9cef) compiled by 'conda@95abc7406d43' on 2020-10-14
          program call               : xtb acid_476.xyz --opt --chrg 0 --uhf 0 --gfn 2
          number of atoms            :                    64
          number of electrons        :                   210
          charge                     :                     0
          spin                       :                   0.0

   ID    Z sym.   atoms
    1    6 C      1-14, 16-21, 25, 27, 28, 32-35, 39-41
    2    7 N      15, 22, 31, 36
    3    8 O      23, 24, 26, 29, 30, 37, 38, 42
    4    1 H      43-64

          :  Hamiltonian                  GFN2-xTB          :
 * total energy  :  -119.5076085 Eh     change       -0.1835446E-08 Eh
 * total energy  :  -119.5246694 Eh     change       -0.1706089E-01 Eh
 * total energy  :  -119.5288078 Eh     change       -0.4138451E-02 Eh
 * total energy  :  -119.5293139 Eh     change       -0.5060823E-03 Eh
 * total energy  :  -119.5304253 Eh     change       -0.1111366E-02 Eh
 * total energy  :  -119.5307267 Eh     change       -0.3013900E-03 Eh
 * total energy  :  -119.5309793 Eh     change       -0.2526845E-03 Eh
 * total energy  :  -119.5311786 Eh     change       -0.1992172E-03 Eh
 * total energy  :  -119.5313808 Eh     change       -0.2022179E-03 Eh
 * total energy  :  -119.5316315 Eh     change       -0.2507610E-03 Eh
 * total energy  :  -119.5326033 Eh     change       -0.1651075E-04 Eh
 * total energy  :  -119.5326156 Eh     change       -0.1225760E-04 Eh
 * total energy  :  -119.5326241 Eh     change       -0.8515450E-05 Eh
 * total energy  :  -119.5326323 Eh     change       -0.8233923E-05 Eh
 * total energy  :  -119.5326409 Eh     change       -0.8620578E-05 Eh
 * total energy  :  -119.5326499 Eh     change       -0.9000362E-05 Eh
 * total energy  :  -119.5326583 Eh     change       -0.8382371E-05 Eh
 * total energy  :  -119.5326647 Eh     change       -0.6394186E-05 Eh
 * total energy  :  -119.5326690 Eh     change       -0.4287593E-05 Eh
   *** GEOMETRY OPTIMIZATION CONVERGED AFTER 41 ITERATIONS ***

 final structure:
================
64
 xtb: 6.3.3 (4ae9cef)
C        -2.48522534717056   -1.99347518345043   -1.86270299401403
C        -2.89393173277302   -2.88503278192308   -2.84114481909241
C        -2.18745497069453   -4.05355601241935   -3.05998776214039
C        -1.07175532967649   -4.33516496597441   -2.28857194436503
C        -0.66342418200445   -3.44686864911868   -1.31177683007699
C        -1.36275958072644   -2.26398625577421   -1.09618238964059
C        -0.86234499023375   -1.32546990217437   -0.02008889193568
C         0.56653195174934   -0.80181485279977   -0.32909055429821
C         1.53063073912428   -1.06730822912427    0.79978430067661
C         1.36362736066670   -0.43238746772372    2.02510115202215
C         2.25729368624212   -0.65769774846083    3.05600739016660
C         3.32169302953697   -1.52531247319023    2.87397459239240
C         3.48359905478318   -2.17344553674104    1.66133164109062
C         2.59006383244962   -1.94737233460249    0.62866707825319
N         0.36624325401763    0.62260631038302   -0.55210650637369
C         1.31007834973200    1.56850189212069   -0.77849679680773
C         2.71514868925714    1.04602526523156   -0.75556941854473
C         3.23260183588281    0.37363641470553   -1.85690626301075
C         4.52470841847195   -0.12825487207475   -1.82847206357526
C         5.29891745677951    0.01379653667380   -0.69258840526461
C         4.77671641830741    0.69714560896918    0.39842510657344
N         5.56324084594552    0.81353020843348    1.60424958347696
O         5.06627261555818    1.38900902990928    2.54596169418992
O         6.66454697331324    0.30893694924522    1.60423390747407
C         3.50086673572414    1.24024382023204    0.36931189121378
O         1.02200477231501    2.72925889523883   -0.97054369665249
C        -1.02933673608120    0.97554625966357   -0.56294296737060
C        -1.58924395152692    1.10808818797061   -1.99701068902891
O        -0.72501958528333    0.70427184330045   -2.91867207481488
O        -2.69384576587137    1.50845428875070   -2.23398415969801
N        -1.65491388726579   -0.11835949725455    0.12803346795367
C        -2.80272566000968   -0.10503578661453    0.85515149371345
C        -3.48266400218292    1.22955705168828    0.93171548504053
C        -3.00759408524895    2.20439850042756    1.79518073454005
C        -3.68232457323374    3.41452835959827    1.88454173897829
N        -3.18784893626430    4.42758494768060    2.78882579928820
O        -2.15886873504737    4.19156535479939    3.38350208552410
O        -3.83239854661971    5.44698833146421    2.89568615043142
C        -4.81716481599127    3.66732218992655    1.12497251125759
C        -5.28630004342303    2.68496012084757    0.27279876497776
C        -4.62860960975135    1.46889810862191    0.18069281575717
O        -3.23118221186277   -1.09913005629420    1.39536563530448
H        -3.05807991945407   -1.09415368727655   -1.69420669403388
H        -3.77166029126146   -2.66359349651505   -3.42971425431987
H        -2.50890778813987   -4.74726962263710   -3.82199476766111
H        -0.52222927390686   -5.25139674117856   -2.44491033507429
H         0.19897044151288   -3.67187097418639   -0.70054613380574
H        -0.88601543128760   -1.85913345274185    0.93825554843958
H         0.93905064488785   -1.27139815302441   -1.24867449117857
H         0.53693774220857    0.24864888265995    2.16590162171861
H         2.12896357188278   -0.15138018853065    3.99977444174323
H         4.02485038445742   -1.69224534569603    3.67517495040466
H         4.31053468187818   -2.85215818829595    1.51582270881803
H         2.72370553179894   -2.44715844397605   -0.32032065795123
H         2.62015699793261    0.24833087549298   -2.73766281323279
H         4.92203393252164   -0.64235456328061   -2.68986255301142
H         6.29702176533222   -0.39194260419129   -0.63241517579001
H         3.13090718809884    1.78253162062165    1.22563803105952
H        -1.19295370448475    1.94151560209123   -0.06572541604090
H        -1.09482765561135    0.81211003341482   -3.81078828263071
H        -2.13576042001712    2.04049451201450    2.41158201986829
H        -5.31117630979489    4.62237027241215    1.21743128333914
H        -6.16800827009486    2.86465810333632   -0.32165653131907
H        -5.00136055935569    0.70021168931612   -0.47777929294226

          :  Hamiltonian                  GFN2-xTB          :
         :: total energy            -119.532669006497 Eh    ::
         :: gradient norm              0.000406223387 Eh/a0 ::
         :: HOMO-LUMO gap              2.309311057002 eV    ::
         :: SCC energy              -121.151777957784 Eh    ::
         :: -> dispersion             -0.095554462088 Eh    ::
         :: repulsion energy           1.616322288099 Eh    ::

    * Orbital Energies and Occupations

         #    Occupation            Energy/Eh            Energy/eV
      -------------------------------------------------------------
         1        2.0000           -0.7905310             -21.5114
       ...           ...                  ...                  ...
        93        2.0000           -0.4493907             -12.2285
        94        2.0000           -0.4489350             -12.2161
        95        2.0000           -0.4484256             -12.2023
        96        2.0000           -0.4464319             -12.1480
        97        2.0000           -0.4434866             -12.0679
        98        2.0000           -0.4326386             -11.7727
        99        2.0000           -0.4318800             -11.7521
       100        2.0000           -0.4306468             -11.7185
       101        2.0000           -0.4288646             -11.6700
       102        2.0000           -0.4268316             -11.6147
       103        2.0000           -0.4213792             -11.4663
       104        2.0000           -0.4193911             -11.4122
       105        2.0000           -0.4170777             -11.3493 (HOMO)
       106                         -0.3322121              -9.0400 (LUMO)
       107                         -0.3259588              -8.8698
       108                         -0.2809024              -7.6437
       109                         -0.2770538              -7.5390
       110                         -0.2708439              -7.3700
       111                         -0.2581424              -7.0244
       112                         -0.2534479              -6.8967
       113                         -0.2499148              -6.8005
       114                         -0.2481282              -6.7519
       115                         -0.2472693              -6.7285
       116                         -0.2461543              -6.6982
       ...                                ...                  ...
       190                          0.6416006              17.4588
      -------------------------------------------------------------
                  HL-Gap            0.0848656 Eh            2.3093 eV

     #   Z          covCN         q      C6AA      Î±(0)
     1   6 C        2.922    -0.030    28.750     8.793
     2   6 C        2.920    -0.026    28.660     8.779
     3   6 C        2.920    -0.029    28.713     8.787
     4   6 C        2.919    -0.026    28.653     8.778
     5   6 C        2.926    -0.037    28.923     8.820
     6   6 C        2.971     0.003    27.949     8.672
     7   6 C        3.830     0.040    19.876     6.343
     8   6 C        3.817     0.033    20.011     6.367
     9   6 C        2.973    -0.007    28.187     8.709
    10   6 C        2.924    -0.032    28.810     8.802
    11   6 C        2.919    -0.022    28.562     8.764
    12   6 C        2.920    -0.026    28.658     8.779
    13   6 C        2.919    -0.030    28.752     8.793
    14   6 C        2.923    -0.040    28.990     8.830
    15   7 N        2.769    -0.104    23.284     7.167
    16   6 C        2.765     0.273    22.381     7.748
    17   6 C        2.979    -0.002    28.059     8.689
    18   6 C        2.922    -0.018    28.451     8.747
    19   6 C        2.920    -0.021    28.535     8.760
    20   6 C        2.919    -0.020    28.515     8.757
    21   6 C        2.918     0.006    27.890     8.660
    22   7 N        2.760     0.547    13.509     5.459
    23   8 O        0.930    -0.378    21.203     6.175
    24   8 O        0.930    -0.380    21.253     6.183
    25   6 C        2.922    -0.015    28.394     8.738
    26   8 O        0.859    -0.415    21.984     6.286
    27   6 C        3.770     0.091    19.107     6.229
    28   6 C        2.687     0.358    20.929     7.487
    29   8 O        1.659    -0.353    19.952     6.030
    30   8 O        0.856    -0.388    21.447     6.209
    31   7 N        2.767    -0.108    23.365     7.179
    32   6 C        2.761     0.274    22.373     7.746
    33   6 C        2.977    -0.006    28.175     8.707
    34   6 C        2.922    -0.023    28.585     8.768
    35   6 C        2.917     0.007    27.875     8.658
    36   7 N        2.759     0.548    13.499     5.457
    37   8 O        0.930    -0.382    21.290     6.188
    38   8 O        0.930    -0.378    21.214     6.177
    39   6 C        2.918    -0.018    28.461     8.748
    40   6 C        2.921    -0.016    28.407     8.740
    41   6 C        2.923    -0.004    28.129     8.697
    42   8 O        0.859    -0.403    21.735     6.251
    43   1 H        0.926     0.030     2.583     2.513
    44   1 H        0.926     0.041     2.441     2.443
    45   1 H        0.926     0.041     2.437     2.441
    46   1 H        0.926     0.041     2.439     2.442
    47   1 H        0.926     0.033     2.540     2.492
    48   1 H        0.924     0.083     1.952     2.185
    49   1 H        0.924     0.054     2.275     2.359
    50   1 H        0.926     0.037     2.487     2.466
    51   1 H        0.926     0.054     2.266     2.354
    52   1 H        0.926     0.051     2.312     2.378
    53   1 H        0.926     0.043     2.414     2.430
    54   1 H        0.926     0.028     2.620     2.531
    55   1 H        0.926     0.057     2.238     2.340
    56   1 H        0.926     0.062     2.176     2.307
    57   1 H        0.926     0.086     1.917     2.165
    58   1 H        0.926     0.087     1.910     2.161
    59   1 H        0.923     0.091     1.872     2.140
    60   1 H        0.804     0.346     0.597     1.214
    61   1 H        0.926     0.077     2.011     2.217
    62   1 H        0.926     0.086     1.914     2.163
    63   1 H        0.926     0.066     2.125     2.280
    64   1 H        0.926     0.066     2.132     2.284

Wiberg/Mayer (AO) data.
largest (>0.10) Wiberg bond orders for each atom

     #   Z sym  total        # sym  WBO       # sym  WBO       # sym  WBO
 ---------------------------------------------------------------------------
     1   6 C    3.991 --     2 C    1.433     6 C    1.425    43 H    0.966
                             4 C    0.110
     2   6 C    3.992 --     3 C    1.447     1 C    1.433    44 H    0.971
                             5 C    0.113
     3   6 C    3.991 --     2 C    1.447     4 C    1.431    45 H    0.971
                             6 C    0.110
     4   6 C    3.991 --     5 C    1.454     3 C    1.431    46 H    0.970
                             1 C    0.110
     5   6 C    3.991 --     4 C    1.454     6 C    1.402    47 H    0.969
                             2 C    0.113
     6   6 C    3.985 --     1 C    1.425     5 C    1.402     7 C    0.984
                             3 C    0.110
     7   6 C    3.960 --     6 C    0.984    31 N    0.967     8 C    0.951
                            48 H    0.945
     8   6 C    3.963 --     9 C    0.989    15 N    0.961    49 H    0.954
                             7 C    0.951
     9   6 C    3.985 --    14 C    1.415    10 C    1.406     8 C    0.989
                            12 C    0.109
    10   6 C    3.991 --    11 C    1.449     9 C    1.406    50 H    0.969
                            13 C    0.111
    11   6 C    3.990 --    10 C    1.449    12 C    1.434    51 H    0.969
                            14 C    0.110
    12   6 C    3.989 --    13 C    1.441    11 C    1.434    52 H    0.970
                             9 C    0.109
    13   6 C    3.991 --    12 C    1.441    14 C    1.441    53 H    0.970
                            10 C    0.111
    14   6 C    3.990 --    13 C    1.441     9 C    1.415    54 H    0.968
                            11 C    0.110
    15   7 N    3.477 --    16 C    1.217    27 C    0.988     8 C    0.961
                            26 O    0.196
    16   6 C    3.950 --    26 O    1.698    15 N    1.217    17 C    0.953
    17   6 C    3.988 --    25 C    1.417    18 C    1.403    16 C    0.953
                            20 C    0.106
    18   6 C    3.989 --    19 C    1.432    17 C    1.403    55 H    0.968
    19   6 C    3.989 --    20 C    1.450    18 C    1.432    56 H    0.967
                            25 C    0.106
    20   6 C    3.984 --    19 C    1.450    21 C    1.382    57 H    0.960
                            17 C    0.106
    21   6 C    3.965 --    25 C    1.389    20 C    1.382    22 N    0.958
    22   7 N    3.913 --    23 O    1.458    24 O    1.454    21 C    0.958
    23   8 O    1.943 --    22 N    1.458    24 O    0.366
    24   8 O    1.938 --    22 N    1.454    23 O    0.366
    25   6 C    3.984 --    17 C    1.417    21 C    1.389    58 H    0.958
                            19 C    0.106
    26   8 O    2.026 --    16 C    1.698    15 N    0.196
    27   6 C    3.967 --    15 N    0.988    31 N    0.986    59 H    0.933
                            28 C    0.906
    28   6 C    3.919 --    30 O    1.777    29 O    1.167    27 C    0.906
    29   8 O    2.231 --    28 C    1.167    60 H    0.854    30 O    0.185
    30   8 O    2.061 --    28 C    1.777    29 O    0.185
    31   7 N    3.474 --    32 C    1.202    27 C    0.986     7 C    0.967
                            42 O    0.193
    32   6 C    3.948 --    42 O    1.708    31 N    1.202    33 C    0.953
    33   6 C    3.988 --    34 C    1.421    41 C    1.399    32 C    0.953
                            39 C    0.103
    34   6 C    3.987 --    33 C    1.421    35 C    1.385    61 H    0.960
                            40 C    0.106
    35   6 C    3.964 --    34 C    1.385    39 C    1.384    36 N    0.958
    36   7 N    3.913 --    38 O    1.458    37 O    1.454    35 C    0.958
    37   8 O    1.939 --    36 N    1.454    38 O    0.365
    38   8 O    1.942 --    36 N    1.458    37 O    0.365
    39   6 C    3.984 --    40 C    1.449    35 C    1.384    62 H    0.960
                            33 C    0.103
    40   6 C    3.989 --    39 C    1.449    41 C    1.434    63 H    0.967
                            34 C    0.106
    41   6 C    3.987 --    40 C    1.434    33 C    1.399    64 H    0.967
    42   8 O    2.037 --    32 C    1.708    31 N    0.193
    43   1 H    0.999 --     1 C    0.966
    44   1 H    0.998 --     2 C    0.971
    45   1 H    0.998 --     3 C    0.971
    46   1 H    0.998 --     4 C    0.970
    47   1 H    0.999 --     5 C    0.969
    48   1 H    0.993 --     7 C    0.945
    49   1 H    0.996 --     8 C    0.954
    50   1 H    0.999 --    10 C    0.969
    51   1 H    0.997 --    11 C    0.969
    52   1 H    0.997 --    12 C    0.970
    53   1 H    0.998 --    13 C    0.970
    54   1 H    0.999 --    14 C    0.968
    55   1 H    0.997 --    18 C    0.968
    56   1 H    0.995 --    19 C    0.967
    57   1 H    0.992 --    20 C    0.960
    58   1 H    0.992 --    25 C    0.958
    59   1 H    0.991 --    27 C    0.933
    60   1 H    0.880 --    29 O    0.854
    61   1 H    0.994 --    34 C    0.960
    62   1 H    0.992 --    39 C    0.960
    63   1 H    0.995 --    40 C    0.967
    64   1 H    0.996 --    41 C    0.967
 ---------------------------------------------------------------------------

molecular dipole:
                 x           y           z       tot (Debye)
 q only:       -0.345      -2.817      -3.302
   full:       -0.338      -2.767      -3.588      11.549

           -------------------------------------------------
          | TOTAL ENERGY             -119.532669006497 Eh   |
          | GRADIENT NORM               0.000406223387 Eh/Î± |
          | HOMO-LUMO GAP               2.309311057002 eV   |
           -------------------------------------------------

 * finished run on 2022/03/17 at 01:38:25.211
