   * xtb version 6.3.3 (4ae9cef) compiled by 'conda@95abc7406d43' on 2020-10-14
          program call               : xtb acid_453.xyz --opt --chrg 0 --uhf 0 --gfn 2
          number of atoms            :                    72
          number of electrons        :                   242
          charge                     :                     0
          spin                       :                   0.0

   ID    Z sym.   atoms
    1    6 C      1, 2, 6-15, 19-22, 24-30, 33, 34, 38-44
    2    9 F      3-5, 16-18
    3    7 N      23, 37
    4    8 O      31, 32, 35, 36, 45, 46
    5    1 H      47-72

          :  Hamiltonian                  GFN2-xTB          :
 * total energy  :  -140.5046209 Eh     change       -0.4267378E-08 Eh
 * total energy  :  -140.5185180 Eh     change       -0.1389702E-01 Eh
 * total energy  :  -140.5234656 Eh     change       -0.4947686E-02 Eh
 * total energy  :  -140.5252272 Eh     change       -0.1761523E-02 Eh
 * total energy  :  -140.5265308 Eh     change       -0.1303589E-02 Eh
 * total energy  :  -140.5273384 Eh     change       -0.8076597E-03 Eh
 * total energy  :  -140.5280291 Eh     change       -0.6907078E-03 Eh
 * total energy  :  -140.5287350 Eh     change       -0.7058289E-03 Eh
 * total energy  :  -140.5293799 Eh     change       -0.6449175E-03 Eh
 * total energy  :  -140.5298265 Eh     change       -0.4466446E-03 Eh
 * total energy  :  -140.5350455 Eh     change       -0.1154645E-04 Eh
 * total energy  :  -140.5350598 Eh     change       -0.1437550E-04 Eh
 * total energy  :  -140.5350706 Eh     change       -0.1073239E-04 Eh
 * total energy  :  -140.5350796 Eh     change       -0.8993001E-05 Eh
 * total energy  :  -140.5350863 Eh     change       -0.6781463E-05 Eh
 * total energy  :  -140.5350916 Eh     change       -0.5229017E-05 Eh
 * total energy  :  -140.5350973 Eh     change       -0.5760977E-05 Eh
 * total energy  :  -140.5351026 Eh     change       -0.5290744E-05 Eh
 * total energy  :  -140.5351069 Eh     change       -0.4261887E-05 Eh
   *** GEOMETRY OPTIMIZATION CONVERGED AFTER 52 ITERATIONS ***

 final structure:
================
72
 xtb: 6.3.3 (4ae9cef)
C         1.11759843393125   -3.21802818980455   -1.39121562422037
C         0.38889064351480   -3.07411146173260   -2.69755991532820
F        -0.92203422732058   -2.76751930652182   -2.51886884780247
F         0.38843216750319   -4.19836902258674   -3.42579249930483
F         0.86988985731715   -2.11671693650906   -3.50483235245198
C         1.65400718642938   -4.46081068043339   -1.07630441266152
C         2.31096971789310   -4.65562479420752    0.12279860609181
C         2.43130053567361   -3.60602876119151    1.01574711888892
C         1.89737818588128   -2.37088049385543    0.70577676943422
C         1.23837658779013   -2.15166807601345   -0.49852922258279
C         0.67513888633706   -0.78045617170447   -0.76962160742429
C        -0.52680703121167   -0.41839164204577    0.14465046393795
C        -1.81890699816747   -0.80268216759892   -0.52705268719250
C        -2.60211053501015   -1.88315990002927   -0.11767146578993
C        -2.20260180073098   -2.75778304872218    1.03889098244247
F        -1.98510323482335   -2.08890100098611    2.18792592435466
F        -1.06900206023593   -3.44691100299780    0.80072278853998
F        -3.13198872786803   -3.67654565514453    1.33892580394280
C        -3.77308543937925   -2.19948527581775   -0.79837632782162
C        -4.17800091703342   -1.44659005004892   -1.88283722672262
C        -3.40215968881701   -0.38164090921132   -2.30513307376733
C        -2.23485161142346   -0.07170811366747   -1.63593271820275
N        -0.36932581217891    1.01745986574532    0.32083693378353
C        -1.31276583718381    2.01460308760360    0.31981627452979
C        -2.67577237681870    1.65703121582094    0.70879029238088
C        -3.83353316651894    2.34089196847057    0.43419657776264
C        -4.88294457891945    1.62714420465468    1.05261622241782
C        -6.33383439361520    1.95963796050650    1.02097589329313
C        -4.28761957092960    0.56020780343832    1.68045548168255
C        -4.87192371350181   -0.53339766948749    2.49803513503242
O        -2.95611026825850    0.57478346191381    1.47428883297809
O        -1.01517034984956    3.15792135035336    0.02905209680258
C         1.02342373670604    1.39232452416220    0.16940159447982
C         1.57510231490185    1.67863082102966    1.58126936583882
O         2.06066178069679    0.57937410061314    2.16208690546422
O         1.51513935301134    2.73813906094977    2.13201537715157
N         1.64338084213286    0.26790201908766   -0.47577124907082
C         2.90522200433471    0.17835941843229   -0.99202567736427
C         3.82465593600226    1.27923691287411   -0.72524542177146
C         5.11404708107815    1.43126041379660   -1.17589544012278
C         5.59298517334535    2.64779024751439   -0.64325189018341
C         6.93477032782355    3.25972553378752   -0.84980991608951
C         4.56017898795612    3.16043319102342    0.10517682695897
C         4.44333931548786    4.40825492913057    0.90169840108837
O         3.49443522160254    2.33872281165366    0.05645595821236
O         3.24917247976939   -0.79714857542445   -1.63696762546859
H         1.55693671709723   -5.27571581874838   -1.77642535218796
H         2.72673868231575   -5.62359258013703    0.35509115717919
H         2.94289622580527   -3.74854134356623    1.95554213441504
H         2.00460426628748   -1.55024476800620    1.39703053864313
H         0.37174078625090   -0.68757548137129   -1.81884856475125
H        -0.40449999342279   -0.91444662431821    1.11304814548676
H        -4.36495241155050   -3.04218968084272   -0.47678401987067
H        -5.08973478927342   -1.69888044373913   -2.40073348314356
H        -3.70122755787131    0.20602833592914   -3.15895246888341
H        -1.63401947292586    0.75859556335591   -1.97563912860853
H        -3.90611704901130    3.24019151377289   -0.14161888022538
H        -6.47509604309635    2.98372425909238    0.68755365307959
H        -6.77657074016334    1.84473185682354    2.00845825604160
H        -6.86167905183910    1.29625308696525    0.33615917563329
H        -5.27596700747669   -1.31775779385535    1.85680927057578
H        -4.10488141260918   -0.96698364273057    3.13335264801810
H        -5.68084996481474   -0.14929470318534    3.11505359164486
H         1.08376287743979    2.32927562564922   -0.40642136128567
H         2.36701001483106    0.77836591047416    3.06237331361315
H         5.63471935152609    0.74583013103641   -1.81217910740539
H         7.56180253454067    2.59702426571169   -1.43898206196671
H         6.84326380795538    4.21131694444798   -1.37191641950815
H         7.42107945915215    3.44856992725924    0.10616996713389
H         4.46185142230844    5.28032128574694    0.24882554184999
H         3.50337608986079    4.39617342462399    1.44764465021005
H         5.27296784135379    4.49353975274736    1.60147937816995

          :  Hamiltonian                  GFN2-xTB          :
         :: total energy            -140.535106878267 Eh    ::
         :: gradient norm              0.000388305463 Eh/a0 ::
         :: HOMO-LUMO gap              3.158071368165 eV    ::
         :: SCC energy              -142.129603199622 Eh    ::
         :: -> dispersion             -0.103440162416 Eh    ::
         :: repulsion energy           1.591004799535 Eh    ::

    * Orbital Energies and Occupations

         #    Occupation            Energy/Eh            Energy/eV
      -------------------------------------------------------------
         1        2.0000           -0.8851217             -24.0854
       ...           ...                  ...                  ...
       109        2.0000           -0.4455991             -12.1254
       110        2.0000           -0.4439730             -12.0811
       111        2.0000           -0.4378803             -11.9153
       112        2.0000           -0.4306219             -11.7178
       113        2.0000           -0.4270904             -11.6217
       114        2.0000           -0.4263880             -11.6026
       115        2.0000           -0.4237844             -11.5318
       116        2.0000           -0.4111463             -11.1879
       117        2.0000           -0.4098993             -11.1539
       118        2.0000           -0.4006450             -10.9021
       119        2.0000           -0.3965827             -10.7916
       120        2.0000           -0.3902556             -10.6194
       121        2.0000           -0.3873784             -10.5411 (HOMO)
       122                         -0.2713214              -7.3830 (LUMO)
       123                         -0.2688209              -7.3150
       124                         -0.2624238              -7.1409
       125                         -0.2590534              -7.0492
       126                         -0.2541711              -6.9163
       127                         -0.2504100              -6.8140
       128                         -0.2442937              -6.6476
       129                         -0.1909178              -5.1951
       130                         -0.1847446              -5.0272
       131                         -0.1498528              -4.0777
       132                         -0.1395766              -3.7981
       ...                                ...                  ...
       210                          0.6911668              18.8076
      -------------------------------------------------------------
                  HL-Gap            0.1160570 Eh            3.1581 eV

     #   Z          covCN         q      C6AA      Î±(0)
     1   6 C        2.976    -0.023    28.583     8.770
     2   6 C        3.336     0.485    17.297     6.587
     3   9 F        0.791    -0.230    11.550     4.015
     4   9 F        0.792    -0.201    11.250     3.962
     5   9 F        0.791    -0.201    11.248     3.962
     6   6 C        2.924    -0.019    28.490     8.753
     7   6 C        2.920    -0.021    28.532     8.759
     8   6 C        2.919    -0.016    28.415     8.741
     9   6 C        2.927    -0.027    28.675     8.782
    10   6 C        2.971     0.028    27.374     8.582
    11   6 C        3.831     0.049    19.726     6.319
    12   6 C        3.821     0.043    19.841     6.339
    13   6 C        2.971     0.019    27.580     8.614
    14   6 C        2.976    -0.027    28.672     8.783
    15   6 C        3.336     0.486    17.295     6.587
    16   9 F        0.791    -0.209    11.329     3.976
    17   9 F        0.791    -0.216    11.405     3.989
    18   9 F        0.792    -0.203    11.262     3.964
    19   6 C        2.924    -0.022    28.553     8.763
    20   6 C        2.920    -0.022    28.547     8.762
    21   6 C        2.918    -0.016    28.409     8.740
    22   6 C        2.927    -0.026    28.642     8.777
    23   7 N        2.764    -0.123    23.677     7.227
    24   6 C        2.760     0.262    22.577     7.781
    25   6 C        3.093     0.074    26.244     8.397
    26   6 C        3.019    -0.060    29.456     8.903
    27   6 C        3.054    -0.024    28.547     8.762
    28   6 C        3.754    -0.109    22.644     6.785
    29   6 C        3.101     0.112    25.413     8.261
    30   6 C        3.753    -0.120    22.849     6.816
    31   8 O        1.728    -0.204    17.385     5.630
    32   8 O        0.860    -0.419    22.065     6.298
    33   6 C        3.767     0.091    19.112     6.231
    34   6 C        2.690     0.360    20.890     7.480
    35   8 O        1.659    -0.365    20.180     6.064
    36   8 O        0.856    -0.375    21.182     6.171
    37   7 N        2.760    -0.111    23.418     7.187
    38   6 C        2.759     0.261    22.606     7.786
    39   6 C        3.082     0.070    26.343     8.414
    40   6 C        3.017    -0.055    29.346     8.886
    41   6 C        3.050    -0.022    28.515     8.758
    42   6 C        3.754    -0.109    22.639     6.785
    43   6 C        3.092     0.118    25.314     8.247
    44   6 C        3.753    -0.122    22.896     6.823
    45   8 O        1.728    -0.212    17.525     5.652
    46   8 O        0.860    -0.435    22.384     6.343
    47   1 H        0.926     0.066     2.125     2.280
    48   1 H        0.926     0.056     2.248     2.345
    49   1 H        0.926     0.054     2.275     2.359
    50   1 H        0.926     0.066     2.125     2.280
    51   1 H        0.924     0.061     2.188     2.313
    52   1 H        0.924     0.067     2.122     2.278
    53   1 H        0.926     0.066     2.127     2.281
    54   1 H        0.926     0.059     2.209     2.324
    55   1 H        0.926     0.061     2.188     2.313
    56   1 H        0.926     0.056     2.241     2.341
    57   1 H        0.927     0.061     2.189     2.314
    58   1 H        0.925     0.055     2.254     2.348
    59   1 H        0.925     0.049     2.338     2.391
    60   1 H        0.925     0.049     2.334     2.389
    61   1 H        0.924     0.060     2.200     2.320
    62   1 H        0.925     0.073     2.048     2.238
    63   1 H        0.925     0.063     2.161     2.299
    64   1 H        0.923     0.100     1.782     2.087
    65   1 H        0.804     0.340     0.613     1.230
    66   1 H        0.926     0.063     2.169     2.303
    67   1 H        0.925     0.054     2.272     2.357
    68   1 H        0.925     0.051     2.313     2.378
    69   1 H        0.925     0.048     2.347     2.396
    70   1 H        0.925     0.066     2.132     2.283
    71   1 H        0.925     0.081     1.971     2.196
    72   1 H        0.925     0.061     2.186     2.312

Wiberg/Mayer (AO) data.
largest (>0.10) Wiberg bond orders for each atom

     #   Z sym  total        # sym  WBO       # sym  WBO       # sym  WBO
 ---------------------------------------------------------------------------
     1   6 C    3.969 --     6 C    1.412    10 C    1.384     2 C    0.953
                             8 C    0.105
     2   6 C    3.819 --     4 F    0.955     1 C    0.953     5 F    0.950
                             3 F    0.921
     3   9 F    1.048 --     2 C    0.921
     4   9 F    1.077 --     2 C    0.955
     5   9 F    1.081 --     2 C    0.950
     6   6 C    3.987 --     7 C    1.444     1 C    1.412    47 H    0.966
                             9 C    0.109
     7   6 C    3.989 --     6 C    1.444     8 C    1.432    48 H    0.969
                            10 C    0.108
     8   6 C    3.990 --     9 C    1.449     7 C    1.432    49 H    0.969
                             1 C    0.105
     9   6 C    3.987 --     8 C    1.449    10 C    1.407    50 H    0.960
                             6 C    0.109
    10   6 C    3.985 --     9 C    1.407     1 C    1.384    11 C    0.996
                             7 C    0.108
    11   6 C    3.969 --    10 C    0.996    37 N    0.962    51 H    0.952
                            12 C    0.941
    12   6 C    3.970 --    13 C    0.999    23 N    0.967    52 H    0.952
                            11 C    0.941
    13   6 C    3.987 --    22 C    1.405    14 C    1.387    12 C    0.999
                            20 C    0.108
    14   6 C    3.969 --    19 C    1.409    13 C    1.387    15 C    0.952
                            21 C    0.104
    15   6 C    3.821 --    18 F    0.953    14 C    0.952    16 F    0.940
                            17 F    0.937
    16   9 F    1.071 --    15 C    0.940
    17   9 F    1.064 --    15 C    0.937
    18   9 F    1.075 --    15 C    0.953
    19   6 C    3.987 --    20 C    1.446    14 C    1.409    53 H    0.966
                            22 C    0.108
    20   6 C    3.988 --    19 C    1.446    21 C    1.430    54 H    0.969
                            13 C    0.108
    21   6 C    3.989 --    22 C    1.449    20 C    1.430    55 H    0.968
                            14 C    0.104
    22   6 C    3.990 --    21 C    1.449    13 C    1.405    56 H    0.964
                            19 C    0.108
    23   7 N    3.434 --    24 C    1.162    33 C    0.972    12 C    0.967
                            32 O    0.175
    24   6 C    3.955 --    32 O    1.660    23 N    1.162    25 C    1.035
    25   6 C    3.903 --    26 C    1.513    31 O    1.090    24 C    1.035
                            29 C    0.130
    26   6 C    3.982 --    25 C    1.513    27 C    1.304    57 H    0.972
    27   6 C    3.980 --    29 C    1.508    26 C    1.304    28 C    1.031
    28   6 C    3.995 --    27 C    1.031    58 H    0.984    59 H    0.976
                            60 H    0.970
    29   6 C    3.906 --    27 C    1.508    31 O    1.122    30 C    1.033
                            25 C    0.130
    30   6 C    3.991 --    29 C    1.033    62 H    0.978    63 H    0.973
                            61 H    0.962
    31   8 O    2.422 --    29 C    1.122    25 C    1.090
    32   8 O    2.011 --    24 C    1.660    23 N    0.175
    33   6 C    3.960 --    37 N    0.993    23 N    0.972    64 H    0.934
                            34 C    0.909
    34   6 C    3.918 --    36 O    1.792    35 O    1.140    33 C    0.909
    35   8 O    2.212 --    34 C    1.140    65 H    0.858    36 O    0.178
    36   8 O    2.071 --    34 C    1.792    35 O    0.178
    37   7 N    3.451 --    38 C    1.178    33 C    0.993    11 C    0.962
                            46 O    0.180
    38   6 C    3.957 --    46 O    1.638    37 N    1.178    39 C    1.047
    39   6 C    3.898 --    40 C    1.507    45 O    1.081    38 C    1.047
                            43 C    0.131
    40   6 C    3.983 --    39 C    1.507    41 C    1.310    66 H    0.971
    41   6 C    3.981 --    43 C    1.503    40 C    1.310    42 C    1.031
    42   6 C    3.995 --    41 C    1.031    67 H    0.985    69 H    0.974
                            68 H    0.972
    43   6 C    3.903 --    41 C    1.503    45 O    1.118    44 C    1.033
                            39 C    0.131
    44   6 C    3.990 --    43 C    1.033    71 H    0.978    72 H    0.969
                            70 H    0.963
    45   8 O    2.424 --    43 C    1.118    39 C    1.081
    46   8 O    1.995 --    38 C    1.638    37 N    0.180
    47   1 H    0.995 --     6 C    0.966
    48   1 H    0.996 --     7 C    0.969
    49   1 H    0.996 --     8 C    0.969
    50   1 H    0.995 --     9 C    0.960
    51   1 H    0.995 --    11 C    0.952
    52   1 H    0.995 --    12 C    0.952
    53   1 H    0.995 --    19 C    0.966
    54   1 H    0.996 --    20 C    0.969
    55   1 H    0.995 --    21 C    0.968
    56   1 H    0.996 --    22 C    0.964
    57   1 H    0.996 --    26 C    0.972
    58   1 H    0.997 --    28 C    0.984
    59   1 H    0.997 --    28 C    0.976
    60   1 H    0.997 --    28 C    0.970
    61   1 H    0.994 --    30 C    0.962
    62   1 H    0.994 --    30 C    0.978
    63   1 H    0.995 --    30 C    0.973
    64   1 H    0.989 --    33 C    0.934
    65   1 H    0.884 --    35 O    0.858
    66   1 H    0.996 --    40 C    0.971
    67   1 H    0.997 --    42 C    0.985
    68   1 H    0.997 --    42 C    0.972
    69   1 H    0.997 --    42 C    0.974
    70   1 H    0.993 --    44 C    0.963
    71   1 H    0.993 --    44 C    0.978
    72   1 H    0.994 --    44 C    0.969
 ---------------------------------------------------------------------------

molecular dipole:
                 x           y           z       tot (Debye)
 q only:       -0.515       0.153       1.202
   full:       -0.513       0.167       1.327       3.641

           -------------------------------------------------
          | TOTAL ENERGY             -140.535106878267 Eh   |
          | GRADIENT NORM               0.000388305463 Eh/Î± |
          | HOMO-LUMO GAP               3.158071368165 eV   |
           -------------------------------------------------

 * finished run on 2022/03/17 at 01:24:03.012
