   * xtb version 6.3.3 (4ae9cef) compiled by 'conda@95abc7406d43' on 2020-10-14
          program call               : xtb acid_216.xyz --opt --chrg 0 --uhf 0 --gfn 2
          number of atoms            :                    66
          number of electrons        :                   230
          charge                     :                     0
          spin                       :                   0.0

   ID    Z sym.   atoms
    1    6 C      1, 2, 6-15, 19-22, 24-26, 28-30, 32, 33, 37-39, 41-43
    2    9 F      3-5, 16-18
    3    7 N      23, 36
    4    8 O      27, 31, 34, 35, 40, 44
    5    1 H      45-66

          :  Hamiltonian                  GFN2-xTB          :
 * total energy  :  -134.1613138 Eh     change       -0.2335639E-08 Eh
 * total energy  :  -134.1771481 Eh     change       -0.1583433E-01 Eh
 * total energy  :  -134.1818882 Eh     change       -0.4740113E-02 Eh
 * total energy  :  -134.1835158 Eh     change       -0.1627546E-02 Eh
 * total energy  :  -134.1845764 Eh     change       -0.1060608E-02 Eh
 * total energy  :  -134.1851749 Eh     change       -0.5985519E-03 Eh
 * total energy  :  -134.1855986 Eh     change       -0.4236422E-03 Eh
 * total energy  :  -134.1860013 Eh     change       -0.4027520E-03 Eh
 * total energy  :  -134.1863680 Eh     change       -0.3667249E-03 Eh
 * total energy  :  -134.1866502 Eh     change       -0.2821867E-03 Eh
 * total energy  :  -134.1879869 Eh     change       -0.3137869E-04 Eh
 * total energy  :  -134.1880162 Eh     change       -0.2931626E-04 Eh
 * total energy  :  -134.1879991 Eh     change        0.1716133E-04 Eh
 * total energy  :  -134.1880369 Eh     change       -0.3779214E-04 Eh
 * total energy  :  -134.1880498 Eh     change       -0.1292971E-04 Eh
 * total energy  :  -134.1880611 Eh     change       -0.1132540E-04 Eh
 * total energy  :  -134.1880677 Eh     change       -0.6603588E-05 Eh
 * total energy  :  -134.1880742 Eh     change       -0.6461319E-05 Eh
 * total energy  :  -134.1880783 Eh     change       -0.4088011E-05 Eh
   *** GEOMETRY OPTIMIZATION CONVERGED AFTER 42 ITERATIONS ***

 final structure:
================
66
 xtb: 6.3.3 (4ae9cef)
C        -0.02267119878269   -3.42275475087674    0.37091845010191
C         0.65036413524027   -3.41041131739709    1.71426066336216
F        -0.12914578579346   -2.96734417373742    2.71610901461349
F         1.08909908314824   -4.61427083807821    2.09634556940972
F         1.74452007411014   -2.60618037518804    1.73740960260868
C        -0.13496207068012   -4.63520848860757   -0.29801673188871
C        -0.73435603148047   -4.69187037429849   -1.54175079578053
C        -1.22448664513805   -3.53525654954423   -2.12125401899669
C        -1.11145421177523   -2.32691859241806   -1.46016115525987
C        -0.51374690686022   -2.25114591646424   -0.20782621881936
C        -0.41256659304433   -0.90497634659690    0.46720732359476
C         0.60687941061398    0.04066785070945   -0.22281051622792
C         1.87602260522751    0.12482283253765    0.58785771636217
C         3.08153838278965   -0.45607344263413    0.19235512153409
C         3.19269321460096   -1.23477409746330   -1.09011112680754
F         2.33737262423961   -2.27365917314696   -1.14325471115454
F         2.92762861510575   -0.49455340319222   -2.18690121678087
F         4.41138783841664   -1.74623015140978   -1.28663093883292
C         4.20606696894343   -0.36009176131621    1.00400225276795
C         4.13823781085938    0.29567000907844    2.21784012130301
C         2.93889447893982    0.84691155917698    2.63431828660863
C         1.82347836724676    0.75949510644407    1.82489718611037
N        -0.09023019514779    1.31870459603000   -0.27824265459184
C         0.42431855627412    2.55211771825955   -0.47144551753714
C         1.85362467720363    2.63695727076270   -0.82225836379193
C         2.92100906289357    3.03866007511852   -0.07401876235993
O         4.03761131763502    3.03277335769920   -0.80846973854187
C         3.69463484623738    2.65762084756488   -2.05360683097055
C         2.35939410886830    2.40326830123152   -2.14097278667419
C         1.56392597167968    2.03631274630173   -3.34189090031395
O        -0.30414879969500    3.53965342393416   -0.42556659998170
C        -1.52086220614664    1.16504312694759   -0.06941635150209
C        -2.27048748148097    1.40150982999611   -1.41978838714530
O        -2.38299981194615    2.66624837014357   -1.76315420094777
O        -2.68453036536641    0.49205362844511   -2.07960642501069
N        -1.67036829138784   -0.17419531198105    0.41184871135890
C        -2.84854920932314   -0.75741491038519    0.77878873751573
C        -4.00444559907677    0.17251643513337    0.77941191403487
C        -5.01490251325122    0.26439750912426   -0.13223892061136
O        -5.90554355959355    1.18910460453804    0.24260574806193
C        -5.48664043309498    1.69491801535146    1.41586736719786
C        -4.31883606482018    1.11366287884431    1.81068943598518
C        -3.53844099497163    1.35761399508491    3.05584575821732
O        -2.90875349008442   -1.91676784857425    1.11681676134383
H         0.24614604240513   -5.53420886460797    0.16037445303443
H        -0.82024431539615   -5.63872923944898   -2.05144866798424
H        -1.69977877538132   -3.56974421086784   -3.08939694140922
H        -1.52126380838691   -1.43408386004910   -1.90798177203144
H        -0.14231840825386   -1.02598145757262    1.52219257258922
H         0.79662982155041   -0.31129655857288   -1.24231510535024
H         5.13248727364930   -0.81059332258469    0.68486555390790
H         5.01604000172001    0.36220930867338    2.84063719766224
H         2.86996387046430    1.34104209611795    3.59116654986361
H         0.89078801008327    1.19504308846871    2.15130451637581
H         3.00072387096767    3.32226749241310    0.95589324750277
H         4.47243186034910    2.60696956800619   -2.78827969128874
H         0.90275866506267    2.85865167707133   -3.61572141068299
H         0.94721436078209    1.15945745723913   -3.15530049962176
H         2.22644323265410    1.82344835694422   -4.17551881766808
H        -1.87249712251224    1.91770496068459    0.65779137062152
H        -1.80686645554278    3.26129378283642   -1.21325753405454
H        -5.17538464510501   -0.24871698794868   -1.05874185872148
H        -6.09447783425843    2.44837765362788    1.87596707271142
H        -4.15052786835365    1.88087512098624    3.78522753560945
H        -3.20979274846689    0.41022606121897    3.47943477375800
H        -2.65405071935243    1.96517961223424    2.85710258359379

          :  Hamiltonian                  GFN2-xTB          :
         :: total energy            -134.188078279499 Eh    ::
         :: gradient norm              0.000952955327 Eh/a0 ::
         :: HOMO-LUMO gap              3.184145848383 eV    ::
         :: SCC energy              -135.686063228101 Eh    ::
         :: -> dispersion             -0.099276870951 Eh    ::
         :: repulsion energy           1.493538549848 Eh    ::

    * Orbital Energies and Occupations

         #    Occupation            Energy/Eh            Energy/eV
      -------------------------------------------------------------
         1        2.0000           -0.8932834             -24.3075
       ...           ...                  ...                  ...
       103        2.0000           -0.4570986             -12.4383
       104        2.0000           -0.4540189             -12.3545
       105        2.0000           -0.4476594             -12.1814
       106        2.0000           -0.4415240             -12.0145
       107        2.0000           -0.4363028             -11.8724
       108        2.0000           -0.4356047             -11.8534
       109        2.0000           -0.4328007             -11.7771
       110        2.0000           -0.4300448             -11.7021
       111        2.0000           -0.4261173             -11.5952
       112        2.0000           -0.4144270             -11.2771
       113        2.0000           -0.4085831             -11.1181
       114        2.0000           -0.4068199             -11.0701
       115        2.0000           -0.4007502             -10.9050 (HOMO)
       116                         -0.2837350              -7.7208 (LUMO)
       117                         -0.2751864              -7.4882
       118                         -0.2661915              -7.2434
       119                         -0.2604094              -7.0861
       120                         -0.2599469              -7.0735
       121                         -0.2501724              -6.8075
       122                         -0.2360398              -6.4230
       123                         -0.2314518              -6.2981
       124                         -0.2191460              -5.9633
       125                         -0.1905145              -5.1842
       126                         -0.1757885              -4.7834
       ...                                ...                  ...
       198                          0.6783308              18.4583
      -------------------------------------------------------------
                  HL-Gap            0.1170152 Eh            3.1841 eV

     #   Z          covCN         q      C6AA      Î±(0)
     1   6 C        2.976    -0.024    28.594     8.771
     2   6 C        3.335     0.485    17.300     6.588
     3   9 F        0.791    -0.205    11.284     3.968
     4   9 F        0.792    -0.199    11.220     3.957
     5   9 F        0.791    -0.231    11.557     4.016
     6   6 C        2.923    -0.019    28.483     8.752
     7   6 C        2.920    -0.020    28.510     8.756
     8   6 C        2.919    -0.015    28.384     8.737
     9   6 C        2.926    -0.027    28.687     8.784
    10   6 C        2.971     0.022    27.506     8.603
    11   6 C        3.821     0.049    19.738     6.322
    12   6 C        3.813     0.041    19.873     6.345
    13   6 C        2.972     0.010    27.782     8.646
    14   6 C        2.976    -0.028    28.693     8.787
    15   6 C        3.335     0.486    17.297     6.588
    16   9 F        0.791    -0.213    11.371     3.983
    17   9 F        0.791    -0.214    11.378     3.984
    18   9 F        0.792    -0.196    11.193     3.952
    19   6 C        2.923    -0.018    28.460     8.749
    20   6 C        2.920    -0.019    28.485     8.752
    21   6 C        2.918    -0.018    28.450     8.747
    22   6 C        2.927    -0.029    28.721     8.789
    23   7 N        2.762    -0.108    23.366     7.179
    24   6 C        2.761     0.275    22.351     7.742
    25   6 C        3.082    -0.058    29.336     8.879
    26   6 C        3.063     0.070    26.379     8.422
    27   8 O        1.730    -0.165    16.781     5.531
    28   6 C        3.082     0.057    26.626     8.459
    29   6 C        3.054    -0.007    28.135     8.699
    30   6 C        3.754    -0.111    22.674     6.790
    31   8 O        0.860    -0.457    22.848     6.409
    32   6 C        3.756     0.077    19.345     6.271
    33   6 C        2.685     0.350    21.056     7.509
    34   8 O        1.656    -0.361    20.101     6.052
    35   8 O        0.856    -0.366    21.015     6.146
    36   7 N        2.763    -0.115    23.501     7.200
    37   6 C        2.757     0.281    22.243     7.723
    38   6 C        3.080    -0.064    29.495     8.904
    39   6 C        3.064     0.075    26.265     8.404
    40   8 O        1.730    -0.163    16.759     5.528
    41   6 C        3.078     0.054    26.702     8.472
    42   6 C        3.056    -0.017    28.373     8.735
    43   6 C        3.753    -0.107    22.603     6.779
    44   8 O        0.859    -0.408    21.831     6.264
    45   1 H        0.926     0.068     2.112     2.272
    46   1 H        0.926     0.058     2.220     2.330
    47   1 H        0.926     0.060     2.196     2.317
    48   1 H        0.926     0.075     2.032     2.229
    49   1 H        0.924     0.065     2.140     2.288
    50   1 H        0.924     0.064     2.150     2.293
    51   1 H        0.926     0.074     2.042     2.235
    52   1 H        0.926     0.065     2.143     2.289
    53   1 H        0.926     0.062     2.179     2.309
    54   1 H        0.926     0.053     2.288     2.366
    55   1 H        0.926     0.056     2.250     2.346
    56   1 H        0.926     0.065     2.143     2.289
    57   1 H        0.925     0.062     2.180     2.309
    58   1 H        0.925     0.050     2.315     2.379
    59   1 H        0.925     0.059     2.209     2.324
    60   1 H        0.923     0.067     2.118     2.276
    61   1 H        0.801     0.367     0.550     1.165
    62   1 H        0.926     0.070     2.088     2.260
    63   1 H        0.926     0.057     2.234     2.337
    64   1 H        0.925     0.052     2.300     2.371
    65   1 H        0.925     0.058     2.223     2.331
    66   1 H        0.924     0.039     2.465     2.455

Wiberg/Mayer (AO) data.
largest (>0.10) Wiberg bond orders for each atom

     #   Z sym  total        # sym  WBO       # sym  WBO       # sym  WBO
 ---------------------------------------------------------------------------
     1   6 C    3.969 --     6 C    1.413    10 C    1.383     2 C    0.953
                             8 C    0.105
     2   6 C    3.818 --     4 F    0.959     1 C    0.953     3 F    0.946
                             5 F    0.921
     3   9 F    1.076 --     2 C    0.946
     4   9 F    1.081 --     2 C    0.959
     5   9 F    1.047 --     2 C    0.921
     6   6 C    3.987 --     7 C    1.442     1 C    1.413    45 H    0.966
                             9 C    0.109
     7   6 C    3.988 --     6 C    1.442     8 C    1.436    46 H    0.969
                            10 C    0.108
     8   6 C    3.989 --     9 C    1.444     7 C    1.436    47 H    0.968
                             1 C    0.105
     9   6 C    3.986 --     8 C    1.444    10 C    1.413    48 H    0.958
                             6 C    0.109
    10   6 C    3.986 --     9 C    1.413     1 C    1.383    11 C    0.991
                             7 C    0.108
    11   6 C    3.968 --    10 C    0.991    36 N    0.961    49 H    0.952
                            12 C    0.947
    12   6 C    3.966 --    13 C    0.995    23 N    0.962    50 H    0.951
                            11 C    0.947
    13   6 C    3.986 --    22 C    1.406    14 C    1.388    12 C    0.995
                            20 C    0.109
    14   6 C    3.971 --    19 C    1.411    13 C    1.388    15 C    0.951
                            21 C    0.104
    15   6 C    3.823 --    18 F    0.960    14 C    0.951    16 F    0.939
                            17 F    0.935
    16   9 F    1.067 --    15 C    0.939
    17   9 F    1.065 --    15 C    0.935
    18   9 F    1.083 --    15 C    0.960
    19   6 C    3.986 --    20 C    1.445    14 C    1.411    51 H    0.965
                            22 C    0.109
    20   6 C    3.987 --    19 C    1.445    21 C    1.430    52 H    0.968
                            13 C    0.109
    21   6 C    3.989 --    22 C    1.450    20 C    1.430    53 H    0.968
                            14 C    0.104
    22   6 C    3.989 --    21 C    1.450    13 C    1.406    54 H    0.966
                            19 C    0.109
    23   7 N    3.494 --    24 C    1.253    32 C    0.967    12 C    0.962
                            31 O    0.185
    24   6 C    3.943 --    31 O    1.604    23 N    1.253    25 C    0.986
    25   6 C    3.973 --    26 C    1.564    29 C    1.220    24 C    0.986
    26   6 C    3.912 --    25 C    1.564    27 O    1.154    55 H    0.965
                            28 C    0.147
    27   8 O    2.463 --    26 C    1.154    28 C    1.127
    28   6 C    3.900 --    29 C    1.585    27 O    1.127    56 H    0.964
                            26 C    0.147
    29   6 C    3.981 --    28 C    1.585    25 C    1.220    30 C    1.035
    30   6 C    3.994 --    29 C    1.035    59 H    0.983    58 H    0.972
                            57 H    0.968
    31   8 O    2.004 --    24 C    1.604    23 N    0.185
    32   6 C    3.959 --    36 N    1.003    23 N    0.967    60 H    0.936
                            33 C    0.887
    33   6 C    3.930 --    35 O    1.775    34 O    1.205    32 C    0.887
    34   8 O    2.242 --    33 C    1.205    61 H    0.777    35 O    0.181
    35   8 O    2.083 --    33 C    1.775    34 O    0.181
    36   7 N    3.450 --    37 C    1.182    32 C    1.003    11 C    0.961
                            44 O    0.188
    37   6 C    3.944 --    44 O    1.712    36 N    1.182    38 C    0.970
    38   6 C    3.974 --    39 C    1.572    42 C    1.228    37 C    0.970
    39   6 C    3.914 --    38 C    1.572    40 O    1.155    62 H    0.964
                            41 C    0.145
    40   8 O    2.464 --    39 C    1.155    41 C    1.129
    41   6 C    3.900 --    42 C    1.585    40 O    1.129    63 H    0.965
                            39 C    0.145
    42   6 C    3.980 --    41 C    1.585    38 C    1.228    43 C    1.031
    43   6 C    3.996 --    42 C    1.031    64 H    0.983    65 H    0.977
                            66 H    0.968
    44   8 O    2.039 --    37 C    1.712    36 N    0.188
    45   1 H    0.995 --     6 C    0.966
    46   1 H    0.996 --     7 C    0.969
    47   1 H    0.996 --     8 C    0.968
    48   1 H    0.994 --     9 C    0.958
    49   1 H    0.995 --    11 C    0.952
    50   1 H    0.996 --    12 C    0.951
    51   1 H    0.994 --    19 C    0.965
    52   1 H    0.995 --    20 C    0.968
    53   1 H    0.995 --    21 C    0.968
    54   1 H    0.997 --    22 C    0.966
    55   1 H    0.997 --    26 C    0.965
    56   1 H    0.994 --    28 C    0.964
    57   1 H    0.996 --    30 C    0.968
    58   1 H    0.997 --    30 C    0.972
    59   1 H    0.996 --    30 C    0.983
    60   1 H    0.995 --    32 C    0.936
    61   1 H    0.865 --    34 O    0.777
    62   1 H    0.995 --    39 C    0.964
    63   1 H    0.996 --    41 C    0.965
    64   1 H    0.997 --    43 C    0.983
    65   1 H    0.997 --    43 C    0.977
    66   1 H    0.998 --    43 C    0.968
 ---------------------------------------------------------------------------

molecular dipole:
                 x           y           z       tot (Debye)
 q only:        1.244       1.118       0.272
   full:        1.467       1.370       0.531       5.278

           -------------------------------------------------
          | TOTAL ENERGY             -134.188078279499 Eh   |
          | GRADIENT NORM               0.000952955327 Eh/Î± |
          | HOMO-LUMO GAP               3.184145848383 eV   |
           -------------------------------------------------

 * finished run on 2022/03/16 at 22:37:57.616
