   * xtb version 6.3.3 (4ae9cef) compiled by 'conda@95abc7406d43' on 2020-10-14
          program call               : xtb acid_2.xyz --opt --chrg 0 --uhf 0 --gfn 2
          number of atoms            :                    72
          number of electrons        :                   218
          charge                     :                     0
          spin                       :                   0.0

   ID    Z sym.   atoms
    1    6 C      1-22, 24-26, 28-30, 32, 33, 37-39, 41-43
    2    7 N      23, 36
    3    8 O      27, 31, 34, 35, 40, 44
    4    1 H      45-72

          :  Hamiltonian                  GFN2-xTB          :
 * total energy  :  -121.6280851 Eh     change       -0.3564381E-08 Eh
 * total energy  :  -121.6431247 Eh     change       -0.1503952E-01 Eh
 * total energy  :  -121.6474311 Eh     change       -0.4306404E-02 Eh
 * total energy  :  -121.6492606 Eh     change       -0.1829577E-02 Eh
 * total energy  :  -121.6508353 Eh     change       -0.1574653E-02 Eh
 * total energy  :  -121.6519971 Eh     change       -0.1161796E-02 Eh
 * total energy  :  -121.6529647 Eh     change       -0.9676566E-03 Eh
 * total energy  :  -121.6540251 Eh     change       -0.1060318E-02 Eh
 * total energy  :  -121.6548020 Eh     change       -0.7768972E-03 Eh
 * total energy  :  -121.6556019 Eh     change       -0.7999138E-03 Eh
 * total energy  :  -121.6654099 Eh     change       -0.4605160E-04 Eh
 * total energy  :  -121.6654517 Eh     change       -0.4176485E-04 Eh
 * total energy  :  -121.6654849 Eh     change       -0.3321014E-04 Eh
 * total energy  :  -121.6655108 Eh     change       -0.2598170E-04 Eh
 * total energy  :  -121.6655188 Eh     change       -0.7985510E-05 Eh
 * total energy  :  -121.6655398 Eh     change       -0.2098096E-04 Eh
 * total energy  :  -121.6655527 Eh     change       -0.1291195E-04 Eh
 * total energy  :  -121.6655588 Eh     change       -0.6109684E-05 Eh
 * total energy  :  -121.6655616 Eh     change       -0.2751802E-05 Eh
   *** GEOMETRY OPTIMIZATION CONVERGED AFTER 84 ITERATIONS ***

 final structure:
================
72
 xtb: 6.3.3 (4ae9cef)
C         1.99461463667710    0.40861893106149    2.39548777398838
C         2.83097176101555    0.26135026001526    3.46379760875654
C         3.63398370539690   -0.88997040255819    3.60510958607181
C         4.50345513589778   -1.07227616122800    4.69998715425904
C         5.26253849430667   -2.20385462908670    4.80836803201322
C         5.18598154962713   -3.20499998801200    3.82746261907718
C         4.35374326137896   -3.05719685730967    2.75345220810299
C         3.55974540841583   -1.90032383460229    2.61143915792231
C         2.69642915899920   -1.71562733623490    1.51321574860205
C         1.93207956968503   -0.58597381232540    1.39980468468644
C         0.96997887493582   -0.43517533644639    0.25365032627491
C        -0.48538253052059   -0.63652776611376    0.71842397093782
C        -0.94924089925217   -2.04379563181180    0.46149546601360
C        -1.37137327252251   -2.44102164682635   -0.77956750002795
C        -1.75559195313178   -3.77394626532139   -1.02496307394854
C        -2.20261002307903   -4.20435934205865   -2.29172631943634
C        -2.56075526554235   -5.50651679968461   -2.50078400191756
C        -2.48982183744174   -6.43851784541861   -1.45349643769360
C        -2.06174001314833   -6.05209435218587   -0.21432772970957
C        -1.68355472954150   -4.71651141140473    0.03368059464357
C        -1.23388168406980   -4.28312620634899    1.29819729451555
C        -0.87749100917464   -2.98221027603301    1.50734833126245
N        -1.23623881721482    0.35479481718501   -0.04257573724704
C        -2.58224412277570    0.46789665553238    0.17123605346114
C        -3.26964954225876    1.55264458397041   -0.56308137848483
C        -4.24564611158034    2.34932584019417   -0.03455194545397
O        -4.70957713442771    3.20690687470253   -0.95016116209731
C        -4.05930151401560    2.96447392709407   -2.10703786233862
C        -4.40346274221343    3.77722176241838   -3.30239932138965
C        -3.15436503145221    1.95931734662774   -1.92767397333526
O        -3.17747209149348   -0.29819268277652    0.89712016399133
C        -0.37450276084204    1.40536996043539   -0.53482024417395
C        -0.58473433248283    2.70771449456562    0.28698196986186
O        -1.15033880386401    3.73095173450731   -0.35846392931656
O        -0.28171846921069    2.77897989411732    1.44019169264034
N         0.95847743715852    0.89941212655454   -0.32817838667043
C         2.09885959916091    1.59712172176038   -0.58124488058442
C         1.86322054948814    2.97402211707231   -1.08923145188919
C         2.20851918744894    4.13378127172176   -0.45970379778027
O         1.87773922118393    5.19570560544946   -1.20608878408906
C         1.32847041081748    4.73921196361889   -2.34903063627846
C         0.86825323124977    5.72389684726320   -3.36244419968058
C         1.29157516200952    3.37615675888515   -2.33249137153663
O         3.20201982905696    1.13113220160608   -0.40851939189133
H         1.38112087635522    1.29283269660639    2.30114667841917
H         2.88582421858003    1.02941124302040    4.22183584964916
H         4.55858215319219   -0.29875332267983    5.45288205376040
H         5.92738244252889   -2.33680530652525    5.64947530633929
H         5.79229831814886   -4.09343293091241    3.92936091369569
H         4.29255271779177   -3.82482964405703    1.99504498943471
H         2.64743733451434   -2.48547719452647    0.75563112019640
H         1.21887497785646   -1.16292523507393   -0.53205078111135
H        -0.57471185907576   -0.41173384012309    1.78983023920096
H        -1.42677590575889   -1.72882211352278   -1.59150238076591
H        -2.25828659193762   -3.48407087998933   -3.09589305432670
H        -2.90188076591173   -5.82883003522642   -3.47388782121309
H        -2.77741101074400   -7.46351314936572   -1.63678989146139
H        -2.00666259542467   -6.76518632408013    0.59585333456703
H        -1.17909700096944   -5.00071160357298    2.10405819826075
H        -0.53517699784300   -2.65680327023078    2.47848811447727
H        -4.65151834048636    2.39515320261605    0.95546786843874
H        -4.27674727830984    4.83750028547723   -3.08857388717464
H        -3.76776912083556    3.49878454871457   -4.13746307333414
H        -5.44407590748009    3.61643698475056   -3.58042097384931
H        -2.53763009956979    1.52131612731185   -2.68711639652046
H        -0.55968613901561    1.59265918770911   -1.60544545457953
H        -1.39282907331885    3.52832127755322   -1.27568260358258
H         2.65792730585277    4.30893400970884    0.49625962117897
H         1.67813595688626    6.40313093878467   -3.62105543126801
H         0.04714542853200    6.32029719109672   -2.96632475544747
H         0.53709229914494    5.20686994579827   -4.25763916763068
H         0.94592316456846    2.73645709815738   -3.11937253550623

          :  Hamiltonian                  GFN2-xTB          :
         :: total energy            -121.665561583638 Eh    ::
         :: gradient norm              0.000906552661 Eh/a0 ::
         :: HOMO-LUMO gap              2.808595620153 eV    ::
         :: SCC energy              -123.492270991370 Eh    ::
         :: -> dispersion             -0.099993340326 Eh    ::
         :: repulsion energy           1.825085485764 Eh    ::

    * Orbital Energies and Occupations

         #    Occupation            Energy/Eh            Energy/eV
      -------------------------------------------------------------
         1        2.0000           -0.7753249             -21.0977
       ...           ...                  ...                  ...
        97        2.0000           -0.4180972             -11.3770
        98        2.0000           -0.4165225             -11.3342
        99        2.0000           -0.4147524             -11.2860
       100        2.0000           -0.4110093             -11.1841
       101        2.0000           -0.4099227             -11.1546
       102        2.0000           -0.4083576             -11.1120
       103        2.0000           -0.4056880             -11.0393
       104        2.0000           -0.4022601             -10.9461
       105        2.0000           -0.4004494             -10.8968
       106        2.0000           -0.3970494             -10.8043
       107        2.0000           -0.3907695             -10.6334
       108        2.0000           -0.3802364             -10.3468
       109        2.0000           -0.3730078             -10.1501 (HOMO)
       110                         -0.2697938              -7.3415 (LUMO)
       111                         -0.2621692              -7.1340
       112                         -0.2544055              -6.9227
       113                         -0.2535192              -6.8986
       114                         -0.2354257              -6.4063
       115                         -0.2315324              -6.3003
       116                         -0.2271276              -6.1805
       117                         -0.2240138              -6.0957
       118                         -0.2187410              -5.9522
       119                         -0.1910249              -5.1981
       120                         -0.1834949              -4.9932
       ...                                ...                  ...
       204                          0.7022224              19.1084
      -------------------------------------------------------------
                  HL-Gap            0.1032140 Eh            2.8086 eV

     #   Z          covCN         q      C6AA      Î±(0)
     1   6 C        2.918    -0.033    28.831     8.805
     2   6 C        2.918    -0.032    28.792     8.799
     3   6 C        2.987     0.015    27.678     8.630
     4   6 C        2.918    -0.034    28.839     8.806
     5   6 C        2.916    -0.030    28.748     8.792
     6   6 C        2.916    -0.030    28.741     8.791
     7   6 C        2.918    -0.034    28.843     8.807
     8   6 C        2.987     0.017    27.627     8.622
     9   6 C        2.923    -0.037    28.920     8.819
    10   6 C        2.971     0.012    27.753     8.641
    11   6 C        3.822     0.047    19.762     6.326
    12   6 C        3.831     0.048    19.754     6.324
    13   6 C        2.970     0.013    27.727     8.637
    14   6 C        2.922    -0.037    28.910     8.817
    15   6 C        2.987     0.016    27.651     8.626
    16   6 C        2.918    -0.034    28.849     8.808
    17   6 C        2.916    -0.029    28.731     8.790
    18   6 C        2.916    -0.029    28.736     8.791
    19   6 C        2.918    -0.033    28.825     8.804
    20   6 C        2.988     0.015    27.680     8.630
    21   6 C        2.918    -0.031    28.784     8.798
    22   6 C        2.920    -0.031    28.768     8.796
    23   7 N        2.762    -0.121    23.635     7.220
    24   6 C        2.761     0.271    22.417     7.754
    25   6 C        3.058    -0.057    29.356     8.885
    26   6 C        3.064     0.081    26.130     8.382
    27   8 O        1.731    -0.169    16.850     5.543
    28   6 C        3.095     0.114    25.377     8.256
    29   6 C        3.753    -0.122    22.891     6.823
    30   6 C        3.019    -0.093    30.302     9.030
    31   8 O        0.859    -0.410    21.877     6.271
    32   6 C        3.751     0.080    19.298     6.265
    33   6 C        2.686     0.345    21.137     7.524
    34   8 O        1.659    -0.362    20.120     6.055
    35   8 O        0.856    -0.345    20.607     6.086
    36   7 N        2.766    -0.113    23.462     7.194
    37   6 C        2.757     0.274    22.367     7.745
    38   6 C        3.063    -0.058    29.386     8.889
    39   6 C        3.063     0.078    26.209     8.395
    40   8 O        1.732    -0.171    16.872     5.546
    41   6 C        3.097     0.115    25.351     8.252
    42   6 C        3.753    -0.121    22.870     6.819
    43   6 C        3.021    -0.089    30.194     9.013
    44   8 O        0.859    -0.409    21.852     6.267
    45   1 H        0.926     0.050     2.319     2.382
    46   1 H        0.926     0.039     2.467     2.456
    47   1 H        0.926     0.033     2.543     2.494
    48   1 H        0.926     0.031     2.578     2.511
    49   1 H        0.926     0.030     2.579     2.512
    50   1 H        0.926     0.032     2.559     2.501
    51   1 H        0.926     0.032     2.563     2.503
    52   1 H        0.923     0.051     2.307     2.375
    53   1 H        0.923     0.061     2.184     2.311
    54   1 H        0.925     0.028     2.612     2.527
    55   1 H        0.926     0.030     2.592     2.518
    56   1 H        0.926     0.031     2.569     2.506
    57   1 H        0.926     0.032     2.557     2.500
    58   1 H        0.926     0.034     2.526     2.486
    59   1 H        0.926     0.040     2.449     2.447
    60   1 H        0.926     0.037     2.493     2.469
    61   1 H        0.926     0.071     2.078     2.254
    62   1 H        0.925     0.068     2.105     2.269
    63   1 H        0.925     0.057     2.229     2.335
    64   1 H        0.925     0.072     2.059     2.244
    65   1 H        0.926     0.031     2.571     2.507
    66   1 H        0.923     0.044     2.400     2.423
    67   1 H        0.804     0.328     0.642     1.259
    68   1 H        0.926     0.066     2.129     2.282
    69   1 H        0.925     0.071     2.076     2.253
    70   1 H        0.925     0.066     2.132     2.283
    71   1 H        0.925     0.056     2.242     2.342
    72   1 H        0.926     0.030     2.592     2.518

Wiberg/Mayer (AO) data.
largest (>0.10) Wiberg bond orders for each atom

     #   Z sym  total        # sym  WBO       # sym  WBO       # sym  WBO
 ---------------------------------------------------------------------------
     1   6 C    3.990 --     2 C    1.566    10 C    1.292    45 H    0.963
     2   6 C    3.991 --     1 C    1.566     3 C    1.275    46 H    0.968
                             9 C    0.114
     3   6 C    3.990 --     4 C    1.283     2 C    1.275     8 C    1.251
     4   6 C    3.992 --     5 C    1.555     3 C    1.283    47 H    0.968
                             7 C    0.118
     5   6 C    3.990 --     4 C    1.555     6 C    1.322    48 H    0.971
     6   6 C    3.992 --     7 C    1.557     5 C    1.322    49 H    0.971
     7   6 C    3.989 --     6 C    1.557     8 C    1.280    50 H    0.968
                             4 C    0.118
     8   6 C    3.990 --     9 C    1.280     7 C    1.280     3 C    1.251
     9   6 C    3.989 --    10 C    1.528     8 C    1.280    51 H    0.966
                             2 C    0.114
    10   6 C    3.984 --     9 C    1.528     1 C    1.292    11 C    0.990
    11   6 C    3.958 --    10 C    0.990    52 H    0.954    36 N    0.953
                            12 C    0.952
    12   6 C    3.958 --    13 C    0.991    23 N    0.955    11 C    0.952
                            53 H    0.951
    13   6 C    3.984 --    14 C    1.525    22 C    1.294    12 C    0.991
    14   6 C    3.990 --    13 C    1.525    15 C    1.283    54 H    0.966
                            21 C    0.115
    15   6 C    3.990 --    14 C    1.283    16 C    1.279    20 C    1.250
    16   6 C    3.990 --    17 C    1.557    15 C    1.279    55 H    0.969
                            19 C    0.118
    17   6 C    3.992 --    16 C    1.557    18 C    1.321    56 H    0.971
    18   6 C    3.990 --    19 C    1.556    17 C    1.321    57 H    0.971
    19   6 C    3.992 --    18 C    1.556    20 C    1.282    58 H    0.968
                            16 C    0.118
    20   6 C    3.990 --    19 C    1.282    21 C    1.277    15 C    1.250
    21   6 C    3.991 --    22 C    1.563    20 C    1.277    59 H    0.968
                            14 C    0.115
    22   6 C    3.990 --    21 C    1.563    13 C    1.294    60 H    0.968
    23   7 N    3.438 --    24 C    1.181    32 C    0.983    12 C    0.955
                            31 O    0.183
    24   6 C    3.950 --    31 O    1.698    23 N    1.181    25 C    0.993
    25   6 C    3.977 --    26 C    1.564    30 C    1.238    24 C    0.993
    26   6 C    3.913 --    25 C    1.564    27 O    1.153    61 H    0.964
                            28 C    0.128
    27   8 O    2.459 --    26 C    1.153    28 C    1.119
    28   6 C    3.911 --    30 C    1.578    27 O    1.119    29 C    1.031
                            26 C    0.128
    29   6 C    3.992 --    28 C    1.031    63 H    0.984    62 H    0.969
                            64 H    0.966
    30   6 C    3.973 --    28 C    1.578    25 C    1.238    65 H    0.972
    31   8 O    2.031 --    24 C    1.698    23 N    0.183
    32   6 C    3.972 --    36 N    0.991    23 N    0.983    66 H    0.940
                            33 C    0.899
    33   6 C    3.921 --    35 O    1.804    34 O    1.140    32 C    0.899
    34   8 O    2.219 --    33 C    1.140    67 H    0.854    35 O    0.168
    35   8 O    2.097 --    33 C    1.804    34 O    0.168
    36   7 N    3.459 --    37 C    1.199    32 C    0.991    11 C    0.953
                            44 O    0.193
    37   6 C    3.949 --    44 O    1.702    36 N    1.199    38 C    0.970
    38   6 C    3.977 --    39 C    1.570    43 C    1.244    37 C    0.970
    39   6 C    3.912 --    38 C    1.570    40 O    1.146    68 H    0.965
                            41 C    0.132
    40   8 O    2.456 --    39 C    1.146    41 C    1.122
    41   6 C    3.912 --    43 C    1.579    40 O    1.122    42 C    1.030
                            39 C    0.132
    42   6 C    3.992 --    41 C    1.030    71 H    0.984    69 H    0.969
                            70 H    0.967
    43   6 C    3.973 --    41 C    1.579    38 C    1.244    72 H    0.974
    44   8 O    2.035 --    37 C    1.702    36 N    0.193
    45   1 H    0.997 --     1 C    0.963
    46   1 H    0.998 --     2 C    0.968
    47   1 H    0.998 --     4 C    0.968
    48   1 H    0.999 --     5 C    0.971
    49   1 H    0.999 --     6 C    0.971
    50   1 H    0.998 --     7 C    0.968
    51   1 H    0.999 --     9 C    0.966
    52   1 H    0.996 --    11 C    0.954
    53   1 H    0.995 --    12 C    0.951
    54   1 H    0.999 --    14 C    0.966
    55   1 H    0.999 --    16 C    0.969
    56   1 H    0.999 --    17 C    0.971
    57   1 H    0.999 --    18 C    0.971
    58   1 H    0.998 --    19 C    0.968
    59   1 H    0.997 --    21 C    0.968
    60   1 H    0.998 --    22 C    0.968
    61   1 H    0.995 --    26 C    0.964
    62   1 H    0.995 --    29 C    0.969
    63   1 H    0.997 --    29 C    0.984
    64   1 H    0.994 --    29 C    0.966
    65   1 H    0.999 --    30 C    0.972
    66   1 H    0.998 --    32 C    0.940
    67   1 H    0.892 --    34 O    0.854
    68   1 H    0.996 --    39 C    0.965
    69   1 H    0.995 --    42 C    0.969
    70   1 H    0.995 --    42 C    0.967
    71   1 H    0.997 --    42 C    0.984
    72   1 H    0.999 --    43 C    0.974
 ---------------------------------------------------------------------------

molecular dipole:
                 x           y           z       tot (Debye)
 q only:       -0.786       0.505      -2.051
   full:       -0.992       0.777      -2.486       7.085

           -------------------------------------------------
          | TOTAL ENERGY             -121.665561583638 Eh   |
          | GRADIENT NORM               0.000906552661 Eh/Î± |
          | HOMO-LUMO GAP               2.808595620153 eV   |
           -------------------------------------------------

 * finished run on 2022/03/16 at 22:25:30.098
