   * xtb version 6.3.3 (4ae9cef) compiled by 'conda@95abc7406d43' on 2020-10-14
          program call               : xtb sub_4.xyz --opt --chrg 0 --uhf 0 --gfn 2
          number of atoms            :                    31
          number of electrons        :                    84
          charge                     :                     0
          spin                       :                   0.0

   ID    Z sym.   atoms
    1    6 C      1-5, 7-9, 11-17
    2    7 N      6, 10
    3    1 H      18-31

          :  Hamiltonian                  GFN2-xTB          :
 * total energy  :   -45.1188373 Eh     change       -0.1349967E-08 Eh
 * total energy  :   -45.1257215 Eh     change       -0.6884224E-02 Eh
 * total energy  :   -45.1270454 Eh     change       -0.1323835E-02 Eh
 * total energy  :   -45.1271750 Eh     change       -0.1296624E-03 Eh
 * total energy  :   -45.1272496 Eh     change       -0.7461073E-04 Eh
 * total energy  :   -45.1272991 Eh     change       -0.4949485E-04 Eh
 * total energy  :   -45.1273206 Eh     change       -0.2144479E-04 Eh
 * total energy  :   -45.1273460 Eh     change       -0.2538328E-04 Eh
 * total energy  :   -45.1273573 Eh     change       -0.1135872E-04 Eh
 * total energy  :   -45.1273647 Eh     change       -0.7388510E-05 Eh
 * total energy  :   -45.1273631 Eh     change        0.1609353E-05 Eh
 * total energy  :   -45.1273680 Eh     change       -0.4930439E-05 Eh
   *** GEOMETRY OPTIMIZATION CONVERGED AFTER 12 ITERATIONS ***

 final structure:
================
31
 xtb: 6.3.3 (4ae9cef)
C        -5.16773254237246    0.45817646591664   -0.96116849844447
C        -3.74735800742485    0.17803448483737   -0.56697419168335
C        -3.45298806257603   -0.80298507282631    0.35995581654851
C        -2.12347927464969   -1.05249766202395    0.68603242467545
C        -1.08576480607323   -0.31153465801682    0.07701352005206
N         0.12157828206999   -0.76698596910909    0.58774884105811
C        -0.16489826408170   -1.76972336802455    1.49317718141929
C        -1.50104600791638   -1.97185015000577    1.58183442179304
C         1.38626078706510   -0.30844664167404    0.26024329700524
N         1.45274205842724    0.66476364436919   -0.64264487962543
C         2.62868905190091    1.14477910531927   -0.99435330215693
C         3.83916678458958    0.70114034779442   -0.47997705121415
C         5.14236179178878    1.30256174850386   -0.89970071085355
C         3.76885761534327   -0.32103386254392    0.46355277289282
C         2.54682150087324   -0.83630959099708    0.84249514486145
C        -1.37878988202441    0.67496824046370   -0.85431143307899
C        -2.70530491201307    0.90064079137945   -1.15942272901728
H        -5.85328074894719    0.19147751930038   -0.15997305638621
H        -5.30222277016220    1.50980563261528   -1.20488604254314
H        -5.43369041666030   -0.12738870619756   -1.84242177953600
H        -4.24149323147858   -1.37265926030899    0.83050749042737
H         0.61261982810283   -2.28249810499517    2.02340517316631
H        -1.99746451422748   -2.68787198009334    2.20669014414409
H         2.59646608324023    1.93361321079306   -1.73586553126580
H         5.93933866680255    0.56307811304306   -0.86208252256014
H         5.40908448340382    2.12061416396314   -0.22930280309163
H         5.07489044215736    1.70218075720089   -1.90883846228685
H         4.67611016388044   -0.71482615711044    0.90061385397324
H         2.50607807399674   -1.62832667370930    1.57134537324682
H        -0.59340820369693    1.24398647439390   -1.32026294492854
H        -2.95214196933776    1.66511615774283   -1.88235751659148

          :  Hamiltonian                  GFN2-xTB          :
         :: total energy             -45.127368023779 Eh    ::
         :: gradient norm              0.000348305968 Eh/a0 ::
         :: HOMO-LUMO gap              3.019532702446 eV    ::
         :: SCC energy               -45.925680197095 Eh    ::
         :: -> dispersion             -0.032306666309 Eh    ::
         :: repulsion energy           0.798517076143 Eh    ::

    * Orbital Energies and Occupations

         #    Occupation            Energy/Eh            Energy/eV
      -------------------------------------------------------------
         1        2.0000           -0.6711617             -18.2632
       ...           ...                  ...                  ...
        30        2.0000           -0.4638014             -12.6207
        31        2.0000           -0.4525234             -12.3138
        32        2.0000           -0.4462648             -12.1435
        33        2.0000           -0.4429807             -12.0541
        34        2.0000           -0.4423405             -12.0367
        35        2.0000           -0.4323413             -11.7646
        36        2.0000           -0.4241182             -11.5408
        37        2.0000           -0.4199354             -11.4270
        38        2.0000           -0.4072065             -11.0807
        39        2.0000           -0.3987804             -10.8514
        40        2.0000           -0.3706615             -10.0862
        41        2.0000           -0.3673751              -9.9968
        42        2.0000           -0.3585932              -9.7578 (HOMO)
        43                         -0.2476274              -6.7383 (LUMO)
        44                         -0.2399394              -6.5291
        45                         -0.2167340              -5.8976
        46                         -0.1839070              -5.0044
        47                         -0.1514628              -4.1215
        48                         -0.0987555              -2.6873
        49                         -0.0614801              -1.6730
        50                          0.0231494               0.6299
        51                          0.0885838               2.4105
        52                          0.1115815               3.0363
        53                          0.1183772               3.2212
       ...                                ...                  ...
        82                          0.7354055              20.0114
      -------------------------------------------------------------
                  HL-Gap            0.1109658 Eh            3.0195 eV

     #   Z          covCN         q      C6AA      Î±(0)
     1   6 C        3.758    -0.107    22.606     6.779
     2   6 C        2.966     0.009    27.815     8.651
     3   6 C        2.917    -0.048    29.193     8.860
     4   6 C        3.110    -0.010    28.116     8.687
     5   6 C        3.086     0.039    27.032     8.523
     6   7 N        2.823    -0.015    21.545     6.894
     7   6 C        3.034    -0.008    28.174     8.706
     8   6 C        2.999    -0.067    29.659     8.934
     9   6 C        2.894     0.142    24.897     8.181
    10   7 N        1.845    -0.248    27.305     7.744
    11   6 C        2.909     0.051    26.852     8.497
    12   6 C        2.960    -0.002    28.083     8.692
    13   6 C        3.757    -0.109    22.633     6.783
    14   6 C        2.935    -0.023    28.587     8.769
    15   6 C        2.914    -0.061    29.516     8.909
    16   6 C        2.908    -0.048    29.193     8.860
    17   6 C        2.930    -0.045    29.129     8.851
    18   1 H        0.925     0.039     2.459     2.452
    19   1 H        0.925     0.040     2.447     2.446
    20   1 H        0.924     0.043     2.406     2.426
    21   1 H        0.926     0.028     2.617     2.530
    22   1 H        0.926     0.032     2.553     2.499
    23   1 H        0.926     0.032     2.557     2.501
    24   1 H        0.925     0.037     2.485     2.465
    25   1 H        0.925     0.045     2.378     2.412
    26   1 H        0.924     0.050     2.323     2.383
    27   1 H        0.925     0.045     2.382     2.414
    28   1 H        0.925     0.034     2.529     2.487
    29   1 H        0.926     0.036     2.508     2.477
    30   1 H        0.926     0.059     2.213     2.326
    31   1 H        0.926     0.029     2.594     2.519

Wiberg/Mayer (AO) data.
largest (>0.10) Wiberg bond orders for each atom

     #   Z sym  total        # sym  WBO       # sym  WBO       # sym  WBO
 ---------------------------------------------------------------------------
     1   6 C    3.996 --     2 C    1.023    18 H    0.984    19 H    0.982
                            20 H    0.970
     2   6 C    3.984 --     3 C    1.464    17 C    1.359     1 C    1.023
     3   6 C    3.988 --     2 C    1.464     4 C    1.344    21 H    0.968
                            16 C    0.109
     4   6 C    3.982 --     3 C    1.344     5 C    1.266     8 C    1.194
     5   6 C    3.953 --    16 C    1.358     4 C    1.266     6 N    1.108
     6   7 N    3.630 --     7 C    1.148     5 C    1.108     9 C    1.103
     7   6 C    3.951 --     8 C    1.646     6 N    1.148    22 H    0.964
     8   6 C    3.970 --     7 C    1.646     4 C    1.194    23 H    0.973
     9   6 C    3.969 --    10 N    1.363    15 C    1.326     6 N    1.103
    10   7 N    3.066 --    11 C    1.442     9 C    1.363
    11   6 C    3.982 --    10 N    1.442    12 C    1.401    24 H    0.962
                            15 C    0.109
    12   6 C    3.971 --    11 C    1.401    14 C    1.386    13 C    1.027
    13   6 C    3.995 --    12 C    1.027    27 H    0.982    25 H    0.981
                            26 H    0.967
    14   6 C    3.989 --    15 C    1.482    12 C    1.386    28 H    0.969
    15   6 C    3.985 --    14 C    1.482     9 C    1.326    29 H    0.964
                            11 C    0.109
    16   6 C    3.988 --    17 C    1.482     5 C    1.358    30 H    0.960
                             3 C    0.109
    17   6 C    3.987 --    16 C    1.482     2 C    1.359    31 H    0.970
    18   1 H    0.998 --     1 C    0.984
    19   1 H    0.998 --     1 C    0.982
    20   1 H    0.996 --     1 C    0.970
    21   1 H    0.999 --     3 C    0.968
    22   1 H    0.998 --     7 C    0.964
    23   1 H    0.998 --     8 C    0.973
    24   1 H    0.998 --    11 C    0.962
    25   1 H    0.997 --    13 C    0.981
    26   1 H    0.995 --    13 C    0.967
    27   1 H    0.997 --    13 C    0.982
    28   1 H    0.998 --    14 C    0.969
    29   1 H    0.998 --    15 C    0.964
    30   1 H    0.996 --    16 C    0.960
    31   1 H    0.999 --    17 C    0.970
 ---------------------------------------------------------------------------

molecular dipole:
                 x           y           z       tot (Debye)
 q only:        0.506       0.043       0.007
   full:        0.964      -0.114       0.188       2.514

           -------------------------------------------------
          | TOTAL ENERGY              -45.127368023779 Eh   |
          | GRADIENT NORM               0.000348305968 Eh/Î± |
          | HOMO-LUMO GAP               3.019532702446 eV   |
           -------------------------------------------------

 * finished run on 2022/03/17 at 02:20:24.691
