   * xtb version 6.3.3 (4ae9cef) compiled by 'conda@95abc7406d43' on 2020-10-14
          program call               : xtb acid_34.xyz --opt --chrg 0 --uhf 0 --gfn 2
          number of atoms            :                    72
          number of electrons        :                   226
          charge                     :                     0
          spin                       :                   0.0

   ID    Z sym.   atoms
    1    6 C      1-22, 24-28, 30, 31, 33, 34, 38-42, 44, 45
    2    7 N      23, 37
    3    9 F      29, 43
    4    8 O      32, 35, 36, 46
    5    1 H      47-72

          :  Hamiltonian                  GFN2-xTB          :
 * total energy  :  -126.1907539 Eh     change       -0.7110756E-08 Eh
 * total energy  :  -126.2102842 Eh     change       -0.1953027E-01 Eh
 * total energy  :  -126.2161807 Eh     change       -0.5896531E-02 Eh
 * total energy  :  -126.2181418 Eh     change       -0.1961126E-02 Eh
 * total energy  :  -126.2191229 Eh     change       -0.9811108E-03 Eh
 * total energy  :  -126.2194632 Eh     change       -0.3402577E-03 Eh
 * total energy  :  -126.2196497 Eh     change       -0.1865029E-03 Eh
 * total energy  :  -126.2197687 Eh     change       -0.1190547E-03 Eh
 * total energy  :  -126.2198856 Eh     change       -0.1168755E-03 Eh
 * total energy  :  -126.2200121 Eh     change       -0.1264326E-03 Eh
 * total energy  :  -126.2453102 Eh     change       -0.2007773E-04 Eh
 * total energy  :  -126.2453280 Eh     change       -0.1781260E-04 Eh
 * total energy  :  -126.2453385 Eh     change       -0.1050960E-04 Eh
 * total energy  :  -126.2453462 Eh     change       -0.7705034E-05 Eh
 * total energy  :  -126.2453540 Eh     change       -0.7787056E-05 Eh
 * total energy  :  -126.2453616 Eh     change       -0.7612561E-05 Eh
 * total energy  :  -126.2453687 Eh     change       -0.7090099E-05 Eh
 * total energy  :  -126.2453749 Eh     change       -0.6143976E-05 Eh
 * total energy  :  -126.2453792 Eh     change       -0.4289436E-05 Eh
   *** GEOMETRY OPTIMIZATION CONVERGED AFTER 165 ITERATIONS ***

 final structure:
================
72
 xtb: 6.3.3 (4ae9cef)
C        -3.79400314154355   -4.57043911249888    1.45779410556047
C        -2.76528174723175   -5.28006788962323    2.00693268129056
C        -1.48192805192306   -4.71814082448202    2.05581543294551
C        -1.25166412088054   -3.46008743739826    1.57320450839184
C        -2.29273412456389   -2.69020846580147    1.00787694007628
C        -3.58835045506863   -3.27452658677354    0.93898928794911
C        -4.64672475788528   -2.56124170602239    0.34057095281861
C        -4.43470506818848   -1.32417815939587   -0.19596031089704
C        -3.16431304729645   -0.73990810128614   -0.12925049059937
C        -2.11752950869114   -1.38211545518171    0.48285179287204
C        -0.76730054071243   -0.71278333795598    0.52869361021655
C        -0.01413024461242   -0.90801285861946   -0.80113266411308
C         0.91102271642614   -2.09490596829640   -0.78571613210084
C         0.55543547824134   -3.19196786048671   -1.52917941501886
C         1.33890309663267   -4.35160920534526   -1.54325450730264
C         2.49171247403008   -4.40493699837574   -0.81475959096200
C         2.89456987432228   -3.30504765010987   -0.03062766984841
C         2.09178371104059   -2.13093405674053    0.00432076638680
C         2.51838834918197   -1.06859990593571    0.83247132480906
C         3.67319373675019   -1.15122540095680    1.55982380984947
C         4.47051066703617   -2.30262504493713    1.50513900143984
C         4.08270522504567   -3.35647441161798    0.72866207804540
N         0.65988848685713    0.36998197908478   -1.01024350279763
C         1.51354579110629    0.54318631538460   -2.05957922639782
C         2.08405004862012    1.92428180488354   -2.17188081611070
C         1.82880418664825    2.68184740367989   -3.30905206034750
C         2.36683593788182    3.94961312387907   -3.43791644458240
C         3.17660114213871    4.43436738732960   -2.42591718169613
F         3.70090988068914    5.66840018631765   -2.53847360162195
C         3.47019554921385    3.68667261031791   -1.29791436943946
C         2.91741703575528    2.42429152454961   -1.17565526743883
O         1.81220412753565   -0.35556001877987   -2.81040614014607
C         0.00787434064043    1.43075424161906   -0.27750511048300
C        -0.83938214861468    2.30785723592264   -1.23984137474089
O        -0.46249299938581    3.58361642388734   -1.36667091156408
O        -1.76286257400386    1.86061511819273   -1.85001819292029
N        -0.84168968015753    0.73868264226157    0.66047114592151
C        -1.59640609338319    1.33959682748463    1.61904887514852
C        -1.62199950071968    2.83745241251012    1.50991006653264
C        -2.73230534601980    3.45054675549974    0.94046589939437
C        -2.78671336393211    4.82760037172785    0.82666877290231
C        -1.72427556696169    5.57678013237921    1.29986094177136
F        -1.76388834826477    6.91669603683642    1.18775614259019
C        -0.61899250633372    4.99078371739613    1.89238879242386
C        -0.57462600979781    3.61151987406857    1.99684595780064
O        -2.20095809368322    0.71992539309241    2.46183300533647
H        -4.78724772514470   -4.99306946464927    1.40490548339286
H        -2.92934380276709   -6.27217885663981    2.40071443287805
H        -0.66803520196797   -5.28821826321119    2.47933711923067
H        -0.24714090282661   -3.06909833588245    1.61773198909308
H        -5.62477688479069   -3.01881169158240    0.30486002988325
H        -5.23894959376710   -0.78416096611518   -0.67243340088593
H        -3.01464689500493    0.23442429643738   -0.57130662556590
H        -0.18721696892003   -1.09832041695349    1.37346674248370
H        -0.74666514045810   -1.04873557734129   -1.60820726613747
H        -0.34693048565809   -3.16285699487691   -2.12167247111524
H         1.02527672845036   -5.19368533181005   -2.14119723949197
H         3.11372873560122   -5.28816587125133   -0.82600030893475
H         1.92245137859216   -0.17284026522731    0.90281558721148
H         3.97789950179622   -0.32592022001228    2.18783126082791
H         5.38212362157636   -2.34861899600593    2.08203710215927
H         4.68242856648689   -4.25415069324612    0.68265024794521
H         1.20460013088764    2.27375116860183   -4.08831256083670
H         2.17455820308278    4.55579260079151   -4.30810448455401
H         4.12830301516624    4.08898628071082   -0.54401695286526
H         3.15911424247519    1.81195882054250   -0.31890633764120
H         0.74922965451038    2.06169371260159    0.24546049937735
H         0.28843534993549    3.83951951116909   -0.81377492373114
H        -3.55145543984069    2.84485790611329    0.58565925914483
H        -3.63544711767343    5.32109413763526    0.38195744579159
H         0.17952853944286    5.61025234861745    2.26925069837290
H         0.26887767493869    3.13702709993358    2.47781476266158

          :  Hamiltonian                  GFN2-xTB          :
         :: total energy            -126.245379153007 Eh    ::
         :: gradient norm              0.000304863919 Eh/a0 ::
         :: HOMO-LUMO gap              2.604207616204 eV    ::
         :: SCC energy              -128.172027683386 Eh    ::
         :: -> dispersion             -0.109976478475 Eh    ::
         :: repulsion energy           1.923105099681 Eh    ::

    * Orbital Energies and Occupations

         #    Occupation            Energy/Eh            Energy/eV
      -------------------------------------------------------------
         1        2.0000           -0.8366018             -22.7651
       ...           ...                  ...                  ...
       101        2.0000           -0.4340683             -11.8116
       102        2.0000           -0.4285325             -11.6610
       103        2.0000           -0.4275242             -11.6335
       104        2.0000           -0.4268870             -11.6162
       105        2.0000           -0.4210199             -11.4565
       106        2.0000           -0.4180953             -11.3770
       107        2.0000           -0.4140676             -11.2674
       108        2.0000           -0.4116329             -11.2011
       109        2.0000           -0.4109198             -11.1817
       110        2.0000           -0.4083809             -11.1126
       111        2.0000           -0.4035427             -10.9810
       112        2.0000           -0.3891035             -10.5880
       113        2.0000           -0.3795749             -10.3288 (HOMO)
       114                         -0.2838721              -7.7246 (LUMO)
       115                         -0.2731765              -7.4335
       116                         -0.2714511              -7.3866
       117                         -0.2672544              -7.2724
       118                         -0.2643249              -7.1926
       119                         -0.2635462              -7.1715
       120                         -0.2612115              -7.1079
       121                         -0.2390302              -6.5043
       122                         -0.2335196              -6.3544
       123                         -0.2314400              -6.2978
       124                         -0.2282115              -6.2099
       ...                                ...                  ...
       210                          0.6914934              18.8165
      -------------------------------------------------------------
                  HL-Gap            0.0957029 Eh            2.6042 eV

     #   Z          covCN         q      C6AA      Î±(0)
     1   6 C        2.921    -0.033    28.822     8.804
     2   6 C        2.915    -0.029    28.725     8.789
     3   6 C        2.917    -0.028    28.705     8.786
     4   6 C        2.917    -0.035    28.872     8.811
     5   6 C        2.983     0.011    27.761     8.643
     6   6 C        2.989     0.017    27.618     8.621
     7   6 C        2.920    -0.034    28.850     8.808
     8   6 C        2.914    -0.027    28.676     8.781
     9   6 C        2.922    -0.031    28.778     8.797
    10   6 C        2.969     0.002    27.967     8.674
    11   6 C        3.820     0.046    19.780     6.329
    12   6 C        3.829     0.049    19.740     6.322
    13   6 C        2.966     0.007    27.870     8.659
    14   6 C        2.924    -0.026    28.657     8.779
    15   6 C        2.914    -0.025    28.627     8.774
    16   6 C        2.921    -0.033    28.820     8.804
    17   6 C        2.988     0.017    27.617     8.620
    18   6 C        2.983     0.013    27.728     8.638
    19   6 C        2.917    -0.038    28.946     8.823
    20   6 C        2.916    -0.030    28.757     8.794
    21   6 C        2.915    -0.029    28.735     8.790
    22   6 C        2.921    -0.032    28.788     8.799
    23   7 N        2.762    -0.118    23.568     7.210
    24   6 C        2.762     0.273    22.391     7.749
    25   6 C        2.975    -0.028    28.690     8.786
    26   6 C        2.927    -0.020    28.499     8.755
    27   6 C        2.916    -0.044    29.086     8.844
    28   6 C        2.787     0.172    24.284     8.072
    29   9 F        0.787    -0.215    11.393     3.987
    30   6 C        2.916    -0.053    29.315     8.878
    31   6 C        2.926    -0.037    28.931     8.821
    32   8 O        0.859    -0.397    21.625     6.235
    33   6 C        3.750     0.083    19.263     6.259
    34   6 C        2.686     0.342    21.185     7.532
    35   8 O        1.659    -0.357    20.033     6.042
    36   8 O        0.856    -0.335    20.427     6.060
    37   7 N        2.765    -0.117    23.543     7.206
    38   6 C        2.761     0.273    22.391     7.749
    39   6 C        2.976    -0.028    28.684     8.785
    40   6 C        2.927    -0.020    28.501     8.755
    41   6 C        2.916    -0.041    29.017     8.833
    42   6 C        2.787     0.175    24.240     8.065
    43   9 F        0.787    -0.215    11.388     3.986
    44   6 C        2.916    -0.053    29.311     8.878
    45   6 C        2.925    -0.037    28.925     8.820
    46   8 O        0.859    -0.399    21.658     6.240
    47   1 H        0.926     0.036     2.499     2.472
    48   1 H        0.926     0.034     2.529     2.487
    49   1 H        0.926     0.032     2.558     2.501
    50   1 H        0.926     0.024     2.668     2.554
    51   1 H        0.926     0.038     2.474     2.460
    52   1 H        0.926     0.039     2.467     2.456
    53   1 H        0.926     0.044     2.396     2.420
    54   1 H        0.924     0.062     2.174     2.306
    55   1 H        0.923     0.060     2.198     2.318
    56   1 H        0.926     0.038     2.473     2.459
    57   1 H        0.926     0.041     2.434     2.439
    58   1 H        0.926     0.040     2.450     2.448
    59   1 H        0.926     0.020     2.730     2.584
    60   1 H        0.926     0.027     2.626     2.534
    61   1 H        0.926     0.034     2.529     2.487
    62   1 H        0.926     0.037     2.488     2.467
    63   1 H        0.926     0.065     2.141     2.288
    64   1 H        0.926     0.074     2.042     2.235
    65   1 H        0.926     0.066     2.134     2.284
    66   1 H        0.926     0.048     2.351     2.398
    67   1 H        0.922     0.034     2.531     2.488
    68   1 H        0.805     0.326     0.649     1.265
    69   1 H        0.926     0.063     2.166     2.301
    70   1 H        0.926     0.074     2.037     2.232
    71   1 H        0.926     0.065     2.143     2.289
    72   1 H        0.926     0.043     2.414     2.430

Wiberg/Mayer (AO) data.
largest (>0.10) Wiberg bond orders for each atom

     #   Z sym  total        # sym  WBO       # sym  WBO       # sym  WBO
 ---------------------------------------------------------------------------
     1   6 C    3.991 --     2 C    1.557     6 C    1.279    47 H    0.968
                             4 C    0.118
     2   6 C    3.992 --     1 C    1.557     3 C    1.322    48 H    0.971
     3   6 C    3.992 --     4 C    1.555     2 C    1.322    49 H    0.971
     4   6 C    3.992 --     3 C    1.555     5 C    1.283    50 H    0.962
                             1 C    0.118
     5   6 C    3.989 --     4 C    1.283    10 C    1.254     6 C    1.252
     6   6 C    3.990 --     7 C    1.280     1 C    1.279     5 C    1.252
     7   6 C    3.990 --     8 C    1.552     6 C    1.280    51 H    0.968
                            10 C    0.115
     8   6 C    3.992 --     7 C    1.552     9 C    1.327    52 H    0.970
     9   6 C    3.990 --    10 C    1.524     8 C    1.327    53 H    0.963
    10   6 C    3.983 --     9 C    1.524     5 C    1.254    11 C    0.989
                             7 C    0.115
    11   6 C    3.956 --    10 C    0.989    12 C    0.952    37 N    0.949
                            54 H    0.945
    12   6 C    3.957 --    13 C    0.993    11 C    0.952    55 H    0.952
                            23 N    0.947
    13   6 C    3.983 --    14 C    1.521    18 C    1.253    12 C    0.993
                            16 C    0.115
    14   6 C    3.989 --    13 C    1.521    15 C    1.328    56 H    0.967
    15   6 C    3.991 --    16 C    1.553    14 C    1.328    57 H    0.970
    16   6 C    3.990 --    15 C    1.553    17 C    1.279    58 H    0.968
                            13 C    0.115
    17   6 C    3.990 --    22 C    1.281    16 C    1.279    18 C    1.252
    18   6 C    3.989 --    19 C    1.283    13 C    1.253    17 C    1.252
    19   6 C    3.992 --    20 C    1.554    18 C    1.283    59 H    0.964
                            22 C    0.118
    20   6 C    3.992 --    19 C    1.554    21 C    1.322    60 H    0.971
    21   6 C    3.992 --    22 C    1.557    20 C    1.322    61 H    0.971
    22   6 C    3.991 --    21 C    1.557    17 C    1.281    62 H    0.968
                            19 C    0.118
    23   7 N    3.449 --    24 C    1.190    33 C    0.985    12 C    0.947
                            32 O    0.189
    24   6 C    3.949 --    32 O    1.716    23 N    1.190    25 C    0.959
    25   6 C    3.986 --    26 C    1.406    31 C    1.400    24 C    0.959
    26   6 C    3.988 --    27 C    1.444    25 C    1.406    63 H    0.967
                            30 C    0.109
    27   6 C    3.988 --    26 C    1.444    28 C    1.396    64 H    0.964
                            31 C    0.110
    28   6 C    3.890 --    27 C    1.396    30 C    1.390    29 F    0.968
    29   9 F    1.102 --    28 C    0.968
    30   6 C    3.988 --    31 C    1.446    28 C    1.390    65 H    0.966
                            26 C    0.109
    31   6 C    3.990 --    30 C    1.446    25 C    1.400    66 H    0.967
                            27 C    0.110
    32   8 O    2.048 --    24 C    1.716    23 N    0.189
    33   6 C    3.974 --    37 N    0.990    23 N    0.985    67 H    0.941
                            34 C    0.898
    34   6 C    3.921 --    36 O    1.810    35 O    1.137    33 C    0.898
    35   8 O    2.223 --    34 C    1.137    68 H    0.865    36 O    0.170
    36   8 O    2.102 --    34 C    1.810    35 O    0.170
    37   7 N    3.459 --    38 C    1.202    33 C    0.990    11 C    0.949
                            46 O    0.195
    38   6 C    3.949 --    46 O    1.715    37 N    1.202    39 C    0.950
    39   6 C    3.987 --    45 C    1.406    40 C    1.403    38 C    0.950
    40   6 C    3.989 --    41 C    1.444    39 C    1.403    69 H    0.967
                            44 C    0.110
    41   6 C    3.988 --    40 C    1.444    42 C    1.395    70 H    0.964
                            45 C    0.110
    42   6 C    3.891 --    41 C    1.395    44 C    1.392    43 F    0.968
    43   9 F    1.103 --    42 C    0.968
    44   6 C    3.988 --    45 C    1.443    42 C    1.392    71 H    0.966
                            40 C    0.110
    45   6 C    3.990 --    44 C    1.443    39 C    1.406    72 H    0.969
                            41 C    0.110
    46   8 O    2.045 --    38 C    1.715    37 N    0.195
    47   1 H    0.998 --     1 C    0.968
    48   1 H    0.998 --     2 C    0.971
    49   1 H    0.998 --     3 C    0.971
    50   1 H    0.999 --     4 C    0.962
    51   1 H    0.997 --     7 C    0.968
    52   1 H    0.997 --     8 C    0.970
    53   1 H    0.998 --     9 C    0.963
    54   1 H    0.996 --    11 C    0.945
    55   1 H    0.996 --    12 C    0.952
    56   1 H    0.998 --    14 C    0.967
    57   1 H    0.997 --    15 C    0.970
    58   1 H    0.997 --    16 C    0.968
    59   1 H    0.999 --    19 C    0.964
    60   1 H    0.999 --    20 C    0.971
    61   1 H    0.998 --    21 C    0.971
    62   1 H    0.998 --    22 C    0.968
    63   1 H    0.996 --    26 C    0.967
    64   1 H    0.994 --    27 C    0.964
    65   1 H    0.995 --    30 C    0.966
    66   1 H    0.998 --    31 C    0.967
    67   1 H    0.998 --    33 C    0.941
    68   1 H    0.894 --    35 O    0.865
    69   1 H    0.996 --    40 C    0.967
    70   1 H    0.994 --    41 C    0.964
    71   1 H    0.995 --    44 C    0.966
    72   1 H    0.998 --    45 C    0.969
 ---------------------------------------------------------------------------

molecular dipole:
                 x           y           z       tot (Debye)
 q only:        0.593      -0.892       0.533
   full:        0.983      -0.461       0.700       3.284

           -------------------------------------------------
          | TOTAL ENERGY             -126.245379153007 Eh   |
          | GRADIENT NORM               0.000304863919 Eh/Î± |
          | HOMO-LUMO GAP               2.604207616204 eV   |
           -------------------------------------------------

 * finished run on 2022/03/17 at 00:02:28.163
