   * xtb version 6.3.3 (4ae9cef) compiled by 'conda@95abc7406d43' on 2020-10-14
          program call               : xtb acid_43.xyz --opt --chrg 0 --uhf 0 --gfn 2
          number of atoms            :                    84
          number of electrons        :                   238
          charge                     :                     0
          spin                       :                   0.0

   ID    Z sym.   atoms
    1    6 C      1-22, 24-32, 34, 35, 39-47
    2    7 N      23, 38
    3    8 O      33, 36, 37, 48
    4    1 H      49-84

          :  Hamiltonian                  GFN2-xTB          :
 * total energy  :  -130.4467015 Eh     change       -0.3481063E-08 Eh
 * total energy  :  -130.4643465 Eh     change       -0.1764505E-01 Eh
 * total energy  :  -130.4698135 Eh     change       -0.5467003E-02 Eh
 * total energy  :  -130.4714409 Eh     change       -0.1627372E-02 Eh
 * total energy  :  -130.4725574 Eh     change       -0.1116486E-02 Eh
 * total energy  :  -130.4731720 Eh     change       -0.6145918E-03 Eh
 * total energy  :  -130.4736886 Eh     change       -0.5166187E-03 Eh
 * total energy  :  -130.4741873 Eh     change       -0.4987071E-03 Eh
 * total energy  :  -130.4746743 Eh     change       -0.4869715E-03 Eh
 * total energy  :  -130.4751145 Eh     change       -0.4402416E-03 Eh
 * total energy  :  -130.4846297 Eh     change       -0.1179862E-04 Eh
 * total energy  :  -130.4846421 Eh     change       -0.1249184E-04 Eh
 * total energy  :  -130.4846522 Eh     change       -0.1008585E-04 Eh
 * total energy  :  -130.4846588 Eh     change       -0.6537384E-05 Eh
 * total energy  :  -130.4846642 Eh     change       -0.5392109E-05 Eh
 * total energy  :  -130.4846699 Eh     change       -0.5694699E-05 Eh
 * total energy  :  -130.4846755 Eh     change       -0.5641725E-05 Eh
 * total energy  :  -130.4846807 Eh     change       -0.5211481E-05 Eh
 * total energy  :  -130.4846855 Eh     change       -0.4813899E-05 Eh
   *** GEOMETRY OPTIMIZATION CONVERGED AFTER 80 ITERATIONS ***

 final structure:
================
84
 xtb: 6.3.3 (4ae9cef)
C         4.24671726680369    1.99869036099340   -2.33802104183520
C         4.87884755257512    2.57176722216405   -1.27272028587385
C         4.28228178463882    2.52582450527283   -0.00565138494370
C         3.08628978196903    1.89134946884312    0.17933944098527
C         2.40996190874819    1.27047525691710   -0.89385190990202
C         3.00327971226177    1.35051074240034   -2.18428680882313
C         2.34083735614233    0.79270214343463   -3.29664209074700
C         1.12921708308382    0.18140650196494   -3.15053339700897
C         0.55160426452568    0.07075398977386   -1.88045015608479
C         1.17438822123551    0.57897039732320   -0.76614818854890
C         0.50135116208372    0.36709931487690    0.56945475154897
C        -0.88515055011739    1.04957378332595    0.65860179097638
C        -0.94811022252713    1.99191760796963    1.84035629035073
C        -1.58259361620054    1.62661521947870    2.99831043673583
C        -1.61283139666844    2.47452233115108    4.11410668829344
C        -0.98821715082940    3.68663014034353    4.07015457242128
C        -0.31625762320733    4.10307397773494    2.90206244483537
C        -0.29729404223204    3.25400876836383    1.76164962254382
C         0.37586392434221    3.70874902540778    0.60644550334681
C         1.00885547844563    4.92054125189116    0.58803121341258
C         0.99780309417760    5.74951706414951    1.71833098490807
C         0.34269806886997    5.34920784204529    2.84789440030207
N        -1.84045326368880   -0.04395169313496    0.75164382625643
C        -3.11600984642936    0.16842074845104    0.31473105547532
C        -4.06450263240807   -0.96882889701651    0.48140727866095
C        -4.86426871322648   -1.41861324869073   -0.57289665710410
C        -4.77562771201307   -0.85056530746219   -1.96071345707713
C        -4.08040793692730   -1.81802315219049   -2.92046504224546
C        -5.76542534624161   -2.44876189170331   -0.32242841617129
C        -5.90340541065848   -3.00001113146535    0.93679514067699
C        -5.14211656039940   -2.51567649772773    1.98755523595318
C        -4.22936589712318   -1.50636014880191    1.75608820810629
O        -3.44480802183703    1.25581767299056   -0.11730082075075
C        -1.19946783095961   -1.29065281713966    1.07268133319742
C        -1.65280370130112   -2.46730291824088    0.18495562925483
O        -2.21750510097246   -3.43987939227802    0.88234590475070
O        -1.56350052127760   -2.44630598350801   -1.01393559998795
N         0.20278955615686   -1.03745154728850    0.79785146941770
C         1.00333677087277   -2.10240653360824    0.57265250661923
C         2.42402996344960   -1.79000777735936    0.25296361209934
C         3.21466340436867   -1.17912099287004    1.21878727929336
C         4.53349316650834   -0.86764312036983    0.94756641405426
C         5.06223696048543   -1.15754443441877   -0.29827867177785
C         4.28185602098173   -1.78658695015265   -1.25020735551567
C         2.96063573506539   -2.12763089045718   -0.99041958923334
C         2.15907453154052   -2.87543179265964   -2.01440469701874
C         2.31246772685650   -4.38302850556400   -1.79828449679340
O         0.54662100525116   -3.23121022167389    0.66779746178173
H         4.68601817866877    2.03811820046640   -3.32462379145770
H         5.82955389330448    3.06834736634216   -1.39850195740180
H         4.77477987319877    2.99840695503297    0.83133992051028
H         2.65426984571230    1.89063278356677    1.16768731476664
H         2.80840719797771    0.86799132899915   -4.26786730216931
H         0.61213573168833   -0.23296956630361   -4.00255680415840
H        -0.39117680483198   -0.44740212886095   -1.77983177035335
H         1.13179987504337    0.72850113769547    1.38707162778699
H        -1.12308177590829    1.60746545939495   -0.25440743140612
H        -2.08158590858648    0.67165068095942    3.06094242258924
H        -2.13078688682062    2.15395239129437    5.00583664467636
H        -0.99818591477950    4.34525723931640    4.92653913308487
H         0.39623893567182    3.09671296185715   -0.28060807255357
H         1.52215157321823    5.24419853281022   -0.30531888504908
H         1.50304478253645    6.70345031177727    1.68582629419963
H         0.31821922341853    5.98206721615830    3.72366883127266
H        -5.78952254255955   -0.65643819187457   -2.32075313486322
H        -4.24053824882911    0.09717661214579   -1.94379448064463
H        -4.63198750337613   -2.75335021515960   -2.99184038258763
H        -4.01830291632714   -1.37784105789755   -3.91285445060772
H        -3.07441238429737   -2.03879179175461   -2.57440203246367
H        -6.38162150188297   -2.80951268499988   -1.13359880759889
H        -6.61597820373351   -3.79430196154263    1.10445712818789
H        -5.26077478071283   -2.92022640658446    2.98109567819284
H        -3.65126313753829   -1.11341694390264    2.57949792309425
H        -1.33354238115741   -1.58647947348088    2.12755813651483
H        -2.43251230507341   -4.19061436825302    0.30681953942051
H         2.79488850139902   -0.96063926804558    2.19059102837353
H         5.14343894639633   -0.39495348068798    1.70236852578250
H         6.08602026281476   -0.89929550977503   -0.52443785853761
H         4.70216890294312   -2.02291347338501   -2.21712093340127
H         1.10254674611567   -2.61623656111493   -1.93832721223057
H         2.50827394680170   -2.60951529147632   -3.01455187561494
H         1.90234145437384   -4.65516844973779   -0.82938968325846
H         3.36172979777529   -4.66973334481970   -1.82911871675664
H         1.77616612314665   -4.92927649967757   -2.57031999415378

          :  Hamiltonian                  GFN2-xTB          :
         :: total energy            -130.484685523944 Eh    ::
         :: gradient norm              0.000316836974 Eh/a0 ::
         :: HOMO-LUMO gap              3.049311404216 eV    ::
         :: SCC energy              -132.614215957612 Eh    ::
         :: -> dispersion             -0.132037402426 Eh    ::
         :: repulsion energy           2.123928541109 Eh    ::

    * Orbital Energies and Occupations

         #    Occupation            Energy/Eh            Energy/eV
      -------------------------------------------------------------
         1        2.0000           -0.7535088             -20.5040
       ...           ...                  ...                  ...
       107        2.0000           -0.4195692             -11.4171
       108        2.0000           -0.4115252             -11.1982
       109        2.0000           -0.4084590             -11.1147
       110        2.0000           -0.4080453             -11.1035
       111        2.0000           -0.4062971             -11.0559
       112        2.0000           -0.4052885             -11.0285
       113        2.0000           -0.4031003             -10.9689
       114        2.0000           -0.3995170             -10.8714
       115        2.0000           -0.3984482             -10.8423
       116        2.0000           -0.3949278             -10.7465
       117        2.0000           -0.3898937             -10.6095
       118        2.0000           -0.3831754             -10.4267
       119        2.0000           -0.3823155             -10.4033 (HOMO)
       120                         -0.2702554              -7.3540 (LUMO)
       121                         -0.2651913              -7.2162
       122                         -0.2527996              -6.8790
       123                         -0.2449154              -6.6645
       124                         -0.2384112              -6.4875
       125                         -0.2361243              -6.4253
       126                         -0.2339557              -6.3663
       127                         -0.2293334              -6.2405
       128                         -0.2263614              -6.1596
       129                         -0.2093194              -5.6959
       130                         -0.1996748              -5.4334
       ...                                ...                  ...
       228                          0.6883262              18.7303
      -------------------------------------------------------------
                  HL-Gap            0.1120601 Eh            3.0493 eV

     #   Z          covCN         q      C6AA      Î±(0)
     1   6 C        2.922    -0.034    28.848     8.808
     2   6 C        2.915    -0.029    28.737     8.790
     3   6 C        2.917    -0.029    28.715     8.787
     4   6 C        2.917    -0.034    28.849     8.808
     5   6 C        2.982     0.007    27.854     8.657
     6   6 C        2.989     0.014    27.689     8.632
     7   6 C        2.921    -0.036    28.891     8.814
     8   6 C        2.914    -0.028    28.695     8.784
     9   6 C        2.923    -0.035    28.862     8.810
    10   6 C        2.967    -0.010    28.274     8.722
    11   6 C        3.813     0.041    19.880     6.346
    12   6 C        3.828     0.045    19.801     6.332
    13   6 C        2.967    -0.002    28.081     8.692
    14   6 C        2.921    -0.032    28.797     8.800
    15   6 C        2.914    -0.030    28.743     8.791
    16   6 C        2.920    -0.036    28.899     8.816
    17   6 C        2.988     0.015    27.664     8.628
    18   6 C        2.986     0.007    27.850     8.657
    19   6 C        2.917    -0.035    28.882     8.813
    20   6 C        2.917    -0.027    28.686     8.783
    21   6 C        2.915    -0.028    28.712     8.787
    22   6 C        2.920    -0.034    28.848     8.808
    23   7 N        2.760    -0.119    23.587     7.213
    24   6 C        2.766     0.274    22.370     7.746
    25   6 C        2.977    -0.030    28.741     8.794
    26   6 C        2.970     0.026    27.416     8.589
    27   6 C        3.806    -0.061    21.662     6.626
    28   6 C        3.753    -0.103    22.533     6.769
    29   6 C        2.927    -0.037    28.914     8.818
    30   6 C        2.918    -0.030    28.743     8.792
    31   6 C        2.918    -0.031    28.776     8.797
    32   6 C        2.925    -0.029    28.713     8.787
    33   8 O        0.859    -0.428    22.246     6.324
    34   6 C        3.760     0.101    18.959     6.207
    35   6 C        2.690     0.374    20.664     7.439
    36   8 O        1.660    -0.356    20.010     6.039
    37   8 O        0.856    -0.411    21.909     6.276
    38   7 N        2.769    -0.113    23.471     7.195
    39   6 C        2.771     0.277    22.320     7.738
    40   6 C        2.981    -0.021    28.521     8.760
    41   6 C        2.923    -0.029    28.729     8.790
    42   6 C        2.920    -0.031    28.770     8.796
    43   6 C        2.919    -0.028    28.701     8.785
    44   6 C        2.926    -0.035    28.872     8.812
    45   6 C        2.973     0.023    27.493     8.601
    46   6 C        3.806    -0.054    21.541     6.607
    47   6 C        3.754    -0.099    22.449     6.756
    48   8 O        0.861    -0.435    22.401     6.346
    49   1 H        0.926     0.036     2.504     2.474
    50   1 H        0.926     0.034     2.524     2.485
    51   1 H        0.926     0.033     2.547     2.496
    52   1 H        0.926     0.026     2.649     2.545
    53   1 H        0.926     0.037     2.489     2.467
    54   1 H        0.926     0.042     2.424     2.435
    55   1 H        0.926     0.054     2.268     2.355
    56   1 H        0.924     0.050     2.321     2.382
    57   1 H        0.924     0.080     1.980     2.201
    58   1 H        0.926     0.028     2.610     2.527
    59   1 H        0.926     0.035     2.512     2.479
    60   1 H        0.926     0.036     2.497     2.471
    61   1 H        0.926     0.031     2.577     2.510
    62   1 H        0.926     0.032     2.557     2.501
    63   1 H        0.926     0.034     2.534     2.490
    64   1 H        0.926     0.035     2.514     2.480
    65   1 H        0.924     0.041     2.432     2.439
    66   1 H        0.925     0.056     2.243     2.342
    67   1 H        0.925     0.031     2.571     2.507
    68   1 H        0.925     0.036     2.502     2.474
    69   1 H        0.925     0.056     2.247     2.344
    70   1 H        0.926     0.039     2.456     2.451
    71   1 H        0.926     0.036     2.509     2.477
    72   1 H        0.926     0.037     2.485     2.465
    73   1 H        0.926     0.026     2.647     2.544
    74   1 H        0.923     0.059     2.217     2.328
    75   1 H        0.804     0.346     0.597     1.214
    76   1 H        0.926     0.029     2.602     2.523
    77   1 H        0.926     0.036     2.502     2.473
    78   1 H        0.926     0.036     2.503     2.474
    79   1 H        0.926     0.039     2.466     2.456
    80   1 H        0.924     0.047     2.358     2.402
    81   1 H        0.924     0.034     2.527     2.486
    82   1 H        0.925     0.057     2.231     2.336
    83   1 H        0.925     0.033     2.549     2.497
    84   1 H        0.925     0.039     2.463     2.454

Wiberg/Mayer (AO) data.
largest (>0.10) Wiberg bond orders for each atom

     #   Z sym  total        # sym  WBO       # sym  WBO       # sym  WBO
 ---------------------------------------------------------------------------
     1   6 C    3.991 --     2 C    1.557     6 C    1.279    49 H    0.968
                             4 C    0.118
     2   6 C    3.992 --     1 C    1.557     3 C    1.322    50 H    0.971
     3   6 C    3.990 --     4 C    1.553     2 C    1.322    51 H    0.971
     4   6 C    3.992 --     3 C    1.553     5 C    1.282    52 H    0.960
                             1 C    0.118
     5   6 C    3.988 --     4 C    1.282    10 C    1.252     6 C    1.252
     6   6 C    3.990 --     7 C    1.279     1 C    1.279     5 C    1.252
     7   6 C    3.989 --     8 C    1.551     6 C    1.279    53 H    0.968
                            10 C    0.114
     8   6 C    3.991 --     7 C    1.551     9 C    1.327    54 H    0.970
     9   6 C    3.989 --    10 C    1.520     8 C    1.327    55 H    0.963
    10   6 C    3.983 --     9 C    1.520     5 C    1.252    11 C    0.987
                             7 C    0.114
    11   6 C    3.963 --    10 C    0.987    38 N    0.959    12 C    0.950
                            56 H    0.947
    12   6 C    3.961 --    13 C    0.986    23 N    0.966    11 C    0.950
                            57 H    0.943
    13   6 C    3.984 --    14 C    1.532    18 C    1.247    12 C    0.986
                            16 C    0.114
    14   6 C    3.990 --    13 C    1.532    15 C    1.320    58 H    0.965
    15   6 C    3.992 --    16 C    1.558    14 C    1.320    59 H    0.970
    16   6 C    3.990 --    15 C    1.558    17 C    1.276    60 H    0.968
                            13 C    0.114
    17   6 C    3.990 --    22 C    1.281    16 C    1.276    18 C    1.255
    18   6 C    3.989 --    19 C    1.285    17 C    1.255    13 C    1.247
    19   6 C    3.992 --    20 C    1.552    18 C    1.285    61 H    0.963
                            22 C    0.119
    20   6 C    3.992 --    19 C    1.552    21 C    1.324    62 H    0.971
    21   6 C    3.992 --    22 C    1.555    20 C    1.324    63 H    0.971
    22   6 C    3.991 --    21 C    1.555    17 C    1.281    64 H    0.968
                            19 C    0.119
    23   7 N    3.456 --    24 C    1.193    34 C    0.990    12 C    0.966
                            33 O    0.184
    24   6 C    3.942 --    33 O    1.681    23 N    1.193    25 C    0.979
    25   6 C    3.986 --    32 C    1.392    26 C    1.376    24 C    0.979
                            30 C    0.104
    26   6 C    3.985 --    29 C    1.406    25 C    1.376    27 C    1.016
                            31 C    0.106
    27   6 C    3.995 --    26 C    1.016    28 C    1.000    66 H    0.972
                            65 H    0.967
    28   6 C    3.994 --    27 C    1.000    67 H    0.988    68 H    0.986
                            69 H    0.979
    29   6 C    3.991 --    30 C    1.454    26 C    1.406    70 H    0.968
                            32 C    0.109
    30   6 C    3.991 --    29 C    1.454    31 C    1.424    71 H    0.971
                            25 C    0.104
    31   6 C    3.991 --    32 C    1.452    30 C    1.424    72 H    0.970
                            26 C    0.106
    32   6 C    3.991 --    31 C    1.452    25 C    1.392    73 H    0.967
                            29 C    0.109
    33   8 O    2.015 --    24 C    1.681    23 N    0.184
    34   6 C    3.966 --    23 N    0.990    38 N    0.970    74 H    0.942
                            35 C    0.913
    35   6 C    3.923 --    37 O    1.734    36 O    1.162    34 C    0.913
    36   8 O    2.222 --    35 C    1.162    75 H    0.854    37 O    0.170
    37   8 O    2.038 --    35 C    1.734    36 O    0.170
    38   7 N    3.473 --    39 C    1.235    34 C    0.970    11 C    0.959
                            48 O    0.186
    39   6 C    3.939 --    48 O    1.638    38 N    1.235    40 C    0.971
    40   6 C    3.986 --    41 C    1.404    45 C    1.373    39 C    0.971
                            43 C    0.106
    41   6 C    3.991 --    42 C    1.444    40 C    1.404    76 H    0.969
                            44 C    0.108
    42   6 C    3.991 --    41 C    1.444    43 C    1.430    77 H    0.970
                            45 C    0.107
    43   6 C    3.992 --    44 C    1.447    42 C    1.430    78 H    0.971
                            40 C    0.106
    44   6 C    3.991 --    43 C    1.447    45 C    1.410    79 H    0.968
                            41 C    0.108
    45   6 C    3.986 --    44 C    1.410    40 C    1.373    46 C    1.016
                            42 C    0.107
    46   6 C    3.996 --    45 C    1.016    47 C    0.996    81 H    0.973
                            80 H    0.968
    47   6 C    3.993 --    46 C    0.996    83 H    0.988    84 H    0.986
                            82 H    0.984
    48   8 O    2.038 --    39 C    1.638    38 N    0.186
    49   1 H    0.998 --     1 C    0.968
    50   1 H    0.998 --     2 C    0.971
    51   1 H    0.998 --     3 C    0.971
    52   1 H    0.999 --     4 C    0.960
    53   1 H    0.998 --     7 C    0.968
    54   1 H    0.997 --     8 C    0.970
    55   1 H    0.997 --     9 C    0.963
    56   1 H    0.997 --    11 C    0.947
    57   1 H    0.993 --    12 C    0.943
    58   1 H    0.999 --    14 C    0.965
    59   1 H    0.998 --    15 C    0.970
    60   1 H    0.998 --    16 C    0.968
    61   1 H    0.999 --    19 C    0.963
    62   1 H    0.999 --    20 C    0.971
    63   1 H    0.998 --    21 C    0.971
    64   1 H    0.998 --    22 C    0.968
    65   1 H    0.998 --    27 C    0.967
    66   1 H    0.997 --    27 C    0.972
    67   1 H    0.999 --    28 C    0.988
    68   1 H    0.998 --    28 C    0.986
    69   1 H    0.997 --    28 C    0.979
    70   1 H    0.998 --    29 C    0.968
    71   1 H    0.998 --    30 C    0.971
    72   1 H    0.997 --    31 C    0.970
    73   1 H    0.999 --    32 C    0.967
    74   1 H    0.996 --    34 C    0.942
    75   1 H    0.879 --    36 O    0.854
    76   1 H    0.999 --    41 C    0.969
    77   1 H    0.998 --    42 C    0.970
    78   1 H    0.998 --    43 C    0.971
    79   1 H    0.998 --    44 C    0.968
    80   1 H    0.998 --    46 C    0.968
    81   1 H    0.999 --    46 C    0.973
    82   1 H    0.997 --    47 C    0.984
    83   1 H    0.999 --    47 C    0.988
    84   1 H    0.997 --    47 C    0.986
 ---------------------------------------------------------------------------

molecular dipole:
                 x           y           z       tot (Debye)
 q only:        1.082       0.276       0.172
   full:        1.095       0.086       0.366       2.944

           -------------------------------------------------
          | TOTAL ENERGY             -130.484685523944 Eh   |
          | GRADIENT NORM               0.000316836974 Eh/Î± |
          | HOMO-LUMO GAP               3.049311404216 eV   |
           -------------------------------------------------

 * finished run on 2022/03/17 at 01:07:27.791
