   * xtb version 6.3.3 (4ae9cef) compiled by 'conda@95abc7406d43' on 2020-10-14
          program call               : xtb acid_72.xyz --opt --chrg 0 --uhf 0 --gfn 2
          number of atoms            :                    78
          number of electrons        :                   226
          charge                     :                     0
          spin                       :                   0.0

   ID    Z sym.   atoms
    1    6 C      1-22, 24-31, 33, 34, 38-45
    2    7 N      23, 37
    3    8 O      32, 35, 36, 46
    4    1 H      47-78

          :  Hamiltonian                  GFN2-xTB          :
 * total energy  :  -124.1129396 Eh     change       -0.2890985E-08 Eh
 * total energy  :  -124.1292873 Eh     change       -0.1634772E-01 Eh
 * total energy  :  -124.1333204 Eh     change       -0.4033094E-02 Eh
 * total energy  :  -124.1348644 Eh     change       -0.1543960E-02 Eh
 * total energy  :  -124.1358633 Eh     change       -0.9989207E-03 Eh
 * total energy  :  -124.1363330 Eh     change       -0.4696726E-03 Eh
 * total energy  :  -124.1365692 Eh     change       -0.2362275E-03 Eh
 * total energy  :  -124.1367116 Eh     change       -0.1423564E-03 Eh
 * total energy  :  -124.1368133 Eh     change       -0.1017365E-03 Eh
 * total energy  :  -124.1369195 Eh     change       -0.1061632E-03 Eh
 * total energy  :  -124.1446277 Eh     change       -0.7164921E-04 Eh
 * total energy  :  -124.1446947 Eh     change       -0.6699119E-04 Eh
 * total energy  :  -124.1447348 Eh     change       -0.4007310E-04 Eh
 * total energy  :  -124.1447615 Eh     change       -0.2673652E-04 Eh
 * total energy  :  -124.1447763 Eh     change       -0.1481310E-04 Eh
 * total energy  :  -124.1447845 Eh     change       -0.8235382E-05 Eh
 * total energy  :  -124.1447804 Eh     change        0.4100638E-05 Eh
 * total energy  :  -124.1447863 Eh     change       -0.5819199E-05 Eh
 * total energy  :  -124.1447884 Eh     change       -0.2129600E-05 Eh
   *** GEOMETRY OPTIMIZATION CONVERGED AFTER 85 ITERATIONS ***

 final structure:
================
78
 xtb: 6.3.3 (4ae9cef)
C         1.15706653061567    2.45995175911787    0.75204266839594
C         1.89003545108483    3.43735105091116    0.14179780602291
C         2.82506295807995    3.11936921659460   -0.86438811989530
C         3.61828394469686    4.10122648360784   -1.49220922406254
C         4.52050377547454    3.75473206219362   -2.45821994603338
C         4.66627436715886    2.41329968714866   -2.84529510011665
C         3.91048944698498    1.43878951234076   -2.25765641416049
C         2.97660689732248    1.76315945265596   -1.25250463973839
C         2.19827852895149    0.77999127356924   -0.61306288285276
C         1.31638647727235    1.11194149013212    0.38238435446404
C         0.46108331859253    0.05626433738382    1.03839192065509
C        -0.70862340918716   -0.32967672362532    0.08846337995850
C        -2.04052427626216    0.05516470084435    0.69581918464446
C        -2.50249720058222    1.33409212097296    0.51140783279770
C        -3.71363129129844    1.76145322167165    1.08983865168159
C        -4.20590253763500    3.07227191905195    0.91618879154566
C        -5.38693171512534    3.45355996079960    1.48750872552900
C        -6.12994695526182    2.54373237810388    2.25716302630488
C        -5.67944700434569    1.26719055199090    2.44367319072023
C        -4.46376796179102    0.84172734267896    1.86882199014006
C        -3.96544273061972   -0.46634984447095    2.03947796918779
C        -2.78226131203349   -0.85227632580891    1.47525488371643
N        -0.51127870310645   -1.73765006015618   -0.16798213869796
C        -1.06305779311943   -2.48923033193722   -1.16414753813848
C        -2.19293653286621   -1.82756166612795   -1.93480377130617
C        -3.12181187014139   -2.88051444411598   -2.47281845176695
C        -3.13146482149129   -3.22013181218265   -3.81696680087992
C        -3.97926731762134   -4.20993767541963   -4.28367832200064
C        -4.82109223338232   -4.87214619181841   -3.40799943388136
C        -4.81089861537868   -4.54251198478783   -2.06280135892267
C        -3.96599710082819   -3.55225257729542   -1.59754207568814
O        -0.64075540986775   -3.59897518883734   -1.39832652607608
C         0.55217273622931   -2.31391386247975    0.60947639903418
C        -0.00900326193888   -3.39207687544771    1.59523589503906
O         0.90237157192956   -4.09725448761282    2.22380665623102
O        -1.18673808474463   -3.55469669045939    1.73680281444305
N         1.17513923272095   -1.18565506756837    1.28125654154980
C         2.34684564399935   -1.34154775073238    1.92624310954262
C         2.95966506433395   -0.14774432866217    2.61622751321511
C         4.03537799423210    0.52884826370626    1.79568324580435
C         4.23168121163445    1.89789883085223    1.91666820822082
C         5.23092495506136    2.52994318045418    1.19883571675096
C         6.04596782492712    1.80018961289917    0.35210416149686
C         5.86476875813418    0.43288137972218    0.23780184937971
C         4.86985068863839   -0.20118271694714    0.96003525101412
O         2.88418726683810   -2.44613371826600    1.97358100775936
H         0.44548177504646    2.71093072464602    1.52624661611643
H         1.76769837041924    4.47139737341030    0.43003329490886
H         3.50134767218187    5.13278156346308   -1.19233647790617
H         5.12846587816279    4.51099750786306   -2.93249394038874
H         5.38368534342150    2.15898759953477   -3.61137100612857
H         4.02070725970668    0.40451332855694   -2.54893195953414
H         2.31810646262457   -0.25061014993266   -0.91660712859623
H         0.05087554207399    0.43687445388924    1.98380813996474
H        -0.59135872774709    0.22411175546633   -0.85519162503745
H        -1.93621052575820    2.03542655669945   -0.08749033236906
H        -3.63044543617393    3.76779917362134    0.32167301210045
H        -5.75923385843504    4.45826774113005    1.35094941276724
H        -7.06172456816675    2.86355562556020    2.69986040901816
H        -6.24719549582028    0.56299019025800    3.03458433961585
H        -4.53611836499319   -1.16767696138772    2.63017101062671
H        -2.41489632595662   -1.85738842618445    1.60988089822021
H        -2.73813608148198   -1.14459443528628   -1.28266057593562
H        -1.74910331933439   -1.25385907738319   -2.75344364273408
H        -2.47017108066603   -2.71107951932781   -4.50405097992913
H        -3.97849596589859   -4.46702602840318   -5.33306710227586
H        -5.48036494909812   -5.64678204186119   -3.77146540005108
H        -5.46069676134594   -5.06207254155797   -1.37400811300969
H        -3.95011198965027   -3.30132792659274   -0.54673638017123
H         1.27340059383457   -2.83289170944361   -0.04783415878820
H         1.81874549861328   -3.72875055684361    2.08918678310167
H         2.19856973494607    0.57784555253124    2.90086268804615
H         3.42917885433728   -0.53655548236428    3.52628532842790
H         3.59953262847722    2.47367545172909    2.57713235229235
H         5.37209282131747    3.59555045668174    1.30117452847330
H         6.82125420656859    2.29465825547131   -0.21339759217020
H         6.50430992466804   -0.14479343174821   -0.41279980568602
H         4.74505937785565   -1.27056248680673    0.88044640600585

          :  Hamiltonian                  GFN2-xTB          :
         :: total energy            -124.144788387690 Eh    ::
         :: gradient norm              0.000386570308 Eh/a0 ::
         :: HOMO-LUMO gap              2.851193717494 eV    ::
         :: SCC energy              -126.175263389876 Eh    ::
         :: -> dispersion             -0.114959678940 Eh    ::
         :: repulsion energy           2.027577422421 Eh    ::

    * Orbital Energies and Occupations

         #    Occupation            Energy/Eh            Energy/eV
      -------------------------------------------------------------
         1        2.0000           -0.7427703             -20.2118
       ...           ...                  ...                  ...
       101        2.0000           -0.4200649             -11.4305
       102        2.0000           -0.4179177             -11.3721
       103        2.0000           -0.4152604             -11.2998
       104        2.0000           -0.4139540             -11.2643
       105        2.0000           -0.4126054             -11.2276
       106        2.0000           -0.4096758             -11.1478
       107        2.0000           -0.4088889             -11.1264
       108        2.0000           -0.4033362             -10.9753
       109        2.0000           -0.3979777             -10.8295
       110        2.0000           -0.3935187             -10.7082
       111        2.0000           -0.3912759             -10.6472
       112        2.0000           -0.3888845             -10.5821
       113        2.0000           -0.3852482             -10.4831 (HOMO)
       114                         -0.2804688              -7.6319 (LUMO)
       115                         -0.2710741              -7.3763
       116                         -0.2502345              -6.8092
       117                         -0.2460754              -6.6961
       118                         -0.2397656              -6.5244
       119                         -0.2385544              -6.4914
       120                         -0.2333083              -6.3486
       121                         -0.2327328              -6.3330
       122                         -0.2163989              -5.8885
       123                         -0.2124811              -5.7819
       124                         -0.2092256              -5.6933
       ...                                ...                  ...
       216                          0.6877235              18.7139
      -------------------------------------------------------------
                  HL-Gap            0.1047794 Eh            2.8512 eV

     #   Z          covCN         q      C6AA      Î±(0)
     1   6 C        2.919    -0.039    28.960     8.825
     2   6 C        2.918    -0.032    28.809     8.802
     3   6 C        2.988     0.014    27.692     8.632
     4   6 C        2.918    -0.033    28.826     8.804
     5   6 C        2.916    -0.027    28.678     8.782
     6   6 C        2.916    -0.027    28.666     8.780
     7   6 C        2.919    -0.032    28.803     8.801
     8   6 C        2.988     0.015    27.666     8.628
     9   6 C        2.923    -0.038    28.951     8.824
    10   6 C        2.970    -0.005    28.155     8.704
    11   6 C        3.815     0.043    19.849     6.341
    12   6 C        3.814     0.042    19.856     6.342
    13   6 C        2.968    -0.007    28.186     8.708
    14   6 C        2.923    -0.048    29.185     8.859
    15   6 C        2.987     0.013    27.716     8.636
    16   6 C        2.918    -0.036    28.886     8.814
    17   6 C        2.916    -0.028    28.712     8.787
    18   6 C        2.916    -0.029    28.714     8.787
    19   6 C        2.918    -0.033    28.830     8.805
    20   6 C        2.987     0.013    27.723     8.637
    21   6 C        2.918    -0.032    28.801     8.800
    22   6 C        2.916    -0.044    29.082     8.843
    23   7 N        2.757    -0.117    23.553     7.208
    24   6 C        2.765     0.279    22.280     7.730
    25   6 C        3.811    -0.087    22.158     6.700
    26   6 C        2.975     0.024    27.453     8.595
    27   6 C        2.924    -0.033    28.812     8.803
    28   6 C        2.920    -0.029    28.722     8.788
    29   6 C        2.920    -0.031    28.776     8.797
    30   6 C        2.920    -0.027    28.672     8.781
    31   6 C        2.925    -0.031    28.782     8.798
    32   8 O        0.859    -0.423    22.142     6.309
    33   6 C        3.765     0.086    19.190     6.244
    34   6 C        2.684     0.358    20.926     7.486
    35   8 O        1.655    -0.364    20.157     6.061
    36   8 O        0.856    -0.365    20.987     6.142
    37   7 N        2.753    -0.110    23.396     7.184
    38   6 C        2.759     0.273    22.393     7.749
    39   6 C        3.810    -0.085    22.112     6.694
    40   6 C        2.970     0.017    27.625     8.621
    41   6 C        2.925    -0.038    28.947     8.823
    42   6 C        2.920    -0.028    28.704     8.786
    43   6 C        2.920    -0.031    28.771     8.796
    44   6 C        2.920    -0.028    28.699     8.785
    45   6 C        2.924    -0.037    28.927     8.820
    46   8 O        0.860    -0.464    22.995     6.429
    47   1 H        0.926     0.032     2.564     2.504
    48   1 H        0.926     0.040     2.442     2.444
    49   1 H        0.926     0.036     2.499     2.472
    50   1 H        0.926     0.037     2.490     2.467
    51   1 H        0.926     0.038     2.480     2.463
    52   1 H        0.926     0.037     2.490     2.468
    53   1 H        0.926     0.033     2.545     2.495
    54   1 H        0.923     0.049     2.330     2.387
    55   1 H        0.923     0.046     2.368     2.407
    56   1 H        0.925     0.026     2.646     2.544
    57   1 H        0.926     0.031     2.571     2.507
    58   1 H        0.926     0.033     2.546     2.495
    59   1 H        0.926     0.034     2.532     2.488
    60   1 H        0.926     0.037     2.495     2.470
    61   1 H        0.926     0.044     2.401     2.423
    62   1 H        0.926     0.074     2.042     2.235
    63   1 H        0.924     0.053     2.278     2.360
    64   1 H        0.924     0.055     2.255     2.349
    65   1 H        0.926     0.029     2.605     2.524
    66   1 H        0.926     0.031     2.577     2.510
    67   1 H        0.926     0.031     2.578     2.511
    68   1 H        0.926     0.034     2.536     2.490
    69   1 H        0.926     0.036     2.497     2.471
    70   1 H        0.922     0.074     2.042     2.235
    71   1 H        0.800     0.366     0.553     1.169
    72   1 H        0.925     0.049     2.335     2.390
    73   1 H        0.924     0.080     1.978     2.200
    74   1 H        0.926     0.028     2.618     2.530
    75   1 H        0.926     0.032     2.555     2.500
    76   1 H        0.926     0.032     2.552     2.498
    77   1 H        0.926     0.037     2.493     2.469
    78   1 H        0.926     0.048     2.342     2.393

Wiberg/Mayer (AO) data.
largest (>0.10) Wiberg bond orders for each atom

     #   Z sym  total        # sym  WBO       # sym  WBO       # sym  WBO
 ---------------------------------------------------------------------------
     1   6 C    3.990 --     2 C    1.558    10 C    1.298    47 H    0.968
     2   6 C    3.991 --     1 C    1.558     3 C    1.278    48 H    0.967
                             9 C    0.115
     3   6 C    3.989 --     4 C    1.280     2 C    1.278     8 C    1.249
     4   6 C    3.992 --     5 C    1.557     3 C    1.280    49 H    0.968
                             7 C    0.118
     5   6 C    3.989 --     4 C    1.557     6 C    1.320    50 H    0.971
     6   6 C    3.992 --     7 C    1.558     5 C    1.320    51 H    0.971
     7   6 C    3.990 --     6 C    1.558     8 C    1.277    52 H    0.968
                             4 C    0.118
     8   6 C    3.990 --     9 C    1.285     7 C    1.277     3 C    1.249
     9   6 C    3.991 --    10 C    1.519     8 C    1.285    53 H    0.966
                             2 C    0.115
    10   6 C    3.984 --     9 C    1.519     1 C    1.298    11 C    0.987
    11   6 C    3.962 --    10 C    0.987    37 N    0.965    54 H    0.953
                            12 C    0.945
    12   6 C    3.965 --    13 C    0.981    23 N    0.978    55 H    0.953
                            11 C    0.945
    13   6 C    3.984 --    14 C    1.518    22 C    1.299    12 C    0.981
    14   6 C    3.989 --    13 C    1.518    15 C    1.286    56 H    0.966
                            21 C    0.116
    15   6 C    3.990 --    14 C    1.286    16 C    1.276    20 C    1.249
    16   6 C    3.990 --    17 C    1.560    15 C    1.276    57 H    0.968
                            19 C    0.118
    17   6 C    3.992 --    16 C    1.560    18 C    1.319    58 H    0.971
    18   6 C    3.990 --    19 C    1.559    17 C    1.319    59 H    0.971
    19   6 C    3.992 --    18 C    1.559    20 C    1.279    60 H    0.968
                            16 C    0.118
    20   6 C    3.990 --    21 C    1.281    19 C    1.279    15 C    1.249
    21   6 C    3.991 --    22 C    1.557    20 C    1.281    61 H    0.967
                            14 C    0.116
    22   6 C    3.986 --    21 C    1.557    13 C    1.299    62 H    0.953
    23   7 N    3.450 --    24 C    1.188    33 C    0.995    12 C    0.978
                            32 O    0.180
    24   6 C    3.943 --    32 O    1.710    23 N    1.188    25 C    0.958
    25   6 C    3.995 --    26 C    1.003    24 C    0.958    63 H    0.956
                            64 H    0.951
    26   6 C    3.987 --    27 C    1.421    31 C    1.409    25 C    1.003
                            29 C    0.110
    27   6 C    3.991 --    28 C    1.439    26 C    1.421    65 H    0.969
                            30 C    0.110
    28   6 C    3.992 --    29 C    1.444    27 C    1.439    66 H    0.971
                            31 C    0.113
    29   6 C    3.992 --    28 C    1.444    30 C    1.434    67 H    0.972
                            26 C    0.110
    30   6 C    3.992 --    31 C    1.451    29 C    1.434    68 H    0.971
                            27 C    0.110
    31   6 C    3.992 --    30 C    1.451    26 C    1.409    69 H    0.969
                            28 C    0.113
    32   8 O    2.022 --    24 C    1.710    23 N    0.180
    33   6 C    3.953 --    23 N    0.995    37 N    0.968    70 H    0.936
                            34 C    0.887
    34   6 C    3.930 --    36 O    1.773    35 O    1.211    33 C    0.887
    35   8 O    2.244 --    34 C    1.211    71 H    0.768    36 O    0.181
    36   8 O    2.086 --    34 C    1.773    35 O    0.181
    37   7 N    3.498 --    38 C    1.271    33 C    0.968    11 C    0.965
                            46 O    0.182
    38   6 C    3.943 --    46 O    1.597    37 N    1.271    39 C    0.980
    39   6 C    3.993 --    40 C    0.983    38 C    0.980    72 H    0.966
                            73 H    0.946
    40   6 C    3.985 --    45 C    1.413    41 C    1.412    39 C    0.983
                            43 C    0.109
    41   6 C    3.991 --    42 C    1.442    40 C    1.412    74 H    0.969
                            44 C    0.111
    42   6 C    3.991 --    41 C    1.442    43 C    1.439    75 H    0.971
                            45 C    0.111
    43   6 C    3.992 --    42 C    1.439    44 C    1.438    76 H    0.971
                            40 C    0.109
    44   6 C    3.992 --    45 C    1.444    43 C    1.438    77 H    0.971
                            41 C    0.111
    45   6 C    3.991 --    44 C    1.444    40 C    1.413    78 H    0.967
                            42 C    0.111
    46   8 O    2.002 --    38 C    1.597    37 N    0.182
    47   1 H    0.999 --     1 C    0.968
    48   1 H    0.997 --     2 C    0.967
    49   1 H    0.998 --     4 C    0.968
    50   1 H    0.998 --     5 C    0.971
    51   1 H    0.998 --     6 C    0.971
    52   1 H    0.998 --     7 C    0.968
    53   1 H    0.998 --     9 C    0.966
    54   1 H    0.997 --    11 C    0.953
    55   1 H    0.997 --    12 C    0.953
    56   1 H    0.999 --    14 C    0.966
    57   1 H    0.999 --    16 C    0.968
    58   1 H    0.998 --    17 C    0.971
    59   1 H    0.998 --    18 C    0.971
    60   1 H    0.998 --    19 C    0.968
    61   1 H    0.997 --    21 C    0.967
    62   1 H    0.994 --    22 C    0.953
    63   1 H    0.997 --    25 C    0.956
    64   1 H    0.997 --    25 C    0.951
    65   1 H    0.999 --    27 C    0.969
    66   1 H    0.999 --    28 C    0.971
    67   1 H    0.999 --    29 C    0.972
    68   1 H    0.999 --    30 C    0.971
    69   1 H    0.999 --    31 C    0.969
    70   1 H    0.994 --    33 C    0.936
    71   1 H    0.866 --    35 O    0.768
    72   1 H    0.997 --    39 C    0.966
    73   1 H    0.993 --    39 C    0.946
    74   1 H    0.999 --    41 C    0.969
    75   1 H    0.998 --    42 C    0.971
    76   1 H    0.998 --    43 C    0.971
    77   1 H    0.998 --    44 C    0.971
    78   1 H    0.998 --    45 C    0.967
 ---------------------------------------------------------------------------

molecular dipole:
                 x           y           z       tot (Debye)
 q only:        0.340       3.343      -0.180
   full:        0.610       3.808      -0.230       9.821

           -------------------------------------------------
          | TOTAL ENERGY             -124.144788387690 Eh   |
          | GRADIENT NORM               0.000386570308 Eh/Î± |
          | HOMO-LUMO GAP               2.851193717494 eV   |
           -------------------------------------------------

 * finished run on 2022/03/17 at 02:01:33.962
