   * xtb version 6.3.3 (4ae9cef) compiled by 'conda@95abc7406d43' on 2020-10-14
          program call               : xtb acid_387.xyz --opt --chrg 0 --uhf 0 --gfn 2
          number of atoms            :                    72
          number of electrons        :                   238
          charge                     :                     0
          spin                       :                   0.0

   ID    Z sym.   atoms
    1    6 C      1, 2, 6-15, 19-22, 24-31, 33, 34, 38-45
    2    9 F      3-5, 16-18
    3    7 N      23, 37
    4    8 O      32, 35, 36, 46
    5    1 H      47-72

          :  Hamiltonian                  GFN2-xTB          :
 * total energy  :  -136.6176171 Eh     change       -0.1780620E-08 Eh
 * total energy  :  -136.6359001 Eh     change       -0.1828294E-01 Eh
 * total energy  :  -136.6411923 Eh     change       -0.5292264E-02 Eh
 * total energy  :  -136.6429487 Eh     change       -0.1756411E-02 Eh
 * total energy  :  -136.6442409 Eh     change       -0.1292143E-02 Eh
 * total energy  :  -136.6449895 Eh     change       -0.7485970E-03 Eh
 * total energy  :  -136.6456237 Eh     change       -0.6341891E-03 Eh
 * total energy  :  -136.6462548 Eh     change       -0.6310998E-03 Eh
 * total energy  :  -136.6468411 Eh     change       -0.5862901E-03 Eh
 * total energy  :  -136.6473015 Eh     change       -0.4604187E-03 Eh
 * total energy  :  -136.6512266 Eh     change       -0.4988101E-04 Eh
 * total energy  :  -136.6512706 Eh     change       -0.4409766E-04 Eh
 * total energy  :  -136.6513201 Eh     change       -0.4942404E-04 Eh
 * total energy  :  -136.6513414 Eh     change       -0.2133688E-04 Eh
 * total energy  :  -136.6513659 Eh     change       -0.2451481E-04 Eh
 * total energy  :  -136.6513800 Eh     change       -0.1411704E-04 Eh
 * total energy  :  -136.6513864 Eh     change       -0.6316270E-05 Eh
 * total energy  :  -136.6513959 Eh     change       -0.9547234E-05 Eh
 * total energy  :  -136.6514001 Eh     change       -0.4172917E-05 Eh
   *** GEOMETRY OPTIMIZATION CONVERGED AFTER 44 ITERATIONS ***

 final structure:
================
72
 xtb: 6.3.3 (4ae9cef)
C         2.53100866699302   -2.06796670211514   -0.03514336361444
C         2.19814417207389   -2.80172434064980   -1.30820253281812
F         2.20198563448951   -2.03250107390516   -2.40545104288039
F         3.05367416935028   -3.80246038209731   -1.56184387698961
F         0.97657365753090   -3.37356634145215   -1.25967866002738
C         3.65753764606591   -2.47066707953884    0.67492003414410
C         3.97791803695324   -1.87511683813898    1.87920016962505
C         3.15812955885521   -0.88509380815227    2.39259507747904
C         2.04693113408759   -0.47618297868465    1.68256027558615
C         1.72379003565465   -1.03783242751539    0.45041369381223
C         0.50841315512493   -0.51746851892757   -0.27474035874762
C        -0.79159003214006   -0.95927802192754    0.44544549650622
C        -1.37202743043313   -2.29312240936446    0.03752350220933
C        -2.05698334382381   -2.59107349042270   -1.14603226189790
C        -2.26669597211300   -1.60663406080754   -2.26723109559601
F        -2.95253685177822   -2.13107808686327   -3.29519715885057
F        -1.10779798096156   -1.17935442047956   -2.79616908618545
F        -2.95621422526211   -0.49959399040833   -1.92871273551070
C        -2.55504235478848   -3.87367832041032   -1.35856612412681
C        -2.37419439457397   -4.87518519093557   -0.42673690982315
C        -1.67858548690664   -4.59992451441686    0.73523016506165
C        -1.19432039822962   -3.32696506356116    0.95467594845132
N        -1.68563626522562    0.18361092988058    0.30225867366666
C        -2.93920934669189    0.11735562188083    0.83414690342618
C        -3.72590953854242    1.38289631670369    0.83215282439437
C        -4.85091786465835    1.48579450696109    0.02456957525633
C        -5.61070889904974    2.63982643392300    0.05998160582809
C        -5.26529141563972    3.67849756520369    0.90728913948588
C        -4.15878164910118    3.57777049348086    1.73911599868410
C        -3.77666745079013    4.68961729938249    2.66777473441674
C        -3.39364186535290    2.41899787794582    1.69266712139343
O        -3.36919766810397   -0.92931059369823    1.27516105329225
C        -0.97101003255539    1.34905337375066   -0.15666691752445
C        -1.37434693453378    1.79805368753023   -1.58313582280650
O        -2.50980294086664    2.47806589533387   -1.58419099102658
O        -0.70843111434271    1.57902652698125   -2.55295228046232
N         0.40948014116193    0.93090340309212   -0.18268992623709
C         1.37761823918963    1.87343696653104   -0.38089371738302
C         2.71881407063393    1.35107594005699   -0.76449633745388
C         3.80692217983520    1.49181873608103    0.08526290892527
C         5.05549754111040    1.00837481168851   -0.27877911268226
C         6.22183253670779    1.14619441512431    0.65142625216513
C         5.20318748119594    0.41711312583115   -1.52770137184998
C         4.13197174099986    0.32208325173020   -2.39817492389082
C         2.88291020678766    0.78162535471660   -2.02077743910139
O         1.12871383300244    3.05228347332570   -0.23263679331837
H         4.28200720800098   -3.25655166953899    0.28045462368498
H         4.85832423943906   -2.19072653157008    2.41616336128932
H         3.38732134826052   -0.42704820547064    3.34266182093773
H         1.42163423037442    0.31196115634630    2.07440592427556
H         0.50350803686515   -0.83067790599575   -1.32098799484080
H        -0.56233791428325   -1.05131092528701    1.51941853970016
H        -3.09045213744201   -4.08972645580714   -2.26958620067115
H        -2.77275260153031   -5.86000940546984   -0.61249781372538
H        -1.51997352634583   -5.36997945349691    1.47433426107387
H        -0.66456962993157   -3.11986241458083    1.87272556114626
H        -5.11187617780626    0.66765623538839   -0.62766813142363
H        -6.48198403571738    2.72908226200761   -0.57181885440425
H        -5.86726562832706    4.57562731596237    0.92908604778062
H        -3.64729237793449    4.31344160147500    3.68131007974571
H        -2.83213070041340    5.13310428174420    2.35347396251860
H        -4.53575021325899    5.46722042606245    2.67790389095269
H        -2.54336923630554    2.32107501361212    2.35465465671212
H        -1.10423541289477    2.21631277383264    0.50394388555813
H        -2.75498637778122    2.74224346394508   -2.48662441599683
H         3.67289283641197    1.97161371082261    1.04392091545001
H         5.90506543006084    1.03891271063695    1.68646695211176
H         6.98253612220015    0.40061970362937    0.43351276980730
H         6.67212095594479    2.13252919438207    0.53843556231358
H         6.17088495896532    0.03855389646858   -1.82449309364651
H         4.26429058179381   -0.12260495739825   -3.37240888734800
H         2.04287764030568    0.71084782562477   -2.69435773597647

          :  Hamiltonian                  GFN2-xTB          :
         :: total energy            -136.651400077432 Eh    ::
         :: gradient norm              0.000558268323 Eh/a0 ::
         :: HOMO-LUMO gap              3.074273821229 eV    ::
         :: SCC energy              -138.363204246841 Eh    ::
         :: -> dispersion             -0.108660738151 Eh    ::
         :: repulsion energy           1.707567184369 Eh    ::

    * Orbital Energies and Occupations

         #    Occupation            Energy/Eh            Energy/eV
      -------------------------------------------------------------
         1        2.0000           -0.8855604             -24.0973
       ...           ...                  ...                  ...
       107        2.0000           -0.4423812             -12.0378
       108        2.0000           -0.4351737             -11.8417
       109        2.0000           -0.4302271             -11.7071
       110        2.0000           -0.4294118             -11.6849
       111        2.0000           -0.4286323             -11.6637
       112        2.0000           -0.4159413             -11.3183
       113        2.0000           -0.4096322             -11.1467
       114        2.0000           -0.4094733             -11.1423
       115        2.0000           -0.4023525             -10.9486
       116        2.0000           -0.4012632             -10.9189
       117        2.0000           -0.3994749             -10.8703
       118        2.0000           -0.3970019             -10.8030
       119        2.0000           -0.3922236             -10.6729 (HOMO)
       120                         -0.2792461              -7.5987 (LUMO)
       121                         -0.2705274              -7.3614
       122                         -0.2607950              -7.0966
       123                         -0.2534242              -6.8960
       124                         -0.2502699              -6.8102
       125                         -0.2428702              -6.6088
       126                         -0.2399537              -6.5295
       127                         -0.2277156              -6.1965
       128                         -0.2260131              -6.1501
       129                         -0.2106103              -5.7310
       130                         -0.2079844              -5.6595
       ...                                ...                  ...
       210                          0.6624256              18.0255
      -------------------------------------------------------------
                  HL-Gap            0.1129775 Eh            3.0743 eV

     #   Z          covCN         q      C6AA      Î±(0)
     1   6 C        2.975    -0.032    28.803     8.803
     2   6 C        3.335     0.484    17.319     6.592
     3   9 F        0.791    -0.200    11.236     3.960
     4   9 F        0.792    -0.201    11.249     3.962
     5   9 F        0.791    -0.217    11.415     3.991
     6   6 C        2.923    -0.023    28.581     8.767
     7   6 C        2.920    -0.023    28.585     8.767
     8   6 C        2.918    -0.019    28.483     8.752
     9   6 C        2.928    -0.028    28.704     8.786
    10   6 C        2.971     0.011    27.763     8.643
    11   6 C        3.818     0.037    19.938     6.355
    12   6 C        3.837     0.050    19.704     6.315
    13   6 C        2.964     0.026    27.414     8.588
    14   6 C        2.974    -0.022    28.543     8.764
    15   6 C        3.336     0.489    17.242     6.575
    16   9 F        0.793    -0.205    11.284     3.968
    17   9 F        0.792    -0.205    11.289     3.969
    18   9 F        0.791    -0.217    11.413     3.991
    19   6 C        2.927    -0.020    28.505     8.756
    20   6 C        2.920    -0.020    28.505     8.755
    21   6 C        2.918    -0.015    28.387     8.737
    22   6 C        2.933    -0.022    28.552     8.763
    23   7 N        2.759    -0.121    23.631     7.220
    24   6 C        2.765     0.275    22.342     7.741
    25   6 C        2.975    -0.012    28.321     8.729
    26   6 C        2.924    -0.023    28.587     8.768
    27   6 C        2.919    -0.027    28.674     8.781
    28   6 C        2.925    -0.037    28.914     8.818
    29   6 C        2.966     0.024    27.473     8.597
    30   6 C        3.758    -0.112    22.698     6.792
    31   6 C        2.929    -0.039    28.965     8.826
    32   8 O        0.860    -0.425    22.181     6.314
    33   6 C        3.767     0.092    19.089     6.227
    34   6 C        2.688     0.360    20.899     7.482
    35   8 O        1.659    -0.356    20.017     6.040
    36   8 O        0.856    -0.373    21.156     6.167
    37   7 N        2.773    -0.118    23.573     7.211
    38   6 C        2.767     0.275    22.346     7.742
    39   6 C        2.976    -0.018    28.448     8.749
    40   6 C        2.928    -0.037    28.933     8.821
    41   6 C        2.966     0.017    27.621     8.621
    42   6 C        3.758    -0.112    22.689     6.791
    43   6 C        2.925    -0.040    28.996     8.831
    44   6 C        2.919    -0.028    28.700     8.785
    45   6 C        2.924    -0.034    28.845     8.808
    46   8 O        0.859    -0.426    22.213     6.319
    47   1 H        0.926     0.070     2.087     2.259
    48   1 H        0.926     0.060     2.200     2.319
    49   1 H        0.926     0.058     2.224     2.332
    50   1 H        0.926     0.057     2.237     2.339
    51   1 H        0.924     0.076     2.023     2.224
    52   1 H        0.923     0.057     2.238     2.339
    53   1 H        0.926     0.070     2.085     2.258
    54   1 H        0.926     0.059     2.216     2.328
    55   1 H        0.926     0.057     2.237     2.339
    56   1 H        0.926     0.047     2.357     2.401
    57   1 H        0.926     0.047     2.363     2.404
    58   1 H        0.926     0.040     2.451     2.448
    59   1 H        0.926     0.038     2.479     2.462
    60   1 H        0.925     0.049     2.330     2.387
    61   1 H        0.925     0.053     2.284     2.363
    62   1 H        0.925     0.046     2.370     2.408
    63   1 H        0.925     0.028     2.610     2.526
    64   1 H        0.923     0.089     1.893     2.152
    65   1 H        0.804     0.348     0.594     1.210
    66   1 H        0.926     0.036     2.496     2.471
    67   1 H        0.925     0.042     2.417     2.431
    68   1 H        0.925     0.045     2.382     2.414
    69   1 H        0.925     0.056     2.245     2.343
    70   1 H        0.926     0.037     2.484     2.465
    71   1 H        0.926     0.047     2.355     2.400
    72   1 H        0.926     0.057     2.231     2.336

Wiberg/Mayer (AO) data.
largest (>0.10) Wiberg bond orders for each atom

     #   Z sym  total        # sym  WBO       # sym  WBO       # sym  WBO
 ---------------------------------------------------------------------------
     1   6 C    3.970 --     6 C    1.410    10 C    1.389     2 C    0.949
                             8 C    0.103
     2   6 C    3.824 --     4 F    0.953     3 F    0.950     1 C    0.949
                             5 F    0.934
     3   9 F    1.081 --     2 C    0.950
     4   9 F    1.076 --     2 C    0.953
     5   9 F    1.062 --     2 C    0.934
     6   6 C    3.987 --     7 C    1.446     1 C    1.410    47 H    0.965
                             9 C    0.109
     7   6 C    3.988 --     6 C    1.446     8 C    1.429    48 H    0.968
                            10 C    0.108
     8   6 C    3.990 --     9 C    1.452     7 C    1.429    49 H    0.968
                             1 C    0.103
     9   6 C    3.989 --     8 C    1.452    10 C    1.403    50 H    0.965
                             6 C    0.109
    10   6 C    3.987 --     9 C    1.403     1 C    1.389    11 C    0.997
                             7 C    0.108
    11   6 C    3.970 --    10 C    0.997    37 N    0.968    51 H    0.949
                            12 C    0.945
    12   6 C    3.969 --    13 C    0.996    23 N    0.960    52 H    0.949
                            11 C    0.945
    13   6 C    3.986 --    22 C    1.404    14 C    1.386    12 C    0.996
                            20 C    0.109
    14   6 C    3.970 --    19 C    1.411    13 C    1.386    15 C    0.951
                            21 C    0.105
    15   6 C    3.820 --    14 C    0.951    16 F    0.951    17 F    0.944
                            18 F    0.936
    16   9 F    1.073 --    15 C    0.951
    17   9 F    1.077 --    15 C    0.944
    18   9 F    1.065 --    15 C    0.936
    19   6 C    3.987 --    20 C    1.445    14 C    1.411    53 H    0.965
                            22 C    0.109
    20   6 C    3.989 --    19 C    1.445    21 C    1.431    54 H    0.969
                            13 C    0.109
    21   6 C    3.990 --    22 C    1.452    20 C    1.431    55 H    0.969
                            14 C    0.105
    22   6 C    3.989 --    21 C    1.452    13 C    1.404    56 H    0.965
                            19 C    0.109
    23   7 N    3.448 --    24 C    1.195    33 C    0.982    12 C    0.960
                            32 O    0.185
    24   6 C    3.939 --    32 O    1.691    23 N    1.195    25 C    0.967
    25   6 C    3.986 --    31 C    1.414    26 C    1.397    24 C    0.967
                            28 C    0.107
    26   6 C    3.990 --    27 C    1.444    25 C    1.397    57 H    0.969
                            29 C    0.108
    27   6 C    3.991 --    26 C    1.444    28 C    1.440    58 H    0.970
                            31 C    0.109
    28   6 C    3.991 --    27 C    1.440    29 C    1.413    59 H    0.969
                            25 C    0.107
    29   6 C    3.988 --    28 C    1.413    31 C    1.407    30 C    1.026
                            26 C    0.108
    30   6 C    3.995 --    29 C    1.026    62 H    0.985    60 H    0.974
                            61 H    0.969
    31   6 C    3.990 --    25 C    1.414    29 C    1.407    63 H    0.967
                            27 C    0.109
    32   8 O    2.020 --    24 C    1.691    23 N    0.185
    33   6 C    3.964 --    37 N    0.988    23 N    0.982    64 H    0.935
                            34 C    0.901
    34   6 C    3.921 --    36 O    1.792    35 O    1.166    33 C    0.901
    35   8 O    2.229 --    34 C    1.166    65 H    0.852    36 O    0.185
    36   8 O    2.073 --    34 C    1.792    35 O    0.185
    37   7 N    3.442 --    38 C    1.186    33 C    0.988    11 C    0.968
                            46 O    0.182
    38   6 C    3.939 --    46 O    1.695    37 N    1.186    39 C    0.969
    39   6 C    3.987 --    40 C    1.408    45 C    1.399    38 C    0.969
                            43 C    0.106
    40   6 C    3.990 --    41 C    1.415    39 C    1.408    66 H    0.968
                            44 C    0.109
    41   6 C    3.989 --    40 C    1.415    43 C    1.407    42 C    1.025
                            45 C    0.107
    42   6 C    3.995 --    41 C    1.025    68 H    0.983    67 H    0.981
                            69 H    0.966
    43   6 C    3.991 --    44 C    1.445    41 C    1.407    70 H    0.969
                            39 C    0.106
    44   6 C    3.991 --    43 C    1.445    45 C    1.438    71 H    0.969
                            40 C    0.109
    45   6 C    3.989 --    44 C    1.438    39 C    1.399    72 H    0.967
                            41 C    0.107
    46   8 O    2.013 --    38 C    1.695    37 N    0.182
    47   1 H    0.995 --     6 C    0.965
    48   1 H    0.995 --     7 C    0.968
    49   1 H    0.996 --     8 C    0.968
    50   1 H    0.996 --     9 C    0.965
    51   1 H    0.994 --    11 C    0.949
    52   1 H    0.996 --    12 C    0.949
    53   1 H    0.995 --    19 C    0.965
    54   1 H    0.996 --    20 C    0.969
    55   1 H    0.996 --    21 C    0.969
    56   1 H    0.997 --    22 C    0.965
    57   1 H    0.997 --    26 C    0.969
    58   1 H    0.998 --    27 C    0.970
    59   1 H    0.998 --    28 C    0.969
    60   1 H    0.997 --    30 C    0.974
    61   1 H    0.997 --    30 C    0.969
    62   1 H    0.997 --    30 C    0.985
    63   1 H    0.999 --    31 C    0.967
    64   1 H    0.992 --    33 C    0.935
    65   1 H    0.879 --    35 O    0.852
    66   1 H    0.999 --    40 C    0.968
    67   1 H    0.998 --    42 C    0.981
    68   1 H    0.998 --    42 C    0.983
    69   1 H    0.997 --    42 C    0.966
    70   1 H    0.998 --    43 C    0.969
    71   1 H    0.997 --    44 C    0.969
    72   1 H    0.996 --    45 C    0.967
 ---------------------------------------------------------------------------

molecular dipole:
                 x           y           z       tot (Debye)
 q only:        1.034      -0.497       2.131
   full:        1.015      -0.326       1.965       5.682

           -------------------------------------------------
          | TOTAL ENERGY             -136.651400077432 Eh   |
          | GRADIENT NORM               0.000558268323 Eh/Î± |
          | HOMO-LUMO GAP               3.074273821229 eV   |
           -------------------------------------------------

 * finished run on 2022/03/17 at 00:35:17.288
