   * xtb version 6.3.3 (4ae9cef) compiled by 'conda@95abc7406d43' on 2020-10-14
          program call               : xtb acid_416.xyz --opt --chrg 0 --uhf 0 --gfn 2
          number of atoms            :                    72
          number of electrons        :                   218
          charge                     :                     0
          spin                       :                   0.0

   ID    Z sym.   atoms
    1    6 C      1-22, 24-26, 28-30, 32, 33, 37-39, 41-43
    2    7 N      23, 36
    3    8 O      27, 31, 34, 35, 40, 44
    4    1 H      45-72

          :  Hamiltonian                  GFN2-xTB          :
 * total energy  :  -121.6192705 Eh     change       -0.7459235E-08 Eh
 * total energy  :  -121.6367628 Eh     change       -0.1749233E-01 Eh
 * total energy  :  -121.6431705 Eh     change       -0.6407696E-02 Eh
 * total energy  :  -121.6461404 Eh     change       -0.2969821E-02 Eh
 * total energy  :  -121.6487083 Eh     change       -0.2567927E-02 Eh
 * total energy  :  -121.6504771 Eh     change       -0.1768772E-02 Eh
 * total energy  :  -121.6520371 Eh     change       -0.1560012E-02 Eh
 * total energy  :  -121.6534049 Eh     change       -0.1367834E-02 Eh
 * total energy  :  -121.6543355 Eh     change       -0.9306203E-03 Eh
 * total energy  :  -121.6553047 Eh     change       -0.9692063E-03 Eh
 * total energy  :  -121.6625386 Eh     change       -0.2767295E-04 Eh
 * total energy  :  -121.6625643 Eh     change       -0.2574594E-04 Eh
 * total energy  :  -121.6625804 Eh     change       -0.1604216E-04 Eh
 * total energy  :  -121.6625654 Eh     change        0.1494635E-04 Eh
 * total energy  :  -121.6625933 Eh     change       -0.2788799E-04 Eh
 * total energy  :  -121.6626036 Eh     change       -0.1023136E-04 Eh
 * total energy  :  -121.6626130 Eh     change       -0.9421499E-05 Eh
 * total energy  :  -121.6626206 Eh     change       -0.7619206E-05 Eh
 * total energy  :  -121.6626247 Eh     change       -0.4054790E-05 Eh
   *** GEOMETRY OPTIMIZATION CONVERGED AFTER 44 ITERATIONS ***

 final structure:
================
72
 xtb: 6.3.3 (4ae9cef)
C        -3.95110937172285   -3.87955470129091   -0.75111986205889
C        -4.48939298413596   -2.91395564854781   -1.55202000813091
C        -3.98728722952533   -1.60671835059781   -1.49304134472990
C        -2.94813078484908   -1.30051122483973   -0.66006184839845
C        -2.34238205828187   -2.27455190482841    0.16073840422931
C        -2.88289527597284   -3.59100073621512    0.12458612895364
C        -2.35878496523515   -4.58719573390051    0.97154084793319
C        -1.34890995146720   -4.28913379329090    1.83935572332826
C        -0.80219528348739   -3.00160244427426    1.86152422636808
C        -1.25161062106375   -2.00400779117545    1.03016131985965
C        -0.53360821373300   -0.67882323124540    1.08450038158155
C         0.20575521463275   -0.25330715715847   -0.20236239447534
C         1.45554206172888   -0.99379546315806   -0.59078326115219
C         2.06975843260602   -1.88676766487492    0.24797232226707
C         3.21165741954214   -2.59643801527278   -0.14950934431618
C         3.74027912438857   -2.40818762746641   -1.39218988118215
C         3.13810525076093   -1.50794112524650   -2.29486079429013
C         1.97276398382035   -0.79527033655657   -1.90411447860763
C         1.39847979841331    0.09976632975943   -2.83406243983027
C         1.94937905774690    0.27653810134014   -4.07336253302560
C         3.10291283828699   -0.42319988488722   -4.45257828714697
C         3.68187398882780   -1.29845118370937   -3.57923380035956
N         0.33244804883329    1.18667744430041    0.03095803007472
C         1.37476224447057    2.05490834666845    0.12490399289452
C         2.73097449275560    1.56053436236245   -0.19695896189069
C         3.56662885291346    0.82396343748740    0.58785424881019
O         4.75484319131395    0.65483236671776   -0.01294453659415
C         4.70509150491267    1.29802629336035   -1.19977782801617
C         5.89954566527707    1.25484733160903   -2.08198942821644
C         3.48800910033669    1.88762704993551   -1.35727365302877
O         1.17696883666722    3.20943570219041    0.45473413779242
C        -0.96163860057948    1.59781620369740    0.52574532638807
C        -1.87264453452505    1.87231195387713   -0.68656734310996
O        -3.11610155664702    2.20771840081975   -0.35265049159563
O        -1.49006691030374    1.83415671065915   -1.82383088951787
N        -1.38850249243189    0.49168220374420    1.36484132374257
C        -1.84249275658794    0.57729186210130    2.65901847376563
C        -2.35961688515808    1.84990959051374    3.18055249316401
C        -2.39923121620575    2.08203480590550    4.53274185582110
O        -2.89667300434359    3.28987278544748    4.79885567765049
C        -3.21063293600751    3.86832320517025    3.61641246016936
C        -3.80941526864993    5.22841949986959    3.62906871412006
C        -2.89746491572837    3.03144905476889    2.58918041877150
O        -1.79226298738561   -0.40644744383958    3.37530622697661
H        -4.34138669641955   -4.88725715370460   -0.76827613474759
H        -5.30660938564849   -3.14355944345183   -2.21968773837371
H        -4.43140616659644   -0.83942191281637   -2.11072206728684
H        -2.59929154491477   -0.28510169791748   -0.60559883940462
H        -2.78234461765159   -5.58034864029690    0.93155386427872
H        -0.96076854859469   -5.03896003736127    2.51229936020003
H        -0.01599818843796   -2.79373174590623    2.57187160622358
H         0.18616156397050   -0.73468770409626    1.91369169349342
H        -0.49592054172818   -0.37442102275584   -1.03923753256324
H         1.68802141129718   -2.05868885969430    1.23978359189559
H         3.66728816720177   -3.28778322635586    0.54335656234264
H         4.62546200189638   -2.94355008166103   -1.70416506239172
H         0.52301363882110    0.67122955206476   -2.57139496997385
H         1.49481850779518    0.96680605054232   -4.76853279343801
H         3.52582908605900   -0.26598348023901   -5.43398473273279
H         4.56988855810963   -1.84822322406600   -3.85798977881647
H         3.43809592137988    0.38709984948973    1.55766481748759
H         5.68265663657491    1.76862127622506   -3.01295272943237
H         6.75079524297337    1.73218413259026   -1.59811866967985
H         6.16875414912083    0.22204291890203   -2.29686506103011
H         3.15104364945301    2.47080290261249   -2.18816261265411
H        -0.86347026504241    2.53701925001914    1.08802138098558
H        -3.65029499715793    2.38527783684789   -1.14523047082175
H        -2.08890677977954    1.46528101531796    5.35203340114818
H        -4.82057740801861    5.19631284279805    4.03414377303671
H        -3.84606947909906    5.62281707140297    2.61847021005596
H        -3.21815782191725    5.89412064207322    4.25497584895483
H        -3.07335339784621    3.22082030948900    1.55379075827806

          :  Hamiltonian                  GFN2-xTB          :
         :: total energy            -121.662624652799 Eh    ::
         :: gradient norm              0.000320690264 Eh/a0 ::
         :: HOMO-LUMO gap              3.017393319614 eV    ::
         :: SCC energy              -123.485752023937 Eh    ::
         :: -> dispersion             -0.107803277107 Eh    ::
         :: repulsion energy           1.819296335758 Eh    ::

    * Orbital Energies and Occupations

         #    Occupation            Energy/Eh            Energy/eV
      -------------------------------------------------------------
         1        2.0000           -0.7739221             -21.0595
       ...           ...                  ...                  ...
        97        2.0000           -0.4199121             -11.4264
        98        2.0000           -0.4191935             -11.4068
        99        2.0000           -0.4162391             -11.3264
       100        2.0000           -0.4093184             -11.1381
       101        2.0000           -0.4052683             -11.0279
       102        2.0000           -0.4026244             -10.9560
       103        2.0000           -0.4018747             -10.9356
       104        2.0000           -0.4009102             -10.9093
       105        2.0000           -0.3926557             -10.6847
       106        2.0000           -0.3901388             -10.6162
       107        2.0000           -0.3894182             -10.5966
       108        2.0000           -0.3793126             -10.3216
       109        2.0000           -0.3781069             -10.2888 (HOMO)
       110                         -0.2672197              -7.2714 (LUMO)
       111                         -0.2649779              -7.2104
       112                         -0.2629083              -7.1541
       113                         -0.2474322              -6.7330
       114                         -0.2350383              -6.3957
       115                         -0.2308104              -6.2807
       116                         -0.2234098              -6.0793
       117                         -0.2083998              -5.6708
       118                         -0.2042565              -5.5581
       119                         -0.1972607              -5.3677
       120                         -0.1946419              -5.2965
       ...                                ...                  ...
       204                          0.6943778              18.8950
      -------------------------------------------------------------
                  HL-Gap            0.1108872 Eh            3.0174 eV

     #   Z          covCN         q      C6AA      Î±(0)
     1   6 C        2.922    -0.033    28.830     8.805
     2   6 C        2.915    -0.030    28.747     8.792
     3   6 C        2.917    -0.030    28.738     8.791
     4   6 C        2.919    -0.035    28.876     8.812
     5   6 C        2.984     0.012    27.745     8.640
     6   6 C        2.989     0.015    27.662     8.627
     7   6 C        2.921    -0.035    28.868     8.811
     8   6 C        2.914    -0.028    28.696     8.784
     9   6 C        2.926    -0.025    28.626     8.774
    10   6 C        2.963     0.006    27.877     8.660
    11   6 C        3.845     0.047    19.755     6.322
    12   6 C        3.850     0.034    19.962     6.355
    13   6 C        2.964    -0.006    28.171     8.706
    14   6 C        2.920    -0.040    28.990     8.829
    15   6 C        2.915    -0.030    28.743     8.791
    16   6 C        2.920    -0.034    28.853     8.809
    17   6 C        2.988     0.014    27.687     8.631
    18   6 C        2.987     0.007    27.851     8.657
    19   6 C        2.917    -0.038    28.951     8.823
    20   6 C        2.917    -0.027    28.684     8.783
    21   6 C        2.915    -0.030    28.738     8.791
    22   6 C        2.921    -0.035    28.873     8.812
    23   7 N        2.772    -0.118    23.568     7.210
    24   6 C        2.760     0.278    22.301     7.733
    25   6 C        3.064    -0.043    28.995     8.830
    26   6 C        3.061     0.067    26.444     8.433
    27   8 O        1.731    -0.183    17.064     5.578
    28   6 C        3.099     0.116    25.344     8.250
    29   6 C        3.753    -0.117    22.797     6.809
    30   6 C        3.022    -0.069    29.705     8.940
    31   8 O        0.860    -0.434    22.375     6.342
    32   6 C        3.801     0.091    19.079     6.219
    33   6 C        2.689     0.356    20.955     7.492
    34   8 O        1.659    -0.361    20.103     6.053
    35   8 O        0.856    -0.391    21.504     6.217
    36   7 N        2.755    -0.138    23.980     7.273
    37   6 C        2.769     0.271    22.415     7.754
    38   6 C        3.059    -0.052    29.232     8.866
    39   6 C        3.074     0.082    26.089     8.375
    40   8 O        1.729    -0.173    16.915     5.553
    41   6 C        3.104     0.116    25.333     8.247
    42   6 C        3.753    -0.119    22.838     6.815
    43   6 C        3.019    -0.085    30.103     9.000
    44   8 O        0.861    -0.433    22.347     6.338
    45   1 H        0.926     0.035     2.520     2.482
    46   1 H        0.926     0.032     2.553     2.499
    47   1 H        0.926     0.028     2.620     2.531
    48   1 H        0.926     0.028     2.621     2.532
    49   1 H        0.926     0.037     2.491     2.468
    50   1 H        0.926     0.039     2.468     2.457
    51   1 H        0.926     0.040     2.450     2.448
    52   1 H        0.923     0.051     2.310     2.377
    53   1 H        0.923     0.067     2.114     2.274
    54   1 H        0.926     0.037     2.484     2.465
    55   1 H        0.926     0.037     2.484     2.465
    56   1 H        0.926     0.036     2.499     2.472
    57   1 H        0.926     0.055     2.261     2.351
    58   1 H        0.926     0.037     2.490     2.468
    59   1 H        0.926     0.033     2.544     2.494
    60   1 H        0.926     0.032     2.556     2.500
    61   1 H        0.926     0.048     2.348     2.396
    62   1 H        0.925     0.058     2.220     2.330
    63   1 H        0.925     0.066     2.134     2.284
    64   1 H        0.925     0.063     2.165     2.301
    65   1 H        0.927     0.045     2.381     2.413
    66   1 H        0.923     0.102     1.769     2.080
    67   1 H        0.804     0.342     0.607     1.223
    68   1 H        0.926     0.069     2.101     2.267
    69   1 H        0.925     0.064     2.152     2.294
    70   1 H        0.925     0.059     2.212     2.326
    71   1 H        0.925     0.067     2.124     2.279
    72   1 H        0.927     0.054     2.273     2.358

Wiberg/Mayer (AO) data.
largest (>0.10) Wiberg bond orders for each atom

     #   Z sym  total        # sym  WBO       # sym  WBO       # sym  WBO
 ---------------------------------------------------------------------------
     1   6 C    3.991 --     2 C    1.557     6 C    1.280    45 H    0.968
                             4 C    0.118
     2   6 C    3.991 --     1 C    1.557     3 C    1.322    46 H    0.971
     3   6 C    3.992 --     4 C    1.553     2 C    1.322    47 H    0.971
     4   6 C    3.992 --     3 C    1.553     5 C    1.284    48 H    0.952
                             1 C    0.118
     5   6 C    3.990 --     4 C    1.284    10 C    1.255     6 C    1.250
     6   6 C    3.989 --     7 C    1.281     1 C    1.280     5 C    1.250
     7   6 C    3.990 --     8 C    1.550     6 C    1.281    49 H    0.968
                            10 C    0.115
     8   6 C    3.991 --     7 C    1.550     9 C    1.330    50 H    0.970
     9   6 C    3.989 --    10 C    1.518     8 C    1.330    51 H    0.964
    10   6 C    3.984 --     9 C    1.518     5 C    1.255    11 C    0.995
                             7 C    0.115
    11   6 C    3.962 --    10 C    0.995    12 C    0.958    52 H    0.951
                            36 N    0.945
    12   6 C    3.960 --    13 C    0.997    11 C    0.958    23 N    0.950
                            53 H    0.936
    13   6 C    3.984 --    14 C    1.531    18 C    1.244    12 C    0.997
                            16 C    0.115
    14   6 C    3.991 --    13 C    1.531    15 C    1.320    54 H    0.961
    15   6 C    3.992 --    16 C    1.558    14 C    1.320    55 H    0.970
    16   6 C    3.991 --    15 C    1.558    17 C    1.275    56 H    0.968
                            13 C    0.115
    17   6 C    3.990 --    22 C    1.280    16 C    1.275    18 C    1.258
    18   6 C    3.989 --    19 C    1.285    17 C    1.258    13 C    1.244
    19   6 C    3.990 --    20 C    1.552    18 C    1.285    57 H    0.960
                            22 C    0.119
    20   6 C    3.992 --    19 C    1.552    21 C    1.325    58 H    0.971
    21   6 C    3.992 --    22 C    1.555    20 C    1.325    59 H    0.971
    22   6 C    3.992 --    21 C    1.555    17 C    1.280    60 H    0.968
                            19 C    0.119
    23   7 N    3.466 --    24 C    1.211    32 C    0.987    12 C    0.950
                            31 O    0.189
    24   6 C    3.945 --    31 O    1.675    23 N    1.211    25 C    0.979
    25   6 C    3.978 --    26 C    1.573    30 C    1.247    24 C    0.979
    26   6 C    3.909 --    25 C    1.573    27 O    1.134    61 H    0.966
                            28 C    0.137
    27   8 O    2.441 --    26 C    1.134    28 C    1.114
    28   6 C    3.911 --    30 C    1.585    27 O    1.114    29 C    1.029
                            26 C    0.137
    29   6 C    3.993 --    28 C    1.029    62 H    0.984    64 H    0.970
                            63 H    0.968
    30   6 C    3.977 --    28 C    1.585    25 C    1.247    65 H    0.974
    31   8 O    2.007 --    24 C    1.675    23 N    0.189
    32   6 C    3.967 --    23 N    0.987    36 N    0.975    66 H    0.923
                            33 C    0.921
    33   6 C    3.916 --    35 O    1.768    34 O    1.148    32 C    0.921
    34   8 O    2.222 --    33 C    1.148    67 H    0.855    35 O    0.177
    35   8 O    2.055 --    33 C    1.768    34 O    0.177
    36   7 N    3.412 --    37 C    1.171    32 C    0.975    11 C    0.945
                            44 O    0.172
    37   6 C    3.948 --    44 O    1.672    36 N    1.171    38 C    1.025
    38   6 C    3.976 --    39 C    1.532    43 C    1.240    37 C    1.025
    39   6 C    3.913 --    38 C    1.532    40 O    1.165    68 H    0.964
                            41 C    0.130
    40   8 O    2.456 --    39 C    1.165    41 C    1.105
    41   6 C    3.909 --    43 C    1.595    40 O    1.105    42 C    1.030
                            39 C    0.130
    42   6 C    3.993 --    41 C    1.030    70 H    0.983    71 H    0.972
                            69 H    0.967
    43   6 C    3.979 --    41 C    1.595    38 C    1.240    72 H    0.964
    44   8 O    2.003 --    37 C    1.672    36 N    0.172
    45   1 H    0.998 --     1 C    0.968
    46   1 H    0.998 --     2 C    0.971
    47   1 H    0.999 --     3 C    0.971
    48   1 H    0.999 --     4 C    0.952
    49   1 H    0.997 --     7 C    0.968
    50   1 H    0.998 --     8 C    0.970
    51   1 H    0.998 --     9 C    0.964
    52   1 H    0.997 --    11 C    0.951
    53   1 H    0.995 --    12 C    0.936
    54   1 H    0.998 --    14 C    0.961
    55   1 H    0.998 --    15 C    0.970
    56   1 H    0.998 --    16 C    0.968
    57   1 H    0.997 --    19 C    0.960
    58   1 H    0.998 --    20 C    0.971
    59   1 H    0.998 --    21 C    0.971
    60   1 H    0.998 --    22 C    0.968
    61   1 H    0.998 --    26 C    0.966
    62   1 H    0.997 --    29 C    0.984
    63   1 H    0.995 --    29 C    0.968
    64   1 H    0.996 --    29 C    0.970
    65   1 H    0.998 --    30 C    0.974
    66   1 H    0.989 --    32 C    0.923
    67   1 H    0.882 --    34 O    0.855
    68   1 H    0.995 --    39 C    0.964
    69   1 H    0.996 --    42 C    0.967
    70   1 H    0.996 --    42 C    0.983
    71   1 H    0.995 --    42 C    0.972
    72   1 H    0.997 --    43 C    0.964
 ---------------------------------------------------------------------------

molecular dipole:
                 x           y           z       tot (Debye)
 q only:       -0.146      -0.399      -1.195
   full:       -0.231      -0.227      -1.128       2.982

           -------------------------------------------------
          | TOTAL ENERGY             -121.662624652799 Eh   |
          | GRADIENT NORM               0.000320690264 Eh/Î± |
          | HOMO-LUMO GAP               3.017393319614 eV   |
           -------------------------------------------------

 * finished run on 2022/03/17 at 00:56:44.688
