   * xtb version 6.3.3 (4ae9cef) compiled by 'conda@95abc7406d43' on 2020-10-14
          program call               : xtb acid_302.xyz --opt --chrg 0 --uhf 0 --gfn 2
          number of atoms            :                    66
          number of electrons        :                   230
          charge                     :                     0
          spin                       :                   0.0

   ID    Z sym.   atoms
    1    6 C      1-14, 16-19, 24-26, 28, 29, 33-36, 41-43
    2    7 N      15, 32
    3    9 F      20-22, 37-39
    4    8 O      23, 27, 30, 31, 40, 44
    5    1 H      45-66

          :  Hamiltonian                  GFN2-xTB          :
 * total energy  :  -134.1561448 Eh     change       -0.2154223E-08 Eh
 * total energy  :  -134.1691218 Eh     change       -0.1297694E-01 Eh
 * total energy  :  -134.1729455 Eh     change       -0.3823702E-02 Eh
 * total energy  :  -134.1738853 Eh     change       -0.9398469E-03 Eh
 * total energy  :  -134.1745888 Eh     change       -0.7035236E-03 Eh
 * total energy  :  -134.1749759 Eh     change       -0.3870281E-03 Eh
 * total energy  :  -134.1752581 Eh     change       -0.2822285E-03 Eh
 * total energy  :  -134.1755508 Eh     change       -0.2927285E-03 Eh
 * total energy  :  -134.1759282 Eh     change       -0.3773526E-03 Eh
 * total energy  :  -134.1763663 Eh     change       -0.4381226E-03 Eh
 * total energy  :  -134.1807691 Eh     change       -0.9496261E-05 Eh
 * total energy  :  -134.1807750 Eh     change       -0.5893404E-05 Eh
 * total energy  :  -134.1807843 Eh     change       -0.9296392E-05 Eh
 * total energy  :  -134.1807960 Eh     change       -0.1170133E-04 Eh
 * total energy  :  -134.1808064 Eh     change       -0.1036033E-04 Eh
 * total energy  :  -134.1808169 Eh     change       -0.1048541E-04 Eh
 * total energy  :  -134.1808276 Eh     change       -0.1076635E-04 Eh
 * total energy  :  -134.1808355 Eh     change       -0.7895728E-05 Eh
 * total energy  :  -134.1808387 Eh     change       -0.3139518E-05 Eh
   *** GEOMETRY OPTIMIZATION CONVERGED AFTER 57 ITERATIONS ***

 final structure:
================
66
 xtb: 6.3.3 (4ae9cef)
C        -2.54826301699384    2.38990938152288    1.61415493421922
C        -2.97841956868084    3.31917014875819    2.54648995733065
C        -2.14755546587608    4.35532690994213    2.93352282407180
C        -0.88719118168885    4.46910664159532    2.37066496044039
C        -0.45544700055048    3.54062078100976    1.44152197775619
C        -1.27654553223251    2.48273847124173    1.06709972449366
C        -0.77436649402005    1.48324353473247    0.05037128636805
C         0.60145749728974    0.86896572483149    0.43499024387235
C         1.59808639575631    0.94901595497365   -0.69339175486846
C         2.75916731323963    1.69793381873484   -0.55461877971454
C         3.68212215970208    1.75197539628267   -1.58385935504782
C         3.44809434360495    1.06458180613424   -2.76247313308521
C         2.28162293934960    0.33396741934667   -2.91408246751238
C         1.35901493254727    0.27616182451890   -1.88561223667435
N         0.26657844520099   -0.50714384048450    0.77140051681983
C         1.10269414842014   -1.54011975878828    1.01564634079480
C         2.55007572822529   -1.20201034816446    0.96801178527911
C         3.47372511075609   -1.68673146121215    0.08235011050218
C         3.31929921742730   -2.59418613453925   -1.08927480688930
F         3.72416133579287   -3.84974212912637   -0.83484873546165
F         4.03776218304809   -2.18126321613323   -2.14574614721463
F         2.04677178352269   -2.67258397707456   -1.49148587218014
O         4.70047573900134   -1.20230276283519    0.35999647128075
C         4.58410379651705   -0.41186768095554    1.44206565596462
C         5.80281625421995    0.25723488175639    1.95991741792665
C         3.28454981862069   -0.37643746472806    1.85941222841329
O         0.69489458633521   -2.65448263472516    1.26620260377573
C        -1.16111604741931   -0.71678966160195    0.76318480321424
C        -1.75642354916980   -0.58159282596125    2.18219992367537
O        -0.88308710834827   -0.08876210003884    3.04934124749733
O        -2.88346972635202   -0.87929296332654    2.46250325422244
N        -1.64798651399196    0.33065020969469   -0.09074437968681
C        -2.42733451132015    0.19914493207978   -1.20272456099911
C        -3.13419097974693   -1.09286020703401   -1.35378614186660
C        -3.27146029913790   -1.77536058371136   -2.53723734421703
C        -2.67233951911124   -1.51408422275057   -3.87888977453420
F        -1.43459695445263   -1.00652221983621   -3.77300267112850
F        -3.38195644352711   -0.65156510499012   -4.61960035592391
F        -2.56764035163972   -2.63651808503956   -4.60344605272162
O        -4.03430708554893   -2.86912545369516   -2.36912153015628
C        -4.41684240792481   -2.89899788046160   -1.07730745371695
C        -5.28494819312264   -4.01156493278448   -0.62130602926384
C        -3.89107538742220   -1.83315653301017   -0.40508181500736
O        -2.55626150865781    1.10276551722274   -1.99847687367560
H        -3.21358538754729    1.59795056177298    1.30577947381079
H        -3.96934324158647    3.23221569968577    2.96622822512496
H        -2.48412385603507    5.07881791509059    3.66067599110194
H        -0.24014301205429    5.28637358872962    2.65280448427917
H         0.52059670205710    3.64512612285931    0.99007556468497
H        -0.72239557737546    1.97665087162202   -0.92873363916634
H         1.00043085268712    1.37281029185392    1.32335318444749
H         2.94589921661415    2.23185652481562    0.36685233736475
H         4.58591360248005    2.33095512632200   -1.46384816740127
H         4.17276515958179    1.09821322036753   -3.56119803441320
H         2.08729815509747   -0.19843895821486   -3.83149448484958
H         0.45633098475738   -0.30127472411446   -2.01355015936091
H         5.56704390305547    0.80660650995321    2.86548416775806
H         6.57410240417820   -0.48003486972001    2.17457752598772
H         6.19744435115982    0.94463673099256    1.21318805149656
H         2.89018519836026    0.15123286907718    2.70279858863229
H        -1.40407226485423   -1.72019192858549    0.39141974169935
H        -1.27612359955549   -0.02009919767415    3.93513454623424
H        -4.80187405656637   -4.96807139822753   -0.81353156509209
H        -6.22988519074665   -3.99936593983526   -1.16224899998003
H        -5.47696021890183   -3.91129336301496    0.44192330321002
H        -4.02415200645410   -1.59212482510536    0.62937686804464

          :  Hamiltonian                  GFN2-xTB          :
         :: total energy            -134.180838662837 Eh    ::
         :: gradient norm              0.000410986991 Eh/a0 ::
         :: HOMO-LUMO gap              3.623522871411 eV    ::
         :: SCC energy              -135.687670504758 Eh    ::
         :: -> dispersion             -0.094166206126 Eh    ::
         :: repulsion energy           1.503502329713 Eh    ::

    * Orbital Energies and Occupations

         #    Occupation            Energy/Eh            Energy/eV
      -------------------------------------------------------------
         1        2.0000           -0.8830997             -24.0304
       ...           ...                  ...                  ...
       103        2.0000           -0.4453669             -12.1191
       104        2.0000           -0.4404741             -11.9859
       105        2.0000           -0.4366043             -11.8806
       106        2.0000           -0.4301917             -11.7061
       107        2.0000           -0.4260064             -11.5922
       108        2.0000           -0.4234774             -11.5234
       109        2.0000           -0.4221489             -11.4873
       110        2.0000           -0.4215135             -11.4700
       111        2.0000           -0.4191356             -11.4053
       112        2.0000           -0.4187119             -11.3937
       113        2.0000           -0.4156948             -11.3116
       114        2.0000           -0.4140550             -11.2670
       115        2.0000           -0.4090110             -11.1298 (HOMO)
       116                         -0.2758490              -7.5062 (LUMO)
       117                         -0.2689834              -7.3194
       118                         -0.2653950              -7.2218
       119                         -0.2454338              -6.6786
       120                         -0.2408870              -6.5549
       121                         -0.2393327              -6.5126
       122                         -0.2381310              -6.4799
       123                         -0.2351514              -6.3988
       124                         -0.2299528              -6.2573
       125                         -0.1955983              -5.3225
       126                         -0.1780301              -4.8444
       ...                                ...                  ...
       198                          0.6617703              18.0077
      -------------------------------------------------------------
                  HL-Gap            0.1331620 Eh            3.6235 eV

     #   Z          covCN         q      C6AA      Î±(0)
     1   6 C        2.923    -0.033    28.825     8.804
     2   6 C        2.920    -0.027    28.676     8.781
     3   6 C        2.920    -0.030    28.752     8.793
     4   6 C        2.920    -0.027    28.687     8.783
     5   6 C        2.925    -0.038    28.943     8.823
     6   6 C        2.971     0.003    27.943     8.671
     7   6 C        3.841     0.035    19.960     6.356
     8   6 C        3.817     0.030    20.053     6.373
     9   6 C        2.973    -0.008    28.203     8.711
    10   6 C        2.923    -0.041    29.007     8.832
    11   6 C        2.919    -0.029    28.723     8.789
    12   6 C        2.920    -0.026    28.641     8.776
    13   6 C        2.920    -0.022    28.565     8.764
    14   6 C        2.923    -0.033    28.812     8.802
    15   7 N        2.770    -0.101    23.222     7.157
    16   6 C        2.760     0.275    22.349     7.742
    17   6 C        3.062    -0.033    28.761     8.794
    18   6 C        3.123     0.076    26.137     8.372
    19   6 C        3.330     0.489    17.329     6.605
    20   9 F        0.791    -0.193    11.160     3.946
    21   9 F        0.791    -0.196    11.196     3.953
    22   9 F        0.792    -0.195    11.187     3.951
    23   8 O        1.730    -0.166    16.805     5.535
    24   6 C        3.099     0.132    24.995     8.193
    25   6 C        3.753    -0.124    22.934     6.829
    26   6 C        3.024    -0.075    29.842     8.961
    27   8 O        0.859    -0.420    22.086     6.301
    28   6 C        3.780     0.088    19.139     6.232
    29   6 C        2.688     0.360    20.887     7.479
    30   8 O        1.659    -0.351    19.931     6.027
    31   8 O        0.856    -0.386    21.398     6.202
    32   7 N        2.766    -0.106    23.322     7.172
    33   6 C        2.759     0.275    22.351     7.742
    34   6 C        3.061    -0.042    28.989     8.829
    35   6 C        3.118     0.081    26.030     8.356
    36   6 C        3.330     0.491    17.309     6.602
    37   9 F        0.791    -0.199    11.226     3.958
    38   9 F        0.791    -0.190    11.133     3.941
    39   9 F        0.792    -0.193    11.167     3.947
    40   8 O        1.729    -0.163    16.750     5.526
    41   6 C        3.100     0.133    24.975     8.190
    42   6 C        3.753    -0.125    22.959     6.833
    43   6 C        3.017    -0.083    30.061     8.994
    44   8 O        0.859    -0.403    21.748     6.253
    45   1 H        0.926     0.038     2.474     2.460
    46   1 H        0.926     0.041     2.437     2.441
    47   1 H        0.926     0.039     2.466     2.456
    48   1 H        0.926     0.038     2.470     2.458
    49   1 H        0.926     0.033     2.544     2.494
    50   1 H        0.924     0.093     1.854     2.129
    51   1 H        0.924     0.060     2.202     2.321
    52   1 H        0.925     0.027     2.633     2.537
    53   1 H        0.926     0.037     2.494     2.469
    54   1 H        0.926     0.046     2.371     2.408
    55   1 H        0.926     0.054     2.266     2.354
    56   1 H        0.926     0.044     2.392     2.418
    57   1 H        0.925     0.069     2.097     2.264
    58   1 H        0.925     0.080     1.977     2.199
    59   1 H        0.925     0.078     1.997     2.210
    60   1 H        0.927     0.058     2.217     2.328
    61   1 H        0.924     0.097     1.810     2.104
    62   1 H        0.804     0.345     0.600     1.217
    63   1 H        0.925     0.080     1.983     2.202
    64   1 H        0.925     0.078     1.996     2.210
    65   1 H        0.925     0.073     2.053     2.240
    66   1 H        0.926     0.082     1.954     2.186

Wiberg/Mayer (AO) data.
largest (>0.10) Wiberg bond orders for each atom

     #   Z sym  total        # sym  WBO       # sym  WBO       # sym  WBO
 ---------------------------------------------------------------------------
     1   6 C    3.991 --     2 C    1.437     6 C    1.419    45 H    0.966
                             4 C    0.110
     2   6 C    3.992 --     3 C    1.445     1 C    1.437    46 H    0.970
                             5 C    0.112
     3   6 C    3.991 --     2 C    1.445     4 C    1.433    47 H    0.971
                             6 C    0.109
     4   6 C    3.991 --     5 C    1.451     3 C    1.433    48 H    0.971
                             1 C    0.110
     5   6 C    3.991 --     4 C    1.451     6 C    1.405    49 H    0.968
                             2 C    0.112
     6   6 C    3.985 --     1 C    1.419     5 C    1.405     7 C    0.987
                             3 C    0.109
     7   6 C    3.959 --     6 C    0.987    32 N    0.968     8 C    0.950
                            50 H    0.939
     8   6 C    3.962 --     9 C    0.989    15 N    0.959    51 H    0.952
                             7 C    0.950
     9   6 C    3.985 --    10 C    1.412    14 C    1.411     8 C    0.989
                            12 C    0.109
    10   6 C    3.990 --    11 C    1.443     9 C    1.412    52 H    0.968
                            13 C    0.110
    11   6 C    3.992 --    10 C    1.443    12 C    1.440    53 H    0.971
                            14 C    0.111
    12   6 C    3.990 --    11 C    1.440    13 C    1.437    54 H    0.970
                             9 C    0.109
    13   6 C    3.990 --    14 C    1.446    12 C    1.437    55 H    0.969
                            10 C    0.110
    14   6 C    3.991 --    13 C    1.446     9 C    1.411    56 H    0.968
                            11 C    0.111
    15   7 N    3.487 --    16 C    1.227    28 C    0.981     8 C    0.959
                            27 O    0.199
    16   6 C    3.955 --    27 O    1.682    15 N    1.227    17 C    0.968
    17   6 C    3.980 --    18 C    1.532    26 C    1.265    16 C    0.968
    18   6 C    3.898 --    17 C    1.532    23 O    1.116    19 C    0.959
                            24 C    0.133
    19   6 C    3.848 --    18 C    0.959    22 F    0.956    21 F    0.949
                            20 F    0.947
    20   9 F    1.082 --    19 C    0.947
    21   9 F    1.078 --    19 C    0.949
    22   9 F    1.081 --    19 C    0.956
    23   8 O    2.453 --    24 C    1.126    18 C    1.116
    24   6 C    3.906 --    26 C    1.564    23 O    1.126    25 C    1.033
                            18 C    0.133
    25   6 C    3.987 --    24 C    1.033    57 H    0.982    58 H    0.965
                            59 H    0.963
    26   6 C    3.975 --    24 C    1.564    17 C    1.265    60 H    0.972
    27   8 O    2.019 --    16 C    1.682    15 N    0.199
    28   6 C    3.966 --    32 N    0.988    15 N    0.981    61 H    0.934
                            29 C    0.910
    29   6 C    3.919 --    31 O    1.773    30 O    1.168    28 C    0.910
    30   8 O    2.233 --    29 C    1.168    62 H    0.855    31 O    0.184
    31   8 O    2.064 --    29 C    1.773    30 O    0.184
    32   7 N    3.466 --    33 C    1.188    28 C    0.988     7 C    0.968
                            44 O    0.188
    33   6 C    3.953 --    44 O    1.697    32 N    1.188    34 C    0.990
    34   6 C    3.978 --    35 C    1.512    43 C    1.262    33 C    0.990
    35   6 C    3.902 --    34 C    1.512    40 O    1.129    36 C    0.957
                            41 C    0.133
    36   6 C    3.849 --    35 C    0.957    39 F    0.955    38 F    0.952
                            37 F    0.949
    37   9 F    1.076 --    36 C    0.949
    38   9 F    1.087 --    36 C    0.952
    39   9 F    1.081 --    36 C    0.955
    40   8 O    2.458 --    35 C    1.129    41 C    1.121
    41   6 C    3.905 --    43 C    1.567    40 O    1.121    42 C    1.034
                            35 C    0.133
    42   6 C    3.987 --    41 C    1.034    65 H    0.981    63 H    0.964
                            64 H    0.963
    43   6 C    3.975 --    41 C    1.567    34 C    1.262    66 H    0.963
    44   8 O    2.037 --    33 C    1.697    32 N    0.188
    45   1 H    0.999 --     1 C    0.966
    46   1 H    0.998 --     2 C    0.970
    47   1 H    0.998 --     3 C    0.971
    48   1 H    0.998 --     4 C    0.971
    49   1 H    0.999 --     5 C    0.968
    50   1 H    0.991 --     7 C    0.939
    51   1 H    0.996 --     8 C    0.952
    52   1 H    0.999 --    10 C    0.968
    53   1 H    0.998 --    11 C    0.971
    54   1 H    0.997 --    12 C    0.970
    55   1 H    0.997 --    13 C    0.969
    56   1 H    0.998 --    14 C    0.968
    57   1 H    0.995 --    25 C    0.982
    58   1 H    0.993 --    25 C    0.965
    59   1 H    0.993 --    25 C    0.963
    60   1 H    0.996 --    26 C    0.972
    61   1 H    0.990 --    28 C    0.934
    62   1 H    0.881 --    30 O    0.855
    63   1 H    0.993 --    42 C    0.964
    64   1 H    0.993 --    42 C    0.963
    65   1 H    0.994 --    42 C    0.981
    66   1 H    0.993 --    43 C    0.963
 ---------------------------------------------------------------------------

molecular dipole:
                 x           y           z       tot (Debye)
 q only:        0.792       1.758       3.240
   full:        0.870       1.662       3.339       9.736

           -------------------------------------------------
          | TOTAL ENERGY             -134.180838662837 Eh   |
          | GRADIENT NORM               0.000410986991 Eh/Î± |
          | HOMO-LUMO GAP               3.623522871411 eV   |
           -------------------------------------------------

 * finished run on 2022/03/16 at 23:35:38.417
