   * xtb version 6.3.3 (4ae9cef) compiled by 'conda@95abc7406d43' on 2020-10-14
          program call               : xtb acid_346.xyz --opt --chrg 0 --uhf 0 --gfn 2
          number of atoms            :                    78
          number of electrons        :                   226
          charge                     :                     0
          spin                       :                   0.0

   ID    Z sym.   atoms
    1    6 C      1-22, 24-31, 33, 34, 38-45
    2    7 N      23, 37
    3    8 O      32, 35, 36, 46
    4    1 H      47-78

          :  Hamiltonian                  GFN2-xTB          :
 * total energy  :  -124.1278522 Eh     change       -0.4580414E-08 Eh
 * total energy  :  -124.1434424 Eh     change       -0.1559016E-01 Eh
 * total energy  :  -124.1474911 Eh     change       -0.4048755E-02 Eh
 * total energy  :  -124.1486069 Eh     change       -0.1115785E-02 Eh
 * total energy  :  -124.1494283 Eh     change       -0.8213953E-03 Eh
 * total energy  :  -124.1498722 Eh     change       -0.4438461E-03 Eh
 * total energy  :  -124.1501363 Eh     change       -0.2641367E-03 Eh
 * total energy  :  -124.1502902 Eh     change       -0.1539145E-03 Eh
 * total energy  :  -124.1504352 Eh     change       -0.1449897E-03 Eh
 * total energy  :  -124.1506087 Eh     change       -0.1735015E-03 Eh
 * total energy  :  -124.1535229 Eh     change       -0.2115253E-04 Eh
 * total energy  :  -124.1535231 Eh     change       -0.2119361E-06 Eh
 * total energy  :  -124.1535339 Eh     change       -0.1081030E-04 Eh
 * total energy  :  -124.1535442 Eh     change       -0.1030576E-04 Eh
 * total energy  :  -124.1535500 Eh     change       -0.5782843E-05 Eh
 * total energy  :  -124.1535568 Eh     change       -0.6865154E-05 Eh
 * total energy  :  -124.1535547 Eh     change        0.2101266E-05 Eh
 * total energy  :  -124.1535609 Eh     change       -0.6121552E-05 Eh
 * total energy  :  -124.1535617 Eh     change       -0.7933599E-06 Eh
   *** GEOMETRY OPTIMIZATION CONVERGED AFTER 44 ITERATIONS ***

 final structure:
================
78
 xtb: 6.3.3 (4ae9cef)
C         0.90495698272182   -2.90283165146184    0.00638738152307
C         1.87255947478108   -3.77736368391975    0.40876578747990
C         3.03017601015187   -3.32111626577159    1.07142014188547
C         4.06890923501362   -4.19203287939273    1.45849840857692
C         5.18067130706017   -3.71317866997516    2.09333049187168
C         5.30199435635983   -2.34304072976504    2.37469644276928
C         4.31064459960128   -1.47385222770204    2.01596349303363
C         3.15438182344979   -1.93585461801960    1.35360559647838
C         2.13077322716671   -1.06206113693128    0.94145499665027
C         1.04093619701587   -1.52413475894507    0.25042558233119
C        -0.02026526022368   -0.57283290646572   -0.23499832101478
C        -0.85564471612308   -0.01237964739472    0.94226837275696
C        -2.23423365899967   -0.62427686835357    0.97521383974144
C        -3.27527264857204   -0.09416617371644    0.26154621603162
C        -4.54766575477411   -0.69971450551886    0.28550615344384
C        -5.63780460889698   -0.15985354682542   -0.42835804578393
C        -6.86273933232176   -0.76464632254375   -0.38909449335297
C        -7.05263197173257   -1.93563331007027    0.36201574973575
C        -6.01466750392718   -2.48342954988101    1.06286937989907
C        -4.73904694127590   -1.88281880541289    1.04495798428269
C        -3.64396503894769   -2.41366455189582    1.75840839965216
C        -2.42533562204103   -1.79945123613333    1.72734042198915
N        -0.85006354132662    1.42609255371914    0.74004228442977
C        -1.43810807105895    2.25862070614522    1.64565511241104
C        -1.29548867489185    3.71070712118576    1.32257131888565
C        -2.37637254855142    4.42019268606431    0.81895976622402
C        -2.24037555246219    5.76143675757640    0.51264647920993
C        -1.03567253569431    6.42289872077375    0.71497956814960
C        -0.88035457194270    7.86746776652446    0.35063970310961
C         0.03253785586220    5.71110079344148    1.24749697492692
C        -0.09191149414080    4.36795006744456    1.54848813733122
O        -2.00515710095407    1.83026721971939    2.62650386803475
C        -0.11373134403040    1.82949085185945   -0.42033370301173
C        -1.01057821162667    2.45175714421707   -1.53590263950846
O        -0.33251781578803    2.97634642293246   -2.53380196421142
O        -2.20611228452583    2.45451086462324   -1.47073170320993
N         0.52884433258662    0.60966189185030   -0.88455055605856
C         1.58094943264345    0.68452502331946   -1.72375789112445
C         2.24745489187791   -0.58630428658256   -2.10172236133840
C         3.59035301089292   -0.77196719226430   -1.79327662010041
C         4.21516144724207   -1.95952159498589   -2.11447711051626
C         3.52850665463946   -2.96933655702953   -2.77994606436178
C         4.21860578571100   -4.25404018898476   -3.11615014604651
C         2.20472062160655   -2.74969126887214   -3.13729373031525
C         1.56296910123989   -1.57324704788562   -2.79861428302686
O         1.95780718008357    1.77578353600251   -2.15292243826540
H         0.02563749667386   -3.25841046559549   -0.51012620584278
H         1.76886887745621   -4.83443876879764    0.21261584018368
H         3.96937014799402   -5.24601221485942    1.24177966663771
H         5.97418526145855   -4.38511201881365    2.38532702585140
H         6.18725064624055   -1.98291592235270    2.87761882800249
H         4.40009615408676   -0.41839642344947    2.22963777714483
H         2.23602638399382   -0.00620030936894    1.15114831128798
H        -0.69156976206748   -1.08932164293776   -0.93419573663723
H        -0.35802819814268   -0.22797800719282    1.89842981607306
H        -3.14342281729057    0.80523449432264   -0.32125207915383
H        -5.48132016712431    0.74167189614813   -1.00269469526004
H        -7.69592797468126   -0.34635369615821   -0.93489764888264
H        -8.02824495879742   -2.39943849616036    0.38171874885587
H        -6.15689084546077   -3.38397846713994    1.64364230870201
H        -3.78831389291772   -3.31386152502809    2.33880781718105
H        -1.59233559561720   -2.20740370946053    2.28265872063759
H        -3.31428887135564    3.91301479573730    0.65571701879191
H        -3.08317252451554    6.30268460158100    0.10834626375958
H        -1.84030511408039    8.37744662876382    0.36546965370158
H        -0.46798297974555    7.95217209557409   -0.65544796575142
H        -0.20061214299954    8.36986962549750    1.03531463737572
H         0.97152736034425    6.21457822465957    1.42876232515997
H         0.74353829552393    3.83105405038662    1.97752284707296
H         0.66044799677669    2.58017806597965   -0.17894091936775
H         0.64292776768741    2.76546977727729   -2.47982617203976
H         4.13149386563142    0.00918624126615   -1.28131852534596
H         5.25022770822991   -2.10883176035275   -1.84402217264092
H         3.50179313492917   -5.01873634782156   -3.40346559806094
H         4.90847557672911   -4.10209308097288   -3.94626439584617
H         4.79535351547247   -4.60950527847398   -2.26449725811392
H         1.66404003796151   -3.51185689557444   -3.67931820825982
H         0.53296389474076   -1.41808041140701   -3.08498000682332

          :  Hamiltonian                  GFN2-xTB          :
         :: total energy            -124.153561651388 Eh    ::
         :: gradient norm              0.000924910717 Eh/a0 ::
         :: HOMO-LUMO gap              2.590020372331 eV    ::
         :: SCC energy              -126.188112922413 Eh    ::
         :: -> dispersion             -0.113572581616 Eh    ::
         :: repulsion energy           2.031830021651 Eh    ::

    * Orbital Energies and Occupations

         #    Occupation            Energy/Eh            Energy/eV
      -------------------------------------------------------------
         1        2.0000           -0.7508190             -20.4308
       ...           ...                  ...                  ...
       101        2.0000           -0.4213395             -11.4652
       102        2.0000           -0.4212191             -11.4620
       103        2.0000           -0.4163520             -11.3295
       104        2.0000           -0.4138291             -11.2609
       105        2.0000           -0.4101364             -11.1604
       106        2.0000           -0.4082124             -11.1080
       107        2.0000           -0.4055709             -11.0361
       108        2.0000           -0.3983410             -10.8394
       109        2.0000           -0.3961735             -10.7804
       110        2.0000           -0.3941848             -10.7263
       111        2.0000           -0.3900031             -10.6125
       112        2.0000           -0.3869616             -10.5298
       113        2.0000           -0.3739566             -10.1759 (HOMO)
       114                         -0.2787751              -7.5859 (LUMO)
       115                         -0.2638506              -7.1797
       116                         -0.2555889              -6.9549
       117                         -0.2485573              -6.7636
       118                         -0.2468240              -6.7164
       119                         -0.2413926              -6.5686
       120                         -0.2292293              -6.2376
       121                         -0.2258120              -6.1447
       122                         -0.2238514              -6.0913
       123                         -0.2230336              -6.0691
       124                         -0.2065224              -5.6198
       ...                                ...                  ...
       216                          0.7011138              19.0783
      -------------------------------------------------------------
                  HL-Gap            0.0951815 Eh            2.5900 eV

     #   Z          covCN         q      C6AA      Î±(0)
     1   6 C        2.919    -0.036    28.897     8.815
     2   6 C        2.918    -0.033    28.821     8.803
     3   6 C        2.988     0.013    27.710     8.635
     4   6 C        2.918    -0.034    28.836     8.806
     5   6 C        2.916    -0.028    28.704     8.786
     6   6 C        2.916    -0.028    28.689     8.783
     7   6 C        2.918    -0.033    28.822     8.804
     8   6 C        2.987     0.015    27.677     8.630
     9   6 C        2.923    -0.040    28.991     8.830
    10   6 C        2.970    -0.002    28.082     8.692
    11   6 C        3.815     0.040    19.886     6.347
    12   6 C        3.822     0.049    19.735     6.322
    13   6 C        2.969     0.005    27.910     8.666
    14   6 C        2.922    -0.041    29.009     8.832
    15   6 C        2.988     0.017    27.624     8.622
    16   6 C        2.919    -0.033    28.821     8.804
    17   6 C        2.916    -0.029    28.734     8.790
    18   6 C        2.916    -0.030    28.739     8.791
    19   6 C        2.918    -0.035    28.870     8.811
    20   6 C        2.987     0.013    27.716     8.636
    21   6 C        2.917    -0.034    28.851     8.808
    22   6 C        2.919    -0.035    28.879     8.812
    23   7 N        2.761    -0.116    23.525     7.204
    24   6 C        2.763     0.275    22.342     7.741
    25   6 C        2.978    -0.025    28.626     8.776
    26   6 C        2.922    -0.020    28.512     8.756
    27   6 C        2.925    -0.035    28.866     8.811
    28   6 C        2.966     0.021    27.526     8.606
    29   6 C        3.758    -0.111    22.680     6.790
    30   6 C        2.925    -0.040    28.984     8.829
    31   6 C        2.921    -0.035    28.866     8.811
    32   8 O        0.859    -0.416    21.998     6.288
    33   6 C        3.755     0.081    19.291     6.263
    34   6 C        2.684     0.350    21.062     7.510
    35   8 O        1.655    -0.369    20.257     6.076
    36   8 O        0.856    -0.367    21.026     6.148
    37   7 N        2.759    -0.110    23.393     7.183
    38   6 C        2.767     0.269    22.456     7.761
    39   6 C        2.977    -0.016    28.412     8.743
    40   6 C        2.923    -0.021    28.535     8.760
    41   6 C        2.926    -0.036    28.891     8.815
    42   6 C        2.967     0.024    27.459     8.595
    43   6 C        3.758    -0.113    22.704     6.793
    44   6 C        2.925    -0.036    28.902     8.816
    45   6 C        2.921    -0.029    28.730     8.790
    46   8 O        0.860    -0.466    23.052     6.437
    47   1 H        0.926     0.035     2.521     2.483
    48   1 H        0.926     0.041     2.434     2.440
    49   1 H        0.926     0.035     2.513     2.479
    50   1 H        0.926     0.036     2.505     2.475
    51   1 H        0.926     0.037     2.492     2.469
    52   1 H        0.926     0.036     2.507     2.476
    53   1 H        0.925     0.032     2.558     2.501
    54   1 H        0.923     0.050     2.315     2.379
    55   1 H        0.923     0.057     2.232     2.336
    56   1 H        0.926     0.062     2.177     2.307
    57   1 H        0.926     0.042     2.419     2.432
    58   1 H        0.926     0.032     2.563     2.504
    59   1 H        0.926     0.030     2.586     2.515
    60   1 H        0.926     0.031     2.579     2.511
    61   1 H        0.926     0.035     2.523     2.484
    62   1 H        0.926     0.027     2.636     2.539
    63   1 H        0.926     0.052     2.295     2.369
    64   1 H        0.926     0.042     2.424     2.435
    65   1 H        0.925     0.047     2.362     2.403
    66   1 H        0.924     0.052     2.293     2.368
    67   1 H        0.925     0.046     2.369     2.407
    68   1 H        0.926     0.036     2.507     2.476
    69   1 H        0.925     0.025     2.663     2.552
    70   1 H        0.922     0.062     2.176     2.307
    71   1 H        0.800     0.365     0.554     1.170
    72   1 H        0.926     0.044     2.396     2.421
    73   1 H        0.926     0.041     2.429     2.437
    74   1 H        0.925     0.048     2.350     2.397
    75   1 H        0.925     0.056     2.244     2.342
    76   1 H        0.925     0.050     2.317     2.381
    77   1 H        0.926     0.042     2.425     2.435
    78   1 H        0.926     0.034     2.531     2.488

Wiberg/Mayer (AO) data.
largest (>0.10) Wiberg bond orders for each atom

     #   Z sym  total        # sym  WBO       # sym  WBO       # sym  WBO
 ---------------------------------------------------------------------------
     1   6 C    3.990 --     2 C    1.560    10 C    1.296    47 H    0.968
     2   6 C    3.991 --     1 C    1.560     3 C    1.278    48 H    0.967
                             9 C    0.115
     3   6 C    3.990 --     4 C    1.282     2 C    1.278     8 C    1.248
     4   6 C    3.992 --     5 C    1.556     3 C    1.282    49 H    0.968
                             7 C    0.118
     5   6 C    3.989 --     4 C    1.556     6 C    1.320    50 H    0.971
     6   6 C    3.992 --     7 C    1.558     5 C    1.320    51 H    0.971
     7   6 C    3.990 --     6 C    1.558     8 C    1.278    52 H    0.968
                             4 C    0.118
     8   6 C    3.990 --     9 C    1.286     7 C    1.278     3 C    1.248
     9   6 C    3.990 --    10 C    1.520     8 C    1.286    53 H    0.966
                             2 C    0.115
    10   6 C    3.984 --     9 C    1.520     1 C    1.296    11 C    0.991
    11   6 C    3.959 --    10 C    0.991    37 N    0.958    54 H    0.953
                            12 C    0.949
    12   6 C    3.960 --    13 C    0.985    23 N    0.963    55 H    0.953
                            11 C    0.949
    13   6 C    3.984 --    14 C    1.530    22 C    1.293    12 C    0.985
    14   6 C    3.987 --    13 C    1.530    15 C    1.280    56 H    0.956
                            21 C    0.115
    15   6 C    3.990 --    14 C    1.280    16 C    1.279    20 C    1.252
    16   6 C    3.990 --    17 C    1.558    15 C    1.279    57 H    0.968
                            19 C    0.118
    17   6 C    3.992 --    16 C    1.558    18 C    1.321    58 H    0.971
    18   6 C    3.990 --    19 C    1.556    17 C    1.321    59 H    0.971
    19   6 C    3.992 --    18 C    1.556    20 C    1.282    60 H    0.969
                            16 C    0.118
    20   6 C    3.990 --    19 C    1.282    21 C    1.276    15 C    1.252
    21   6 C    3.992 --    22 C    1.564    20 C    1.276    61 H    0.968
                            14 C    0.115
    22   6 C    3.991 --    21 C    1.564    13 C    1.293    62 H    0.969
    23   7 N    3.456 --    24 C    1.190    33 C    1.003    12 C    0.963
                            32 O    0.188
    24   6 C    3.942 --    32 O    1.707    23 N    1.190    25 C    0.960
    25   6 C    3.987 --    26 C    1.406    31 C    1.400    24 C    0.960
                            28 C    0.107
    26   6 C    3.990 --    27 C    1.446    25 C    1.406    63 H    0.968
                            30 C    0.109
    27   6 C    3.991 --    26 C    1.446    28 C    1.412    64 H    0.968
                            31 C    0.109
    28   6 C    3.989 --    27 C    1.412    30 C    1.406    29 C    1.027
                            25 C    0.107
    29   6 C    3.996 --    28 C    1.027    65 H    0.982    67 H    0.980
                            66 H    0.966
    30   6 C    3.991 --    31 C    1.450    28 C    1.406    68 H    0.969
                            26 C    0.109
    31   6 C    3.991 --    30 C    1.450    25 C    1.400    69 H    0.969
                            27 C    0.109
    32   8 O    2.025 --    24 C    1.707    23 N    0.188
    33   6 C    3.960 --    23 N    1.003    37 N    0.967    70 H    0.935
                            34 C    0.889
    34   6 C    3.930 --    36 O    1.773    35 O    1.205    33 C    0.889
    35   8 O    2.237 --    34 C    1.205    71 H    0.767    36 O    0.182
    36   8 O    2.081 --    34 C    1.773    35 O    0.182
    37   7 N    3.499 --    38 C    1.265    33 C    0.967    11 C    0.958
                            46 O    0.183
    38   6 C    3.940 --    46 O    1.586    37 N    1.265    39 C    0.983
    39   6 C    3.986 --    45 C    1.398    40 C    1.391    38 C    0.983
                            42 C    0.105
    40   6 C    3.990 --    41 C    1.458    39 C    1.391    72 H    0.969
                            44 C    0.106
    41   6 C    3.991 --    40 C    1.458    42 C    1.401    73 H    0.968
                            45 C    0.107
    42   6 C    3.988 --    44 C    1.410    41 C    1.401    43 C    1.029
                            39 C    0.105
    43   6 C    3.995 --    42 C    1.029    74 H    0.984    76 H    0.976
                            75 H    0.966
    44   6 C    3.991 --    45 C    1.447    42 C    1.410    77 H    0.968
                            40 C    0.106
    45   6 C    3.990 --    44 C    1.447    39 C    1.398    78 H    0.969
                            41 C    0.107
    46   8 O    2.000 --    38 C    1.586    37 N    0.183
    47   1 H    0.998 --     1 C    0.968
    48   1 H    0.997 --     2 C    0.967
    49   1 H    0.998 --     4 C    0.968
    50   1 H    0.998 --     5 C    0.971
    51   1 H    0.998 --     6 C    0.971
    52   1 H    0.998 --     7 C    0.968
    53   1 H    0.998 --     9 C    0.966
    54   1 H    0.997 --    11 C    0.953
    55   1 H    0.996 --    12 C    0.953
    56   1 H    0.996 --    14 C    0.956
    57   1 H    0.998 --    16 C    0.968
    58   1 H    0.999 --    17 C    0.971
    59   1 H    0.999 --    18 C    0.971
    60   1 H    0.999 --    19 C    0.969
    61   1 H    0.998 --    21 C    0.968
    62   1 H    0.999 --    22 C    0.969
    63   1 H    0.997 --    26 C    0.968
    64   1 H    0.998 --    27 C    0.968
    65   1 H    0.997 --    29 C    0.982
    66   1 H    0.997 --    29 C    0.966
    67   1 H    0.998 --    29 C    0.980
    68   1 H    0.998 --    30 C    0.969
    69   1 H    0.999 --    31 C    0.969
    70   1 H    0.996 --    33 C    0.935
    71   1 H    0.866 --    35 O    0.767
    72   1 H    0.998 --    40 C    0.969
    73   1 H    0.998 --    41 C    0.968
    74   1 H    0.997 --    43 C    0.984
    75   1 H    0.996 --    43 C    0.966
    76   1 H    0.997 --    43 C    0.976
    77   1 H    0.998 --    44 C    0.968
    78   1 H    0.999 --    45 C    0.969
 ---------------------------------------------------------------------------

molecular dipole:
                 x           y           z       tot (Debye)
 q only:        1.784      -1.823      -0.427
   full:        2.206      -1.846      -0.423       7.391

           -------------------------------------------------
          | TOTAL ENERGY             -124.153561651388 Eh   |
          | GRADIENT NORM               0.000924910717 Eh/Î± |
          | HOMO-LUMO GAP               2.590020372331 eV   |
           -------------------------------------------------

 * finished run on 2022/03/17 at 00:06:09.766
