   * xtb version 6.3.3 (4ae9cef) compiled by 'conda@95abc7406d43' on 2020-10-14
          program call               : xtb acid_221.xyz --opt --chrg 0 --uhf 0 --gfn 2
          number of atoms            :                    66
          number of electrons        :                   230
          charge                     :                     0
          spin                       :                   0.0

   ID    Z sym.   atoms
    1    6 C      1, 2, 6-15, 19-22, 24-29, 32, 33, 37-42
    2    9 F      3-5, 16-18
    3    7 N      23, 36
    4   16 S      30, 43
    5    8 O      31, 34, 35, 44
    6    1 H      45-66

          :  Hamiltonian                  GFN2-xTB          :
 * total energy  :  -132.4970204 Eh     change       -0.2674227E-08 Eh
 * total energy  :  -132.5128907 Eh     change       -0.1587034E-01 Eh
 * total energy  :  -132.5181392 Eh     change       -0.5248420E-02 Eh
 * total energy  :  -132.5194421 Eh     change       -0.1302974E-02 Eh
 * total energy  :  -132.5201882 Eh     change       -0.7460248E-03 Eh
 * total energy  :  -132.5206327 Eh     change       -0.4445054E-03 Eh
 * total energy  :  -132.5210182 Eh     change       -0.3855479E-03 Eh
 * total energy  :  -132.5214055 Eh     change       -0.3873109E-03 Eh
 * total energy  :  -132.5218154 Eh     change       -0.4099063E-03 Eh
 * total energy  :  -132.5222002 Eh     change       -0.3848208E-03 Eh
 * total energy  :  -132.5324470 Eh     change       -0.5528556E-04 Eh
 * total energy  :  -132.5324789 Eh     change       -0.3190077E-04 Eh
 * total energy  :  -132.5325056 Eh     change       -0.2670490E-04 Eh
 * total energy  :  -132.5325176 Eh     change       -0.1194321E-04 Eh
 * total energy  :  -132.5325285 Eh     change       -0.1093990E-04 Eh
 * total energy  :  -132.5325383 Eh     change       -0.9813074E-05 Eh
 * total energy  :  -132.5325449 Eh     change       -0.6546926E-05 Eh
 * total energy  :  -132.5325501 Eh     change       -0.5224968E-05 Eh
 * total energy  :  -132.5325539 Eh     change       -0.3844346E-05 Eh
   *** GEOMETRY OPTIMIZATION CONVERGED AFTER 118 ITERATIONS ***

 final structure:
================
66
 xtb: 6.3.3 (4ae9cef)
C         0.87559476985094   -3.01383680842778    1.96357374784002
C         0.75065381526862   -3.99296121597145    0.83095761822049
F         0.88252033209965   -5.26694508096204    1.21911752551791
F         1.65551975389794   -3.81322567545887   -0.14854000810402
F        -0.45655808853178   -3.92369320586922    0.21970672256702
C         1.12869191447916   -3.50142407910384    3.23999985270056
C         1.22160340166965   -2.63394731171174    4.31051868560082
C         1.05164144207394   -1.27470105907418    4.11053846469491
C         0.79548345284841   -0.79047773312854    2.84364027577467
C         0.71659843329444   -1.64541304333167    1.74954628545517
C         0.41834988198004   -1.05853459770063    0.39498874896718
C        -1.00579327793868   -0.45609310086681    0.33268373077007
C        -1.98423294349462   -1.35307887031898   -0.38581808460333
C        -2.98010741982359   -2.07414829856393    0.27481215390090
C        -3.13984881276816   -2.00170359011754    1.76828494181166
F        -4.13053660696505   -2.77788210235745    2.22621843577412
F        -2.03063478744673   -2.40754022730012    2.42855388872447
F        -3.39987785245663   -0.76756699423816    2.23053004731331
C        -3.84886725111029   -2.89037878749484   -0.43906380290455
C        -3.73876134975386   -2.99777631999715   -1.81193989572862
C        -2.75335122401122   -2.29029998545865   -2.47667485943812
C        -1.88676436606871   -1.48317162002255   -1.76614266684213
N        -0.81652696056656    0.81569964286702   -0.36017320624333
C        -1.91115772878861    1.54839294420240   -0.72109620617797
C        -1.69218569807246    2.83412071331005   -1.40130021537660
C        -2.41212519698390    3.29545128658917   -2.47266637909572
C        -3.44958110399916    2.51599343691740   -3.20473001706980
C        -2.01401223427742    4.60051867005276   -2.85917808742245
C        -1.04010186003235    5.11937672432277   -2.07459794986325
S        -0.55319238782826    4.02420424343223   -0.84629963828353
O        -3.02794874355112    1.12895611608442   -0.48251470412757
C         0.56923817681874    1.02942885162111   -0.70667146969426
C         0.77526667014435    0.77715457444693   -2.22335752088937
O         1.58200241680170   -0.25318001714587   -2.44724023954651
O         0.24795867751469    1.42094449617608   -3.08523930616390
N         1.27589892820555    0.08701514157677    0.10680632809848
C         2.60285096494747    0.07990856760300    0.41990961036514
C         3.38098558582255    1.29735774005950    0.11355781360268
C         4.27338895494480    1.89301375403083    0.96949781772346
C         4.52589438393051    1.47620998963801    2.37836691769629
C         4.91953348973633    3.00707260765648    0.37578336777211
C         4.54654404232645    3.22152135175753   -0.90879418397408
S         3.37626636129351    2.08458155234601   -1.43911996712825
O         3.10808889386239   -0.86095976446726    1.00003729849617
H         1.25118571865813   -4.56253276161058    3.39062714712968
H         1.42206450299706   -3.02004948748834    5.29756856190019
H         1.11616231139822   -0.59099967722183    4.94336253014613
H         0.66862165105054    0.27126756851595    2.68936394305333
H         0.54278481540757   -1.79973373063336   -0.40143938940173
H        -1.36452962933617   -0.23081566862459    1.34177787270027
H        -4.61501713083003   -3.43976705939262    0.08493766744320
H        -4.42137887561605   -3.62988966306418   -2.35764057906671
H        -2.65918620418168   -2.36436324569053   -3.54943677427450
H        -1.13064365644774   -0.92431885237660   -2.29580395458488
H        -4.27645402415952    3.16577260652579   -3.48440515676419
H        -3.82402798777290    1.70350860624668   -2.58923592023245
H        -3.01694834203656    2.10090504377950   -4.11562029066325
H        -2.45318983014426    5.12511898426442   -3.68876531994213
H        -0.57289979202929    6.08237118708326   -2.12978217414116
H         0.88130622135048    2.05948929189855   -0.49232647670262
H         1.72568977746347   -0.39712872244426   -3.39718035956259
H         5.59773524051533    1.43169511495557    2.56100205855704
H         4.09706951874478    2.20546923697328    3.06610448978166
H         4.09435260309564    0.49980152856021    2.57478002479796
H         5.64103705556193    3.61124584305322    0.89585386081159
H         4.88785820701309    3.97496894111024   -1.59021663171934

          :  Hamiltonian                  GFN2-xTB          :
         :: total energy            -132.532553940666 Eh    ::
         :: gradient norm              0.000840598072 Eh/a0 ::
         :: HOMO-LUMO gap              3.155507172168 eV    ::
         :: SCC energy              -134.041179564043 Eh    ::
         :: -> dispersion             -0.102044967613 Eh    ::
         :: repulsion energy           1.505034123048 Eh    ::

    * Orbital Energies and Occupations

         #    Occupation            Energy/Eh            Energy/eV
      -------------------------------------------------------------
         1        2.0000           -0.8741050             -23.7856
       ...           ...                  ...                  ...
       103        2.0000           -0.4497242             -12.2376
       104        2.0000           -0.4368644             -11.8877
       105        2.0000           -0.4348628             -11.8332
       106        2.0000           -0.4328483             -11.7784
       107        2.0000           -0.4310227             -11.7287
       108        2.0000           -0.4201822             -11.4337
       109        2.0000           -0.4136633             -11.2564
       110        2.0000           -0.4116345             -11.2011
       111        2.0000           -0.4085456             -11.1171
       112        2.0000           -0.4069766             -11.0744
       113        2.0000           -0.4026861             -10.9576
       114        2.0000           -0.3998653             -10.8809
       115        2.0000           -0.3948707             -10.7450 (HOMO)
       116                         -0.2789079              -7.5895 (LUMO)
       117                         -0.2745620              -7.4712
       118                         -0.2675392              -7.2801
       119                         -0.2626417              -7.1468
       120                         -0.2578305              -7.0159
       121                         -0.2529872              -6.8841
       122                         -0.2481016              -6.7512
       123                         -0.2294458              -6.2435
       124                         -0.2236152              -6.0849
       125                         -0.2115711              -5.7571
       126                         -0.2066197              -5.6224
       ...                                ...                  ...
       208                          0.6809598              18.5299
      -------------------------------------------------------------
                  HL-Gap            0.1159628 Eh            3.1555 eV

     #   Z          covCN         q      C6AA      Î±(0)
     1   6 C        2.977    -0.022    28.542     8.763
     2   6 C        3.336     0.486    17.294     6.587
     3   9 F        0.792    -0.200    11.232     3.959
     4   9 F        0.791    -0.206    11.296     3.970
     5   9 F        0.791    -0.225    11.493     4.005
     6   6 C        2.923    -0.018    28.449     8.747
     7   6 C        2.920    -0.020    28.515     8.757
     8   6 C        2.919    -0.016    28.408     8.740
     9   6 C        2.927    -0.021    28.533     8.760
    10   6 C        2.972     0.030    27.329     8.575
    11   6 C        3.831     0.046    19.775     6.327
    12   6 C        3.826     0.046    19.789     6.330
    13   6 C        2.970     0.027    27.407     8.587
    14   6 C        2.977    -0.021    28.531     8.762
    15   6 C        3.336     0.486    17.293     6.587
    16   9 F        0.792    -0.200    11.238     3.960
    17   9 F        0.791    -0.224    11.482     4.003
    18   9 F        0.791    -0.203    11.262     3.964
    19   6 C        2.924    -0.018    28.459     8.748
    20   6 C        2.920    -0.021    28.529     8.759
    21   6 C        2.919    -0.017    28.432     8.744
    22   6 C        2.928    -0.021    28.531     8.760
    23   7 N        2.765    -0.121    23.621     7.218
    24   6 C        2.776     0.274    22.363     7.745
    25   6 C        2.994    -0.019    28.476     8.754
    26   6 C        3.149     0.026    27.145     8.523
    27   6 C        3.755    -0.111    22.671     6.789
    28   6 C        3.124    -0.047    28.972     8.814
    29   6 C        2.933    -0.012    28.312     8.726
    30  16 S        2.317    -0.044   142.873    20.118
    31   8 O        0.860    -0.424    22.168     6.313
    32   6 C        3.761     0.083    19.239     6.253
    33   6 C        2.688     0.352    21.024     7.504
    34   8 O        1.659    -0.352    19.946     6.029
    35   8 O        0.856    -0.385    21.384     6.200
    36   7 N        2.766    -0.108    23.364     7.179
    37   6 C        2.771     0.275    22.355     7.744
    38   6 C        2.992    -0.028    28.699     8.788
    39   6 C        3.146     0.021    27.288     8.546
    40   6 C        3.755    -0.112    22.702     6.794
    41   6 C        3.121    -0.050    29.061     8.829
    42   6 C        2.933    -0.014    28.352     8.732
    43  16 S        2.312    -0.045   142.909    20.120
    44   8 O        0.860    -0.420    22.085     6.301
    45   1 H        0.926     0.069     2.100     2.266
    46   1 H        0.926     0.058     2.220     2.330
    47   1 H        0.926     0.056     2.248     2.344
    48   1 H        0.926     0.049     2.335     2.389
    49   1 H        0.924     0.065     2.141     2.288
    50   1 H        0.924     0.072     2.063     2.246
    51   1 H        0.926     0.070     2.087     2.259
    52   1 H        0.926     0.058     2.217     2.329
    53   1 H        0.926     0.055     2.260     2.351
    54   1 H        0.926     0.040     2.450     2.448
    55   1 H        0.925     0.055     2.261     2.351
    56   1 H        0.925     0.066     2.131     2.283
    57   1 H        0.924     0.056     2.246     2.343
    58   1 H        0.926     0.048     2.340     2.392
    59   1 H        0.926     0.053     2.281     2.362
    60   1 H        0.924     0.090     1.878     2.143
    61   1 H        0.804     0.347     0.596     1.213
    62   1 H        0.925     0.059     2.208     2.324
    63   1 H        0.924     0.052     2.292     2.368
    64   1 H        0.925     0.068     2.113     2.273
    65   1 H        0.926     0.050     2.315     2.379
    66   1 H        0.926     0.056     2.245     2.343

Wiberg/Mayer (AO) data.
largest (>0.10) Wiberg bond orders for each atom

     #   Z sym  total        # sym  WBO       # sym  WBO       # sym  WBO
 ---------------------------------------------------------------------------
     1   6 C    3.970 --     6 C    1.410    10 C    1.388     2 C    0.953
                             8 C    0.104
     2   6 C    3.820 --     3 F    0.957     1 C    0.953     4 F    0.944
                             5 F    0.927
     3   9 F    1.079 --     2 C    0.957
     4   9 F    1.074 --     2 C    0.944
     5   9 F    1.054 --     2 C    0.927
     6   6 C    3.987 --     7 C    1.446     1 C    1.410    45 H    0.965
                             9 C    0.109
     7   6 C    3.988 --     6 C    1.446     8 C    1.429    46 H    0.969
                            10 C    0.109
     8   6 C    3.990 --     9 C    1.453     7 C    1.429    47 H    0.969
                             1 C    0.104
     9   6 C    3.990 --     8 C    1.453    10 C    1.404    48 H    0.967
                             6 C    0.109
    10   6 C    3.986 --     9 C    1.404     1 C    1.388    11 C    0.997
                             7 C    0.109
    11   6 C    3.967 --    10 C    0.997    36 N    0.957    49 H    0.952
                            12 C    0.950
    12   6 C    3.966 --    13 C    0.993    23 N    0.959    50 H    0.951
                            11 C    0.950
    13   6 C    3.986 --    22 C    1.409    14 C    1.384    12 C    0.993
                            20 C    0.109
    14   6 C    3.971 --    19 C    1.415    13 C    1.384    15 C    0.952
                            21 C    0.105
    15   6 C    3.822 --    16 F    0.956    14 C    0.952    18 F    0.947
                            17 F    0.929
    16   9 F    1.078 --    15 C    0.956
    17   9 F    1.055 --    15 C    0.929
    18   9 F    1.078 --    15 C    0.947
    19   6 C    3.987 --    20 C    1.443    14 C    1.415    51 H    0.965
                            22 C    0.109
    20   6 C    3.988 --    19 C    1.443    21 C    1.433    52 H    0.969
                            13 C    0.109
    21   6 C    3.990 --    22 C    1.448    20 C    1.433    53 H    0.969
                            14 C    0.105
    22   6 C    3.991 --    21 C    1.448    13 C    1.409    54 H    0.964
                            19 C    0.109
    23   7 N    3.446 --    24 C    1.182    32 C    0.980    12 C    0.959
                            31 O    0.179
    24   6 C    3.948 --    31 O    1.663    23 N    1.182    25 C    1.017
    25   6 C    3.937 --    26 C    1.539    30 S    1.127    24 C    1.017
                            29 C    0.110
    26   6 C    3.985 --    25 C    1.539    28 C    1.248    27 C    1.028
    27   6 C    3.994 --    26 C    1.028    56 H    0.978    55 H    0.975
                            57 H    0.963
    28   6 C    3.987 --    29 C    1.634    26 C    1.248    58 H    0.963
    29   6 C    3.949 --    28 C    1.634    30 S    1.187    59 H    0.969
                            25 C    0.110
    30  16 S    2.617 --    29 C    1.187    25 C    1.127
    31   8 O    2.024 --    24 C    1.663    23 N    0.179
    32   6 C    3.970 --    36 N    1.003    23 N    0.980    60 H    0.924
                            33 C    0.900
    33   6 C    3.919 --    35 O    1.778    34 O    1.162    32 C    0.900
    34   8 O    2.234 --    33 C    1.162    61 H    0.853    35 O    0.185
    35   8 O    2.065 --    33 C    1.778    34 O    0.185
    36   7 N    3.459 --    37 C    1.189    32 C    1.003    11 C    0.957
                            44 O    0.182
    37   6 C    3.950 --    44 O    1.666    36 N    1.189    38 C    1.010
    38   6 C    3.933 --    39 C    1.537    43 S    1.130    37 C    1.010
                            42 C    0.110
    39   6 C    3.984 --    38 C    1.537    41 C    1.251    40 C    1.028
    40   6 C    3.993 --    39 C    1.028    64 H    0.978    62 H    0.971
                            63 H    0.966
    41   6 C    3.986 --    42 C    1.629    39 C    1.251    65 H    0.963
    42   6 C    3.949 --    41 C    1.629    43 S    1.196    66 H    0.968
                            38 C    0.110
    43  16 S    2.635 --    42 C    1.196    38 C    1.130
    44   8 O    2.029 --    37 C    1.666    36 N    0.182
    45   1 H    0.995 --     6 C    0.965
    46   1 H    0.996 --     7 C    0.969
    47   1 H    0.996 --     8 C    0.969
    48   1 H    0.997 --     9 C    0.967
    49   1 H    0.994 --    11 C    0.952
    50   1 H    0.994 --    12 C    0.951
    51   1 H    0.995 --    19 C    0.965
    52   1 H    0.996 --    20 C    0.969
    53   1 H    0.996 --    21 C    0.969
    54   1 H    0.998 --    22 C    0.964
    55   1 H    0.997 --    27 C    0.975
    56   1 H    0.995 --    27 C    0.978
    57   1 H    0.997 --    27 C    0.963
    58   1 H    0.997 --    28 C    0.963
    59   1 H    0.996 --    29 C    0.969
    60   1 H    0.991 --    32 C    0.924
    61   1 H    0.879 --    34 O    0.853
    62   1 H    0.996 --    40 C    0.971
    63   1 H    0.997 --    40 C    0.966
    64   1 H    0.995 --    40 C    0.978
    65   1 H    0.997 --    41 C    0.963
    66   1 H    0.996 --    42 C    0.968
 ---------------------------------------------------------------------------

molecular dipole:
                 x           y           z       tot (Debye)
 q only:        0.986       1.359      -0.678
   full:        1.157       1.612      -1.067       5.726

           -------------------------------------------------
          | TOTAL ENERGY             -132.532553940666 Eh   |
          | GRADIENT NORM               0.000840598072 Eh/Î± |
          | HOMO-LUMO GAP               3.155507172168 eV   |
           -------------------------------------------------

 * finished run on 2022/03/16 at 22:41:06.762
