   * xtb version 6.3.3 (4ae9cef) compiled by 'conda@95abc7406d43' on 2020-10-14
          program call               : xtb acid_145.xyz --opt --chrg 0 --uhf 0 --gfn 2
          number of atoms            :                    72
          number of electrons        :                   254
          charge                     :                     0
          spin                       :                   0.0

   ID    Z sym.   atoms
    1    6 C      1-22, 24-27, 32, 33, 35, 36, 40-43, 48, 49
    2    7 N      23, 39
    3    9 F      28-30, 44-46
    4    8 O      31, 34, 37, 38, 47, 50
    5    1 H      51-72

          :  Hamiltonian                  GFN2-xTB          :
 * total energy  :  -146.9624655 Eh     change       -0.3299760E-08 Eh
 * total energy  :  -146.9803263 Eh     change       -0.1786079E-01 Eh
 * total energy  :  -146.9862120 Eh     change       -0.5885756E-02 Eh
 * total energy  :  -146.9885206 Eh     change       -0.2308576E-02 Eh
 * total energy  :  -146.9906392 Eh     change       -0.2118546E-02 Eh
 * total energy  :  -146.9922437 Eh     change       -0.1604529E-02 Eh
 * total energy  :  -146.9931988 Eh     change       -0.9551246E-03 Eh
 * total energy  :  -146.9943218 Eh     change       -0.1123035E-02 Eh
 * total energy  :  -146.9950747 Eh     change       -0.7528159E-03 Eh
 * total energy  :  -146.9958974 Eh     change       -0.8227139E-03 Eh
 * total energy  :  -147.0098898 Eh     change       -0.1779681E-04 Eh
 * total energy  :  -147.0099159 Eh     change       -0.2615702E-04 Eh
 * total energy  :  -147.0099270 Eh     change       -0.1110307E-04 Eh
 * total energy  :  -147.0099253 Eh     change        0.1776369E-05 Eh
 * total energy  :  -147.0099371 Eh     change       -0.1185470E-04 Eh
 * total energy  :  -147.0099493 Eh     change       -0.1216461E-04 Eh
 * total energy  :  -147.0099568 Eh     change       -0.7521274E-05 Eh
 * total energy  :  -147.0099769 Eh     change       -0.2012027E-04 Eh
 * total energy  :  -147.0099815 Eh     change       -0.4574045E-05 Eh
   *** GEOMETRY OPTIMIZATION CONVERGED AFTER 122 ITERATIONS ***

 final structure:
================
72
 xtb: 6.3.3 (4ae9cef)
C        -1.59408393109575   -2.96527186199989   -0.92215872604097
C        -2.15093423030016   -3.78133093085214   -1.86330804756729
C        -2.81029354615624   -3.24421680018774   -2.98947026666662
C        -3.38370405532614   -4.05816229017599   -3.98736470888227
C        -4.02178616334614   -3.49928605076413   -5.05945980321586
C        -4.11606873066904   -2.10399817506806   -5.18148170180297
C        -3.57145933936379   -1.28798217636866   -4.22967597487184
C        -2.90655894815674   -1.83435445445160   -3.11317548859204
C        -2.32940629073918   -1.01690477062383   -2.11951335771329
C        -1.66662163316884   -1.56245833985358   -1.05345786581841
C        -1.01423631255061   -0.71533377618318    0.01446566692093
C         0.49537334410458   -1.02367027207418    0.17850684749491
C         0.92300327295071   -1.17785818385680    1.61541878820753
C         1.54617641084309   -2.32367420170087    2.03263494822156
C         1.93969252572173   -2.48749009088327    3.37533509564817
C         2.58203708296974   -3.65876304146593    3.82814664173089
C         2.95010717865911   -3.78940514827160    5.13763316145753
C         2.69252389112678   -2.75692490449168    6.05353831997022
C         2.07354774350841   -1.60901721369905    5.64464469016534
C         1.68203282924026   -1.44214131998892    4.30022403070641
C         1.04289724501520   -0.27180792987848    3.84163583170972
C         0.67276755328411   -0.14161711562514    2.53490778104726
N         1.13927059367222    0.13230766367511   -0.45858978903307
C         2.48917234612687    0.23205687316120   -0.56433848299437
C         2.96812248931990    1.48390883495014   -1.22787448503795
C         3.03501902701613    2.76073629739393   -0.73065711699833
C         2.57697900083995    3.33011106577977    0.57004309581133
F         2.24937097853718    2.36747442117443    1.43736264576646
F         1.45945053669452    4.08370844688337    0.41980962588063
F         3.48299697928414    4.11388368915524    1.14998834152931
O         3.59775391706227    3.59180307123855   -1.62746524870933
C         3.90387211727580    2.86042666899126   -2.70177284141045
C         3.54948031545218    1.55815781255808   -2.52158060061915
O         3.24274912240277   -0.64638825083199   -0.21896891617556
C         0.16692554684045    1.08031132705353   -0.95526899597010
C         0.02694683579835    0.96769727716780   -2.51001074431874
O         0.53654649090676   -0.12420652501672   -3.05926582048351
O        -0.48509633148377    1.83319738477568   -3.15667079412250
N        -1.04902240156719    0.70886316123834   -0.28509646384498
C        -1.86205151761520    1.53316239301003    0.44524553192160
C        -1.68035708145470    2.99119316831944    0.24379361025492
C        -1.69494693440156    3.92983796331646    1.24936580637267
C        -1.76216594460949    3.76890772995080    2.73414559751765
F        -1.23504355017416    4.82405502894352    3.36782019388525
F        -3.01334166229410    3.63557469979236    3.19256049976757
F        -1.08073848910871    2.69127833215147    3.14702179985830
O        -1.59288320575867    5.16701137518792    0.74664161410957
C        -1.52914141598644    5.04760756877003   -0.58267909458528
C        -1.57719177665155    3.74094645234718   -0.96036660404597
O        -2.70393130415651    1.08954117967640    1.19148175168250
H        -1.10386008575209   -3.38446874601354   -0.05530678899177
H        -2.09687178792439   -4.85486891700766   -1.75531953473309
H        -3.30990387460788   -5.13163349454333   -3.88806784329052
H        -4.45953286534410   -4.12772076053558   -5.82098433174481
H        -4.62252632103021   -1.68098553887912   -6.03634025239642
H        -3.63588756811720   -0.21347876761899   -4.31970621192309
H        -2.43350829053062    0.05398517233645   -2.21695379413804
H        -1.54753998403305   -0.86490248557513    0.96127276264976
H         0.77568478224812   -1.93392516586654   -0.36714435681983
H         1.75417623981701   -3.11983866512174    1.33163500046819
H         2.77963723841299   -4.44985150447813    3.11900981960099
H         3.44233041153453   -4.68843549686442    5.47860269840179
H         2.98969016881557   -2.87892164043039    7.08481291089152
H         1.87396403082774   -0.81084589784138    6.34485426168603
H         0.84400922369649    0.52774906363548    4.53868983744043
H         0.18338006470072    0.76101468894520    2.20747747091888
H         4.36798589515673    3.36648599548151   -3.52462035530761
H         3.67748797918408    0.74545238526693   -3.20520718064564
H         0.42206362490354    2.12237422303201   -0.73336024725135
H         0.90548858768322   -0.74062172688969   -2.40583657989546
H        -1.44987992651868    5.95101573487835   -1.15346198207415
H        -1.55013612168407    3.35092548174732   -1.95674728094083

          :  Hamiltonian                  GFN2-xTB          :
         :: total energy            -147.009981496765 Eh    ::
         :: gradient norm              0.000527613445 Eh/a0 ::
         :: HOMO-LUMO gap              2.597893051560 eV    ::
         :: SCC energy              -148.798149176459 Eh    ::
         :: -> dispersion             -0.106526036893 Eh    ::
         :: repulsion energy           1.784935796002 Eh    ::

    * Orbital Energies and Occupations

         #    Occupation            Energy/Eh            Energy/eV
      -------------------------------------------------------------
         1        2.0000           -0.9081275             -24.7114
       ...           ...                  ...                  ...
       115        2.0000           -0.4395560             -11.9609
       116        2.0000           -0.4393921             -11.9565
       117        2.0000           -0.4332759             -11.7900
       118        2.0000           -0.4303111             -11.7094
       119        2.0000           -0.4298567             -11.6970
       120        2.0000           -0.4277449             -11.6395
       121        2.0000           -0.4228909             -11.5074
       122        2.0000           -0.4209253             -11.4540
       123        2.0000           -0.4182953             -11.3824
       124        2.0000           -0.4126344             -11.2284
       125        2.0000           -0.4035770             -10.9819
       126        2.0000           -0.3933395             -10.7033
       127        2.0000           -0.3833830             -10.4324 (HOMO)
       128                         -0.2879122              -7.8345 (LUMO)
       129                         -0.2829563              -7.6996
       130                         -0.2784176              -7.5761
       131                         -0.2737765              -7.4498
       132                         -0.2648764              -7.2077
       133                         -0.2555988              -6.9552
       134                         -0.2449955              -6.6667
       135                         -0.2418976              -6.5824
       136                         -0.2351291              -6.3982
       137                         -0.2202323              -5.9928
       138                         -0.2029136              -5.5216
       ...                                ...                  ...
       222                          0.6937645              18.8783
      -------------------------------------------------------------
                  HL-Gap            0.0954708 Eh            2.5979 eV

     #   Z          covCN         q      C6AA      Î±(0)
     1   6 C        2.920    -0.042    29.054     8.839
     2   6 C        2.917    -0.033    28.823     8.804
     3   6 C        2.987     0.014    27.701     8.634
     4   6 C        2.918    -0.034    28.837     8.806
     5   6 C        2.916    -0.027    28.680     8.782
     6   6 C        2.916    -0.026    28.663     8.779
     7   6 C        2.919    -0.032    28.792     8.799
     8   6 C        2.988     0.017    27.622     8.621
     9   6 C        2.921    -0.040    28.992     8.830
    10   6 C        2.967    -0.008    28.214     8.713
    11   6 C        3.836     0.032    20.014     6.365
    12   6 C        3.818     0.040    19.886     6.347
    13   6 C        2.969     0.001    28.013     8.682
    14   6 C        2.923    -0.035    28.874     8.812
    15   6 C        2.987     0.017    27.626     8.622
    16   6 C        2.918    -0.033    28.826     8.804
    17   6 C        2.916    -0.028    28.706     8.786
    18   6 C        2.916    -0.028    28.699     8.785
    19   6 C        2.918    -0.032    28.810     8.802
    20   6 C        2.988     0.017    27.632     8.623
    21   6 C        2.918    -0.030    28.740     8.791
    22   6 C        2.919    -0.033    28.833     8.805
    23   7 N        2.764    -0.134    23.899     7.261
    24   6 C        2.754     0.272    22.395     7.749
    25   6 C        3.071    -0.041    28.940     8.821
    26   6 C        3.139     0.071    26.198     8.377
    27   6 C        3.330     0.489    17.330     6.606
    28   9 F        0.792    -0.194    11.176     3.949
    29   9 F        0.791    -0.214    11.379     3.985
    30   9 F        0.791    -0.178    11.014     3.920
    31   8 O        1.730    -0.142    16.437     5.474
    32   6 C        3.076     0.085    26.034     8.365
    33   6 C        3.021    -0.055    29.329     8.883
    34   8 O        0.859    -0.393    21.536     6.222
    35   6 C        3.760     0.071    19.440     6.286
    36   6 C        2.684     0.347    21.099     7.517
    37   8 O        1.659    -0.342    19.752     6.000
    38   8 O        0.856    -0.352    20.748     6.107
    39   7 N        2.762    -0.109    23.381     7.182
    40   6 C        2.759     0.276    22.329     7.738
    41   6 C        3.072    -0.040    28.918     8.817
    42   6 C        3.143     0.088    25.805     8.312
    43   6 C        3.330     0.492    17.297     6.600
    44   9 F        0.792    -0.191    11.141     3.943
    45   9 F        0.791    -0.188    11.108     3.937
    46   9 F        0.791    -0.195    11.189     3.951
    47   8 O        1.729    -0.135    16.330     5.456
    48   6 C        3.084     0.082    26.080     8.372
    49   6 C        3.017    -0.068    29.678     8.936
    50   8 O        0.859    -0.394    21.562     6.226
    51   1 H        0.926     0.034     2.530     2.487
    52   1 H        0.926     0.041     2.438     2.442
    53   1 H        0.926     0.036     2.503     2.474
    54   1 H        0.926     0.036     2.504     2.474
    55   1 H        0.926     0.037     2.489     2.467
    56   1 H        0.926     0.040     2.449     2.447
    57   1 H        0.926     0.034     2.526     2.485
    58   1 H        0.924     0.096     1.819     2.109
    59   1 H        0.924     0.053     2.286     2.364
    60   1 H        0.926     0.037     2.484     2.465
    61   1 H        0.926     0.035     2.519     2.482
    62   1 H        0.926     0.034     2.533     2.489
    63   1 H        0.926     0.034     2.524     2.484
    64   1 H        0.926     0.038     2.475     2.460
    65   1 H        0.926     0.049     2.327     2.385
    66   1 H        0.926     0.036     2.496     2.471
    67   1 H        0.926     0.088     1.894     2.152
    68   1 H        0.927     0.076     2.016     2.220
    69   1 H        0.924     0.067     2.117     2.275
    70   1 H        0.804     0.340     0.613     1.230
    71   1 H        0.926     0.084     1.942     2.179
    72   1 H        0.926     0.090     1.880     2.144

Wiberg/Mayer (AO) data.
largest (>0.10) Wiberg bond orders for each atom

     #   Z sym  total        # sym  WBO       # sym  WBO       # sym  WBO
 ---------------------------------------------------------------------------
     1   6 C    3.990 --     2 C    1.569    10 C    1.286    51 H    0.968
     2   6 C    3.991 --     1 C    1.569     3 C    1.273    52 H    0.967
                             9 C    0.112
     3   6 C    3.990 --     4 C    1.283     2 C    1.273     8 C    1.253
     4   6 C    3.992 --     5 C    1.555     3 C    1.283    53 H    0.968
                             7 C    0.118
     5   6 C    3.990 --     4 C    1.555     6 C    1.323    54 H    0.971
     6   6 C    3.992 --     7 C    1.556     5 C    1.323    55 H    0.971
     7   6 C    3.989 --     6 C    1.556     8 C    1.281    56 H    0.968
                             4 C    0.118
     8   6 C    3.990 --     7 C    1.281     9 C    1.275     3 C    1.253
     9   6 C    3.990 --    10 C    1.533     8 C    1.275    57 H    0.962
                             2 C    0.112
    10   6 C    3.983 --     9 C    1.533     1 C    1.286    11 C    0.986
    11   6 C    3.952 --    10 C    0.986    39 N    0.964    12 C    0.955
                            58 H    0.938
    12   6 C    3.952 --    13 C    0.987    11 C    0.955    59 H    0.954
                            23 N    0.939
    13   6 C    3.982 --    14 C    1.525    22 C    1.296    12 C    0.987
    14   6 C    3.988 --    13 C    1.525    15 C    1.282    60 H    0.965
                            21 C    0.115
    15   6 C    3.990 --    14 C    1.282    16 C    1.279    20 C    1.251
    16   6 C    3.990 --    17 C    1.558    15 C    1.279    61 H    0.968
                            19 C    0.118
    17   6 C    3.992 --    16 C    1.558    18 C    1.320    62 H    0.971
    18   6 C    3.990 --    19 C    1.557    17 C    1.320    63 H    0.971
    19   6 C    3.991 --    18 C    1.557    20 C    1.281    64 H    0.968
                            16 C    0.118
    20   6 C    3.990 --    19 C    1.281    21 C    1.278    15 C    1.251
    21   6 C    3.990 --    22 C    1.562    20 C    1.278    65 H    0.967
                            14 C    0.115
    22   6 C    3.992 --    21 C    1.562    13 C    1.296    66 H    0.967
    23   7 N    3.471 --    24 C    1.209    35 C    0.981    12 C    0.939
                            34 O    0.200
    24   6 C    3.958 --    34 O    1.709    23 N    1.209    25 C    0.958
    25   6 C    3.978 --    26 C    1.521    33 C    1.277    24 C    0.958
    26   6 C    3.897 --    25 C    1.521    31 O    1.127    27 C    0.958
                            32 C    0.146
    27   6 C    3.847 --    30 F    0.968    26 C    0.958    28 F    0.958
                            29 F    0.925
    28   9 F    1.083 --    27 C    0.958
    29   9 F    1.061 --    27 C    0.925
    30   9 F    1.101 --    27 C    0.968
    31   8 O    2.482 --    32 C    1.157    26 C    1.127
    32   6 C    3.903 --    33 C    1.597    31 O    1.157    67 H    0.960
                            26 C    0.146
    33   6 C    3.980 --    32 C    1.597    25 C    1.277    68 H    0.971
    34   8 O    2.047 --    24 C    1.709    23 N    0.200
    35   6 C    3.967 --    39 N    0.995    23 N    0.981    69 H    0.940
                            36 C    0.889
    36   6 C    3.924 --    38 O    1.790    37 O    1.174    35 C    0.889
    37   8 O    2.248 --    36 C    1.174    70 H    0.846    38 O    0.174
    38   8 O    2.091 --    36 C    1.790    37 O    0.174
    39   7 N    3.457 --    40 C    1.178    35 C    0.995    11 C    0.964
                            50 O    0.187
    40   6 C    3.953 --    50 O    1.708    39 N    1.178    41 C    0.990
    41   6 C    3.978 --    42 C    1.507    49 C    1.267    40 C    0.990
    42   6 C    3.906 --    41 C    1.507    47 O    1.146    43 C    0.955
                            48 C    0.144
    43   6 C    3.852 --    44 F    0.957    42 C    0.955    45 F    0.953
                            46 F    0.951
    44   9 F    1.083 --    43 C    0.957
    45   9 F    1.090 --    43 C    0.953
    46   9 F    1.080 --    43 C    0.951
    47   8 O    2.492 --    48 C    1.151    42 C    1.146
    48   6 C    3.902 --    49 C    1.602    47 O    1.151    71 H    0.962
                            42 C    0.144
    49   6 C    3.977 --    48 C    1.602    41 C    1.267    72 H    0.961
    50   8 O    2.048 --    40 C    1.708    39 N    0.187
    51   1 H    0.998 --     1 C    0.968
    52   1 H    0.997 --     2 C    0.967
    53   1 H    0.998 --     4 C    0.968
    54   1 H    0.998 --     5 C    0.971
    55   1 H    0.998 --     6 C    0.971
    56   1 H    0.998 --     7 C    0.968
    57   1 H    0.998 --     9 C    0.962
    58   1 H    0.988 --    11 C    0.938
    59   1 H    0.997 --    12 C    0.954
    60   1 H    0.998 --    14 C    0.965
    61   1 H    0.998 --    16 C    0.968
    62   1 H    0.998 --    17 C    0.971
    63   1 H    0.998 --    18 C    0.971
    64   1 H    0.998 --    19 C    0.968
    65   1 H    0.997 --    21 C    0.967
    66   1 H    0.998 --    22 C    0.967
    67   1 H    0.991 --    32 C    0.960
    68   1 H    0.994 --    33 C    0.971
    69   1 H    0.995 --    35 C    0.940
    70   1 H    0.885 --    37 O    0.846
    71   1 H    0.992 --    48 C    0.962
    72   1 H    0.992 --    49 C    0.961
 ---------------------------------------------------------------------------

molecular dipole:
                 x           y           z       tot (Debye)
 q only:        0.686      -1.321      -2.372
   full:        0.957      -0.989      -2.303       6.820

           -------------------------------------------------
          | TOTAL ENERGY             -147.009981496765 Eh   |
          | GRADIENT NORM               0.000527613445 Eh/Î± |
          | HOMO-LUMO GAP               2.597893051560 eV   |
           -------------------------------------------------

 * finished run on 2022/03/16 at 21:50:49.158
