   * xtb version 6.3.3 (4ae9cef) compiled by 'conda@95abc7406d43' on 2020-10-14
          program call               : xtb acid_368.xyz --opt --chrg 0 --uhf 0 --gfn 2
          number of atoms            :                    68
          number of electrons        :                   202
          charge                     :                     0
          spin                       :                   0.0

   ID    Z sym.   atoms
    1    6 C      1-14, 16-18, 20-24, 26, 27, 31-37, 39
    2    7 N      15, 30
    3    8 O      19, 25, 28, 29, 38, 40
    4    1 H      41-68

          :  Hamiltonian                  GFN2-xTB          :
 * total energy  :  -113.0527154 Eh     change       -0.9673613E-09 Eh
 * total energy  :  -113.0666785 Eh     change       -0.1396306E-01 Eh
 * total energy  :  -113.0707840 Eh     change       -0.4105505E-02 Eh
 * total energy  :  -113.0719388 Eh     change       -0.1154839E-02 Eh
 * total energy  :  -113.0726651 Eh     change       -0.7262388E-03 Eh
 * total energy  :  -113.0730124 Eh     change       -0.3472938E-03 Eh
 * total energy  :  -113.0732580 Eh     change       -0.2455899E-03 Eh
 * total energy  :  -113.0735021 Eh     change       -0.2441014E-03 Eh
 * total energy  :  -113.0737577 Eh     change       -0.2556542E-03 Eh
 * total energy  :  -113.0739893 Eh     change       -0.2315736E-03 Eh
 * total energy  :  -113.0804957 Eh     change       -0.1310778E-04 Eh
 * total energy  :  -113.0805059 Eh     change       -0.1018281E-04 Eh
 * total energy  :  -113.0805142 Eh     change       -0.8348217E-05 Eh
 * total energy  :  -113.0805146 Eh     change       -0.3288539E-06 Eh
 * total energy  :  -113.0805045 Eh     change        0.1002398E-04 Eh
 * total energy  :  -113.0805199 Eh     change       -0.1540201E-04 Eh
 * total energy  :  -113.0805296 Eh     change       -0.9682153E-05 Eh
 * total energy  :  -113.0805347 Eh     change       -0.5060101E-05 Eh
 * total energy  :  -113.0805385 Eh     change       -0.3830467E-05 Eh
   *** GEOMETRY OPTIMIZATION CONVERGED AFTER 94 ITERATIONS ***

 final structure:
================
68
 xtb: 6.3.3 (4ae9cef)
C         1.39325435883518    2.70899180060193   -1.75682011207681
C         2.10957331751676    3.59050877472901   -2.54611032946555
C         2.72967014372227    4.68973735234267   -1.97657081692464
C         2.63196487549337    4.90383831882159   -0.61257315251063
C         1.91851189669682    4.02148592589650    0.17879959767092
C         1.29589814878079    2.91820456480186   -0.38709941527466
C         0.51241796716760    1.96439799421795    0.47917923793339
C        -0.96842906530112    1.84458918815022    0.07317754560387
C        -1.88602852786424    1.98799412467072    1.26671018218042
C        -1.95343976200341    3.22479899071909    1.89923416168880
C        -2.76506002574427    3.40386412528909    3.00348689531324
C        -3.52104009925969    2.34818238213212    3.48678817213181
C        -3.46159740757743    1.11818793139224    2.85676406330846
C        -2.64669744979472    0.93533317099273    1.75136382085419
N        -1.05532395991422    0.54561914618654   -0.56905011374279
C        -1.99291391499708    0.32567168856534   -1.52870234130303
C        -2.04315658225323   -1.04403490472481   -2.11883540617987
C        -2.25095872706471   -2.18968541187079   -1.33592431327778
O        -2.36309666373975   -1.99952543707551    0.00639681130498
C        -2.35196296597792   -3.13094169246418    0.85048367917557
C        -2.33461736242784   -3.42846396845626   -1.96046877993926
C        -2.22184493673550   -3.52694007195771   -3.33592125146565
C        -2.04134860116808   -2.39680398477015   -4.11298954829063
C        -1.96862215717620   -1.15946636197401   -3.50045906517698
O        -2.73104844600678    1.21551829944018   -1.90033646750266
C        -0.00067833520713   -0.32734216130441   -0.12267870392866
C         0.55829164737305   -1.21318029054409   -1.25045870997211
O         1.02498093588154   -0.49310185664728   -2.26518575896886
O         0.59894593574484   -2.41206795438910   -1.21797091322449
N         1.00257218488127    0.59416448006201    0.37213753983498
C         2.24654700735255    0.28291125935621    0.80642574963428
C         2.60875379722833   -1.16485469783252    0.69538084049154
C         3.61027645932808   -1.51782499472705   -0.20036778823846
C         3.96359880396957   -2.84222798824116   -0.37857631073994
C         3.32112006454003   -3.82724513163601    0.35139385766631
C         2.35087364785079   -3.48565708136250    1.27440258500025
C         1.99210876006792   -2.15712175924034    1.46252781112484
O         0.97438264622334   -1.88642414992569    2.35234284320876
C         1.28029356595496   -1.01744736179867    3.42706107951610
O         3.00879131808121    1.12913496904734    1.23172337210326
H         0.91394448185085    1.85249197301921   -2.20528330381556
H         2.18356653912142    3.41857021385978   -3.61004575549154
H         3.29020570275443    5.37601661047439   -2.59417130909359
H         3.11652968389578    5.75757995094232   -0.16235606415209
H         1.85403435132988    4.18303275886637    1.24471932064164
H         0.60706067678967    2.28134266579191    1.52584464088681
H        -1.23993860407661    2.60475873653712   -0.66927465293270
H        -1.36905046897441    4.04927863472150    1.51562202285889
H        -2.81209184921131    4.36927973846095    3.48546808328464
H        -4.15860725273566    2.48778521844534    4.34721619786144
H        -4.05586117730015    0.29407245129465    3.22385590673663
H        -2.62165857001327   -0.02300737619286    1.25679936200369
H        -1.46193524118658   -3.74041436255915    0.67215477590703
H        -2.32327610128642   -2.73946375771850    1.86647584376182
H        -3.25418849912126   -3.73612933483104    0.72173679889505
H        -2.48446322695548   -4.32404546154562   -1.38010420999701
H        -2.28314884156143   -4.49966863508492   -3.80057154201304
H        -1.96336587757620   -2.47754050283824   -5.18615883185774
H        -1.83994152399383   -0.25972409815586   -4.08354819540846
H        -0.34121864524885   -0.99977777022626    0.68426603618852
H         1.38520660030926   -1.06680245926698   -2.96101284943479
H         4.09323292723880   -0.73515851875969   -0.76749054194827
H         4.73294420353127   -3.10409344837139   -1.08894593819657
H         3.58295820927805   -4.86481848982347    0.20964033179509
H         1.84769233299143   -4.24073900949891    1.85819311554025
H         1.95301778377013   -1.51042310964643    4.13691610116625
H         1.74139134688237   -0.08570119887866    3.09530010546248
H         0.33199854703479   -0.79948264548169    3.91607400380770

          :  Hamiltonian                  GFN2-xTB          :
         :: total energy            -113.080538501778 Eh    ::
         :: gradient norm              0.000254596993 Eh/a0 ::
         :: HOMO-LUMO gap              3.145080499944 eV    ::
         :: SCC energy              -114.735568145668 Eh    ::
         :: -> dispersion             -0.097985442885 Eh    ::
         :: repulsion energy           1.650836502564 Eh    ::

    * Orbital Energies and Occupations

         #    Occupation            Energy/Eh            Energy/eV
      -------------------------------------------------------------
         1        2.0000           -0.7746487             -21.0793
       ...           ...                  ...                  ...
        89        2.0000           -0.4214524             -11.4683
        90        2.0000           -0.4192031             -11.4071
        91        2.0000           -0.4159525             -11.3186
        92        2.0000           -0.4098677             -11.1531
        93        2.0000           -0.4071100             -11.0780
        94        2.0000           -0.4062249             -11.0539
        95        2.0000           -0.4038778             -10.9901
        96        2.0000           -0.4035194             -10.9803
        97        2.0000           -0.3985462             -10.8450
        98        2.0000           -0.3952445             -10.7552
        99        2.0000           -0.3918969             -10.6641
       100        2.0000           -0.3905339             -10.6270
       101        2.0000           -0.3887447             -10.5783 (HOMO)
       102                         -0.2731651              -7.4332 (LUMO)
       103                         -0.2486389              -6.7658
       104                         -0.2432141              -6.6182
       105                         -0.2353119              -6.4032
       106                         -0.2301330              -6.2622
       107                         -0.2256196              -6.1394
       108                         -0.2251780              -6.1274
       109                         -0.2222993              -6.0491
       110                         -0.2217043              -6.0329
       111                         -0.2085912              -5.6761
       112                         -0.1969714              -5.3599
       ...                                ...                  ...
       188                          0.6662925              18.1307
      -------------------------------------------------------------
                  HL-Gap            0.1155796 Eh            3.1451 eV

     #   Z          covCN         q      C6AA      Î±(0)
     1   6 C        2.923    -0.035    28.867     8.811
     2   6 C        2.920    -0.028    28.701     8.785
     3   6 C        2.920    -0.029    28.723     8.789
     4   6 C        2.920    -0.026    28.656     8.778
     5   6 C        2.924    -0.027    28.671     8.781
     6   6 C        2.973     0.009    27.817     8.651
     7   6 C        3.823     0.045    19.807     6.333
     8   6 C        3.832     0.038    19.915     6.349
     9   6 C        2.972     0.005    27.908     8.665
    10   6 C        2.925    -0.037    28.917     8.819
    11   6 C        2.919    -0.028    28.691     8.784
    12   6 C        2.920    -0.031    28.772     8.796
    13   6 C        2.921    -0.028    28.689     8.783
    14   6 C        2.922    -0.035    28.863     8.810
    15   7 N        2.765    -0.102    23.240     7.160
    16   6 C        2.764     0.275    22.357     7.743
    17   6 C        2.974    -0.047    29.165     8.858
    18   6 C        2.866     0.147    24.795     8.162
    19   8 O        1.705    -0.277    18.599     5.823
    20   6 C        3.643     0.037    20.295     6.476
    21   6 C        2.917    -0.059    29.459     8.900
    22   6 C        2.921    -0.026    28.641     8.776
    23   6 C        2.917    -0.041    29.031     8.835
    24   6 C        2.926    -0.024    28.612     8.772
    25   8 O        0.860    -0.423    22.150     6.310
    26   6 C        3.751     0.089    19.167     6.244
    27   6 C        2.687     0.355    20.968     7.494
    28   8 O        1.659    -0.354    19.984     6.035
    29   8 O        0.856    -0.399    21.653     6.239
    30   7 N        2.768    -0.112    23.435     7.190
    31   6 C        2.764     0.274    22.373     7.746
    32   6 C        2.974    -0.046    29.134     8.854
    33   6 C        2.926    -0.026    28.645     8.777
    34   6 C        2.918    -0.033    28.821     8.804
    35   6 C        2.920    -0.023    28.584     8.767
    36   6 C        2.920    -0.043    29.070     8.842
    37   6 C        2.867     0.142    24.911     8.181
    38   8 O        1.703    -0.306    19.105     5.901
    39   6 C        3.644     0.041    20.215     6.463
    40   8 O        0.859    -0.433    22.349     6.338
    41   1 H        0.926     0.043     2.406     2.426
    42   1 H        0.926     0.033     2.545     2.494
    43   1 H        0.926     0.034     2.529     2.487
    44   1 H        0.926     0.037     2.493     2.469
    45   1 H        0.926     0.038     2.474     2.460
    46   1 H        0.924     0.058     2.221     2.331
    47   1 H        0.924     0.083     1.953     2.185
    48   1 H        0.926     0.032     2.558     2.501
    49   1 H        0.926     0.036     2.509     2.477
    50   1 H        0.926     0.034     2.531     2.488
    51   1 H        0.926     0.033     2.538     2.491
    52   1 H        0.926     0.048     2.346     2.395
    53   1 H        0.924     0.054     2.276     2.359
    54   1 H        0.925     0.066     2.135     2.285
    55   1 H        0.924     0.045     2.387     2.416
    56   1 H        0.926     0.047     2.362     2.403
    57   1 H        0.926     0.043     2.411     2.428
    58   1 H        0.926     0.041     2.434     2.440
    59   1 H        0.926     0.052     2.299     2.371
    60   1 H        0.923     0.086     1.921     2.167
    61   1 H        0.804     0.342     0.607     1.224
    62   1 H        0.926     0.046     2.364     2.405
    63   1 H        0.926     0.044     2.390     2.418
    64   1 H        0.926     0.048     2.349     2.397
    65   1 H        0.926     0.056     2.243     2.342
    66   1 H        0.924     0.041     2.439     2.442
    67   1 H        0.924     0.044     2.399     2.422
    68   1 H        0.925     0.059     2.214     2.327

Wiberg/Mayer (AO) data.
largest (>0.10) Wiberg bond orders for each atom

     #   Z sym  total        # sym  WBO       # sym  WBO       # sym  WBO
 ---------------------------------------------------------------------------
     1   6 C    3.991 --     2 C    1.447     6 C    1.412    41 H    0.965
                             4 C    0.112
     2   6 C    3.992 --     1 C    1.447     3 C    1.437    42 H    0.971
                             5 C    0.111
     3   6 C    3.991 --     4 C    1.440     2 C    1.437    43 H    0.971
                             6 C    0.109
     4   6 C    3.992 --     5 C    1.443     3 C    1.440    44 H    0.971
                             1 C    0.112
     5   6 C    3.990 --     4 C    1.443     6 C    1.415    45 H    0.968
                             2 C    0.111
     6   6 C    3.985 --     5 C    1.415     1 C    1.412     7 C    0.987
                             3 C    0.109
     7   6 C    3.961 --     6 C    0.987     8 C    0.957    46 H    0.954
                            30 N    0.951
     8   6 C    3.961 --     9 C    0.983    15 N    0.966     7 C    0.957
                            47 H    0.944
     9   6 C    3.985 --    14 C    1.424    10 C    1.403     8 C    0.983
                            12 C    0.110
    10   6 C    3.991 --    11 C    1.454     9 C    1.403    48 H    0.969
                            13 C    0.113
    11   6 C    3.991 --    10 C    1.454    12 C    1.431    49 H    0.971
                            14 C    0.110
    12   6 C    3.991 --    13 C    1.447    11 C    1.431    50 H    0.971
                             9 C    0.110
    13   6 C    3.992 --    12 C    1.447    14 C    1.435    51 H    0.971
                            10 C    0.113
    14   6 C    3.990 --    13 C    1.435     9 C    1.424    52 H    0.962
                            11 C    0.110
    15   7 N    3.471 --    16 C    1.204    26 C    0.990     8 C    0.966
                            25 O    0.189
    16   6 C    3.948 --    25 O    1.683    15 N    1.204    17 C    0.975
    17   6 C    3.983 --    24 C    1.414    18 C    1.314    16 C    0.975
                            22 C    0.103
    18   6 C    3.937 --    21 C    1.377    17 C    1.314    19 O    1.065
    19   8 O    2.234 --    18 C    1.065    20 C    0.975
    20   6 C    3.938 --    54 H    0.979    53 H    0.977    55 H    0.977
                            19 O    0.975
    21   6 C    3.988 --    22 C    1.441    18 C    1.377    56 H    0.964
                            24 C    0.103
    22   6 C    3.991 --    21 C    1.441    23 C    1.434    57 H    0.971
                            17 C    0.103
    23   6 C    3.991 --    24 C    1.436    22 C    1.434    58 H    0.970
    24   6 C    3.988 --    23 C    1.436    17 C    1.414    59 H    0.968
                            21 C    0.103
    25   8 O    2.015 --    16 C    1.683    15 N    0.189
    26   6 C    3.966 --    15 N    0.990    30 N    0.975    60 H    0.930
                            27 C    0.919
    27   6 C    3.919 --    29 O    1.768    28 O    1.156    26 C    0.919
    28   8 O    2.227 --    27 C    1.156    61 H    0.856    29 O    0.179
    29   8 O    2.051 --    27 C    1.768    28 O    0.179
    30   7 N    3.474 --    31 C    1.223    26 C    0.975     7 C    0.951
                            40 O    0.194
    31   6 C    3.949 --    40 O    1.671    30 N    1.223    32 C    0.962
    32   6 C    3.986 --    33 C    1.407    37 C    1.352    31 C    0.962
                            35 C    0.106
    33   6 C    3.990 --    34 C    1.442    32 C    1.407    62 H    0.969
                            36 C    0.107
    34   6 C    3.991 --    33 C    1.442    35 C    1.433    63 H    0.970
                            37 C    0.102
    35   6 C    3.990 --    36 C    1.444    34 C    1.433    64 H    0.970
                            32 C    0.106
    36   6 C    3.989 --    35 C    1.444    37 C    1.392    65 H    0.967
                            33 C    0.107
    37   6 C    3.942 --    36 C    1.392    32 C    1.352    38 O    1.018
                            34 C    0.102
    38   8 O    2.139 --    37 C    1.018    39 C    0.968
    39   6 C    3.942 --    68 H    0.981    66 H    0.979    67 H    0.973
                            38 O    0.968
    40   8 O    2.007 --    31 C    1.671    30 N    0.194
    41   1 H    0.998 --     1 C    0.965
    42   1 H    0.999 --     2 C    0.971
    43   1 H    0.998 --     3 C    0.971
    44   1 H    0.998 --     4 C    0.971
    45   1 H    0.999 --     5 C    0.968
    46   1 H    0.995 --     7 C    0.954
    47   1 H    0.992 --     8 C    0.944
    48   1 H    0.999 --    10 C    0.969
    49   1 H    0.998 --    11 C    0.971
    50   1 H    0.998 --    12 C    0.971
    51   1 H    0.999 --    13 C    0.971
    52   1 H    0.998 --    14 C    0.962
    53   1 H    0.997 --    20 C    0.977
    54   1 H    0.995 --    20 C    0.979
    55   1 H    0.998 --    20 C    0.977
    56   1 H    0.997 --    21 C    0.964
    57   1 H    0.998 --    22 C    0.971
    58   1 H    0.998 --    23 C    0.970
    59   1 H    0.997 --    24 C    0.968
    60   1 H    0.992 --    26 C    0.930
    61   1 H    0.883 --    28 O    0.856
    62   1 H    0.998 --    33 C    0.969
    63   1 H    0.997 --    34 C    0.970
    64   1 H    0.997 --    35 C    0.970
    65   1 H    0.996 --    36 C    0.967
    66   1 H    0.998 --    39 C    0.979
    67   1 H    0.998 --    39 C    0.973
    68   1 H    0.996 --    39 C    0.981
 ---------------------------------------------------------------------------

molecular dipole:
                 x           y           z       tot (Debye)
 q only:        0.262      -1.048       0.187
   full:        0.387      -1.464       0.140       3.865

           -------------------------------------------------
          | TOTAL ENERGY             -113.080538501778 Eh   |
          | GRADIENT NORM               0.000254596993 Eh/Î± |
          | HOMO-LUMO GAP               3.145080499944 eV   |
           -------------------------------------------------

 * finished run on 2022/03/17 at 00:20:51.309
