   * xtb version 6.3.3 (4ae9cef) compiled by 'conda@95abc7406d43' on 2020-10-14
          program call               : xtb acid_175.xyz --opt --chrg 0 --uhf 0 --gfn 2
          number of atoms            :                    78
          number of electrons        :                   242
          charge                     :                     0
          spin                       :                   0.0

   ID    Z sym.   atoms
    1    6 C      1-22, 24-32, 35, 36, 40-48
    2    7 N      23, 39
    3   16 S      33, 49
    4    8 O      34, 37, 38, 50
    5    1 H      51-78

          :  Hamiltonian                  GFN2-xTB          :
 * total energy  :  -132.8600866 Eh     change       -0.1709481E-08 Eh
 * total energy  :  -132.8785894 Eh     change       -0.1850284E-01 Eh
 * total energy  :  -132.8839006 Eh     change       -0.5311209E-02 Eh
 * total energy  :  -132.8852926 Eh     change       -0.1391963E-02 Eh
 * total energy  :  -132.8862328 Eh     change       -0.9402394E-03 Eh
 * total energy  :  -132.8866150 Eh     change       -0.3822345E-03 Eh
 * total energy  :  -132.8868919 Eh     change       -0.2768106E-03 Eh
 * total energy  :  -132.8871085 Eh     change       -0.2166147E-03 Eh
 * total energy  :  -132.8873295 Eh     change       -0.2210007E-03 Eh
 * total energy  :  -132.8876040 Eh     change       -0.2745569E-03 Eh
 * total energy  :  -132.8901889 Eh     change       -0.1521730E-04 Eh
 * total energy  :  -132.8902159 Eh     change       -0.2691727E-04 Eh
 * total energy  :  -132.8902265 Eh     change       -0.1065689E-04 Eh
 * total energy  :  -132.8902368 Eh     change       -0.1031624E-04 Eh
 * total energy  :  -132.8902537 Eh     change       -0.1691249E-04 Eh
 * total energy  :  -132.8902631 Eh     change       -0.9383553E-05 Eh
 * total energy  :  -132.8902712 Eh     change       -0.8081989E-05 Eh
 * total energy  :  -132.8902804 Eh     change       -0.9204138E-05 Eh
 * total energy  :  -132.8902837 Eh     change       -0.3248498E-05 Eh
   *** GEOMETRY OPTIMIZATION CONVERGED AFTER 44 ITERATIONS ***

 final structure:
================
78
 xtb: 6.3.3 (4ae9cef)
C        -2.91700649941834   -1.19090688013110    0.21513021003251
C        -4.05234394779189   -1.68532447396957   -0.35896836481658
C        -4.12719703783629   -1.89024963444385   -1.75211966278720
C        -5.29925741372458   -2.35659081440957   -2.38136372828749
C        -5.33714644320020   -2.54130617347069   -3.73507270064778
C        -4.20504056091858   -2.27128659626386   -4.52036282738386
C        -3.05458695551049   -1.81574459372000   -3.94067322145598
C        -2.98556849221057   -1.60893107797296   -2.54738090129067
C        -1.82890026737451   -1.10029838145866   -1.92496030968472
C        -1.79727123323231   -0.86835988989435   -0.57429672878635
C        -0.59095740788288   -0.23314654699411    0.06781284763429
C         0.63700821393775   -1.16682285456409    0.11214813696429
C         0.95822995693900   -1.59018632370197    1.52385323338018
C         1.45689809114637   -0.68171074729311    2.42146283030131
C         1.74674628566462   -1.05990783060560    3.74661969433467
C         2.27346163785568   -0.14537289595863    4.68291565668012
C         2.54816335276785   -0.53946353058819    5.96211548546360
C         2.30790103091654   -1.86352157707870    6.36369656628752
C         1.79661648271732   -2.77196996395026    5.47978895379656
C         1.50297756288248   -2.39808566534257    4.15198159312212
C         0.97793479264616   -3.30672997622214    3.21005042589297
C         0.71360717576264   -2.91410181558657    1.92912244357443
N         1.71407009636344   -0.38456680864523   -0.48344659180245
C         2.98869675138993   -0.84969391105143   -0.46293278465869
C         4.00074614586914    0.05887251731239   -1.05967928743798
C         5.02973169146505    0.64302629148816   -0.40174929726033
C         5.86742690367176    1.42099990614747   -1.25309735408358
C         7.00007189251166    2.17133796995547   -0.93097365684251
C         7.66893695306280    2.84583934995188   -1.92738611185148
C         7.22964132093792    2.78984886503080   -3.25047970911855
C         6.11330329263370    2.05664953056692   -3.59604491235023
C         5.43807312655642    1.37797804118169   -2.59327119550182
S         4.01661532930331    0.39094077908281   -2.77355589999233
O         3.28139256327701   -1.92553897299262    0.01200591702518
C         1.27865571591842    0.88640140461636   -0.99647012848121
C         1.98095139906210    2.08325671699454   -0.31661352833537
O         2.67268210226649    2.80902825794516   -1.17696189277985
O         1.90735761517609    2.30388019469053    0.86075355281399
N        -0.13063612440752    0.92660781694102   -0.67926970721779
C        -0.81223451235505    2.07851761183092   -0.89479419949132
C        -2.26227210393886    1.99381388782154   -0.58693497487546
C        -2.87468495169809    2.00215080048895    0.61936041022060
C        -4.28458476028228    1.81091179108779    0.52681242157267
C        -4.70578098859961    1.66389130506937   -0.80835196533945
C        -6.03123098966905    1.41476457693239   -1.12946740312405
C        -6.94445667720571    1.31350881663265   -0.10071895788915
C        -6.54662778663626    1.46596769282556    1.22780258228470
C        -5.23109267392204    1.71441374427697    1.54820382094492
S        -3.37367133795162    1.80967088781135   -1.91750597990829
O        -0.26207304298550    3.06028785779474   -1.35165246587155
H        -2.87140291544277   -1.02513310108369    1.28161696156404
H        -4.91738516034243   -1.90992689249068    0.24779151838750
H        -6.16726942685543   -2.56196100563038   -1.77140365544503
H        -6.23869422279176   -2.89694560952308   -4.21190958851994
H        -4.25339467119445   -2.42459670765159   -5.58834013491016
H        -2.18269508191670   -1.60041494721947   -4.54122984655175
H        -0.97220416144370   -0.85890310812852   -2.53884722880615
H        -0.84428089008369    0.07253393952905    1.09145745960330
H         0.46863566369193   -2.05829791469741   -0.50663331138688
H         1.64703933733798    0.34000364283026    2.12241057914704
H         2.45554924459314    0.87123121046117    4.36480254217501
H         2.95328685237444    0.16385953876520    6.67514968604669
H         2.53209411391535   -2.15703463402235    7.37896379675523
H         1.61134797409692   -3.79228334251255    5.78457057378222
H         0.79417246061583   -4.32609935472117    3.51790074671033
H         0.32038923980713   -3.61856164433945    1.21083285413527
H         5.18447116686099    0.53674694565370    0.65728884093941
H         7.33932812002383    2.21021515003658    0.09320376717081
H         8.54694999417775    3.42613199192403   -1.68638495818371
H         7.77189839386658    3.32660647584725   -4.01400984871993
H         5.76881142437554    2.00788044357080   -4.61701711427028
H         1.43122011752535    0.98157986025135   -2.08444695108327
H         3.03854128498907    3.60410261149490   -0.75657314237132
H        -2.35383697010483    2.13209826566616    1.55181955512412
H        -6.32968340139018    1.29671451801576   -2.15924300564913
H        -7.98117596427783    1.11369372479225   -0.32570311492534
H        -7.28364487748087    1.38452435920677    2.01274641062258
H        -4.92134391885256    1.82948790580688    2.57610827568713

          :  Hamiltonian                  GFN2-xTB          :
         :: total energy            -132.890283662709 Eh    ::
         :: gradient norm              0.000410363229 Eh/a0 ::
         :: HOMO-LUMO gap              2.828324326073 eV    ::
         :: SCC energy              -135.014827695117 Eh    ::
         :: -> dispersion             -0.125333307639 Eh    ::
         :: repulsion energy           2.121781630359 Eh    ::

    * Orbital Energies and Occupations

         #    Occupation            Energy/Eh            Energy/eV
      -------------------------------------------------------------
         1        2.0000           -0.7661847             -20.8489
       ...           ...                  ...                  ...
       109        2.0000           -0.4169530             -11.3459
       110        2.0000           -0.4143138             -11.2741
       111        2.0000           -0.4123859             -11.2216
       112        2.0000           -0.4114937             -11.1973
       113        2.0000           -0.4094179             -11.1408
       114        2.0000           -0.4036631             -10.9842
       115        2.0000           -0.4023348             -10.9481
       116        2.0000           -0.3998124             -10.8794
       117        2.0000           -0.3958137             -10.7706
       118        2.0000           -0.3897216             -10.6049
       119        2.0000           -0.3852006             -10.4818
       120        2.0000           -0.3848338             -10.4719
       121        2.0000           -0.3773095             -10.2671 (HOMO)
       122                         -0.2733705              -7.4388 (LUMO)
       123                         -0.2692905              -7.3278
       124                         -0.2668525              -7.2614
       125                         -0.2601768              -7.0798
       126                         -0.2571018              -6.9961
       127                         -0.2421721              -6.5898
       128                         -0.2379003              -6.4736
       129                         -0.2371461              -6.4531
       130                         -0.2359710              -6.4211
       131                         -0.2303905              -6.2692
       132                         -0.2280327              -6.2051
       ...                                ...                  ...
       238                          0.7001824              19.0529
      -------------------------------------------------------------
                  HL-Gap            0.1039390 Eh            2.8283 eV

     #   Z          covCN         q      C6AA      Î±(0)
     1   6 C        2.919    -0.036    28.893     8.815
     2   6 C        2.918    -0.032    28.801     8.800
     3   6 C        2.988     0.014    27.686     8.631
     4   6 C        2.918    -0.033    28.825     8.804
     5   6 C        2.916    -0.027    28.687     8.783
     6   6 C        2.916    -0.027    28.679     8.782
     7   6 C        2.918    -0.032    28.802     8.801
     8   6 C        2.987     0.017    27.626     8.622
     9   6 C        2.923    -0.038    28.942     8.822
    10   6 C        2.969    -0.005    28.134     8.700
    11   6 C        3.814     0.040    19.900     6.349
    12   6 C        3.821     0.049    19.742     6.323
    13   6 C        2.970     0.008    27.837     8.654
    14   6 C        2.923    -0.042    29.036     8.837
    15   6 C        2.988     0.016    27.638     8.624
    16   6 C        2.918    -0.034    28.845     8.807
    17   6 C        2.916    -0.029    28.736     8.790
    18   6 C        2.916    -0.029    28.737     8.791
    19   6 C        2.918    -0.034    28.847     8.808
    20   6 C        2.987     0.014    27.689     8.632
    21   6 C        2.918    -0.032    28.802     8.801
    22   6 C        2.918    -0.030    28.754     8.793
    23   7 N        2.763    -0.112    23.451     7.192
    24   6 C        2.779     0.273    22.391     7.750
    25   6 C        2.989    -0.010    28.250     8.719
    26   6 C        3.068    -0.044    29.015     8.832
    27   6 C        3.142     0.003    27.709     8.613
    28   6 C        2.916    -0.033    28.831     8.805
    29   6 C        2.918    -0.033    28.829     8.805
    30   6 C        2.924    -0.030    28.759     8.794
    31   6 C        2.933    -0.036    28.902     8.817
    32   6 C        3.008     0.037    27.152     8.548
    33  16 S        2.266    -0.047   142.991    20.126
    34   8 O        0.859    -0.410    21.879     6.271
    35   6 C        3.756     0.098    19.017     6.218
    36   6 C        2.688     0.365    20.810     7.466
    37   8 O        1.660    -0.345    19.817     6.010
    38   8 O        0.856    -0.394    21.552     6.224
    39   7 N        2.769    -0.111    23.416     7.187
    40   6 C        2.794     0.274    22.363     7.747
    41   6 C        2.992    -0.001    28.043     8.687
    42   6 C        3.066    -0.049    29.152     8.853
    43   6 C        3.143     0.004    27.690     8.610
    44   6 C        3.009     0.033    27.253     8.564
    45   6 C        2.933    -0.036    28.897     8.816
    46   6 C        2.924    -0.030    28.760     8.795
    47   6 C        2.918    -0.033    28.830     8.805
    48   6 C        2.916    -0.033    28.812     8.802
    49  16 S        2.276    -0.027   142.172    20.068
    50   8 O        0.859    -0.424    22.158     6.311
    51   1 H        0.926     0.031     2.576     2.510
    52   1 H        0.926     0.038     2.481     2.463
    53   1 H        0.926     0.034     2.526     2.485
    54   1 H        0.926     0.035     2.514     2.480
    55   1 H        0.926     0.036     2.497     2.471
    56   1 H        0.926     0.038     2.482     2.463
    57   1 H        0.925     0.036     2.502     2.474
    58   1 H        0.923     0.054     2.274     2.358
    59   1 H        0.923     0.059     2.217     2.328
    60   1 H        0.925     0.050     2.321     2.382
    61   1 H        0.926     0.038     2.477     2.461
    62   1 H        0.926     0.031     2.568     2.506
    63   1 H        0.926     0.031     2.573     2.508
    64   1 H        0.926     0.032     2.552     2.498
    65   1 H        0.926     0.038     2.480     2.463
    66   1 H        0.926     0.033     2.540     2.492
    67   1 H        0.926     0.050     2.324     2.384
    68   1 H        0.926     0.041     2.441     2.443
    69   1 H        0.926     0.038     2.473     2.459
    70   1 H        0.926     0.040     2.443     2.444
    71   1 H        0.926     0.045     2.384     2.415
    72   1 H        0.923     0.076     2.024     2.225
    73   1 H        0.804     0.346     0.597     1.214
    74   1 H        0.926     0.045     2.388     2.416
    75   1 H        0.926     0.042     2.416     2.430
    76   1 H        0.926     0.040     2.445     2.445
    77   1 H        0.926     0.039     2.466     2.456
    78   1 H        0.926     0.040     2.445     2.445

Wiberg/Mayer (AO) data.
largest (>0.10) Wiberg bond orders for each atom

     #   Z sym  total        # sym  WBO       # sym  WBO       # sym  WBO
 ---------------------------------------------------------------------------
     1   6 C    3.991 --     2 C    1.561    10 C    1.296    51 H    0.968
     2   6 C    3.991 --     1 C    1.561     3 C    1.277    52 H    0.968
                             9 C    0.115
     3   6 C    3.990 --     4 C    1.281     2 C    1.277     8 C    1.250
     4   6 C    3.992 --     5 C    1.557     3 C    1.281    53 H    0.968
                             7 C    0.118
     5   6 C    3.989 --     4 C    1.557     6 C    1.320    54 H    0.971
     6   6 C    3.992 --     7 C    1.558     5 C    1.320    55 H    0.971
     7   6 C    3.989 --     6 C    1.558     8 C    1.278    56 H    0.968
                             4 C    0.118
     8   6 C    3.990 --     9 C    1.284     7 C    1.278     3 C    1.250
     9   6 C    3.990 --    10 C    1.523     8 C    1.284    57 H    0.966
                             2 C    0.115
    10   6 C    3.984 --     9 C    1.523     1 C    1.296    11 C    0.987
    11   6 C    3.959 --    10 C    0.987    39 N    0.957    12 C    0.955
                            58 H    0.953
    12   6 C    3.957 --    13 C    0.986    11 C    0.955    59 H    0.954
                            23 N    0.953
    13   6 C    3.983 --    14 C    1.522    22 C    1.299    12 C    0.986
    14   6 C    3.989 --    13 C    1.522    15 C    1.285    60 H    0.960
                            21 C    0.116
    15   6 C    3.991 --    14 C    1.285    16 C    1.277    20 C    1.250
    16   6 C    3.990 --    17 C    1.559    15 C    1.277    61 H    0.968
                            19 C    0.118
    17   6 C    3.992 --    16 C    1.559    18 C    1.319    62 H    0.971
    18   6 C    3.990 --    19 C    1.558    17 C    1.319    63 H    0.971
    19   6 C    3.992 --    18 C    1.558    20 C    1.280    64 H    0.968
                            16 C    0.118
    20   6 C    3.990 --    19 C    1.280    21 C    1.279    15 C    1.250
    21   6 C    3.991 --    22 C    1.559    20 C    1.279    65 H    0.968
                            14 C    0.116
    22   6 C    3.990 --    21 C    1.559    13 C    1.299    66 H    0.968
    23   7 N    3.468 --    24 C    1.209    35 C    0.989    12 C    0.953
                            34 O    0.195
    24   6 C    3.951 --    34 O    1.687    23 N    1.209    25 C    0.974
    25   6 C    3.953 --    26 C    1.644    33 S    1.111    24 C    0.974
    26   6 C    3.986 --    25 C    1.644    27 C    1.191    67 H    0.961
    27   6 C    3.987 --    28 C    1.329    32 C    1.287    26 C    1.191
    28   6 C    3.988 --    29 C    1.497    27 C    1.329    68 H    0.968
                            31 C    0.111
    29   6 C    3.991 --    28 C    1.497    30 C    1.382    69 H    0.971
    30   6 C    3.988 --    31 C    1.474    29 C    1.382    70 H    0.970
    31   6 C    3.989 --    30 C    1.474    32 C    1.379    71 H    0.968
                            28 C    0.111
    32   6 C    3.955 --    31 C    1.379    27 C    1.287    33 S    1.104
    33  16 S    2.546 --    25 C    1.111    32 C    1.104
    34   8 O    2.032 --    24 C    1.687    23 N    0.195
    35   6 C    3.964 --    23 N    0.989    39 N    0.977    72 H    0.941
                            36 C    0.905
    36   6 C    3.921 --    38 O    1.764    37 O    1.174    35 C    0.905
    37   8 O    2.241 --    36 C    1.174    73 H    0.853    38 O    0.183
    38   8 O    2.055 --    36 C    1.764    37 O    0.183
    39   7 N    3.469 --    40 C    1.217    35 C    0.977    11 C    0.957
                            50 O    0.194
    40   6 C    3.949 --    50 O    1.675    39 N    1.217    41 C    0.973
    41   6 C    3.956 --    42 C    1.646    49 S    1.116    40 C    0.973
    42   6 C    3.984 --    41 C    1.646    43 C    1.189    74 H    0.961
    43   6 C    3.987 --    48 C    1.330    44 C    1.286    42 C    1.189
    44   6 C    3.955 --    45 C    1.378    43 C    1.286    49 S    1.108
    45   6 C    3.990 --    46 C    1.475    44 C    1.378    75 H    0.968
                            48 C    0.111
    46   6 C    3.989 --    45 C    1.475    47 C    1.382    76 H    0.970
    47   6 C    3.991 --    48 C    1.496    46 C    1.382    77 H    0.971
    48   6 C    3.988 --    47 C    1.496    43 C    1.330    78 H    0.968
                            45 C    0.111
    49  16 S    2.552 --    41 C    1.116    44 C    1.108
    50   8 O    2.025 --    40 C    1.675    39 N    0.194
    51   1 H    0.999 --     1 C    0.968
    52   1 H    0.998 --     2 C    0.968
    53   1 H    0.998 --     4 C    0.968
    54   1 H    0.998 --     5 C    0.971
    55   1 H    0.998 --     6 C    0.971
    56   1 H    0.998 --     7 C    0.968
    57   1 H    0.998 --     9 C    0.966
    58   1 H    0.997 --    11 C    0.953
    59   1 H    0.995 --    12 C    0.954
    60   1 H    0.997 --    14 C    0.960
    61   1 H    0.998 --    16 C    0.968
    62   1 H    0.999 --    17 C    0.971
    63   1 H    0.999 --    18 C    0.971
    64   1 H    0.998 --    19 C    0.968
    65   1 H    0.998 --    21 C    0.968
    66   1 H    0.998 --    22 C    0.968
    67   1 H    0.997 --    26 C    0.961
    68   1 H    0.998 --    28 C    0.968
    69   1 H    0.997 --    29 C    0.971
    70   1 H    0.998 --    30 C    0.970
    71   1 H    0.998 --    31 C    0.968
    72   1 H    0.994 --    35 C    0.941
    73   1 H    0.879 --    37 O    0.853
    74   1 H    0.998 --    42 C    0.961
    75   1 H    0.998 --    45 C    0.968
    76   1 H    0.998 --    46 C    0.970
    77   1 H    0.997 --    47 C    0.971
    78   1 H    0.998 --    48 C    0.968
 ---------------------------------------------------------------------------

molecular dipole:
                 x           y           z       tot (Debye)
 q only:       -1.186      -0.248      -0.143
   full:       -0.943       0.034       0.200       2.451

           -------------------------------------------------
          | TOTAL ENERGY             -132.890283662709 Eh   |
          | GRADIENT NORM               0.000410363229 Eh/Î± |
          | HOMO-LUMO GAP               2.828324326073 eV   |
           -------------------------------------------------

 * finished run on 2022/03/16 at 22:05:49.859
