   * xtb version 6.3.3 (4ae9cef) compiled by 'conda@95abc7406d43' on 2020-10-14
          program call               : xtb acid_468.xyz --opt --chrg 0 --uhf 0 --gfn 2
          number of atoms            :                    92
          number of electrons        :                   270
          charge                     :                     0
          spin                       :                   0.0

   ID    Z sym.   atoms
    1    6 C      1-22, 24-36, 38, 39, 43-55
    2    7 N      23, 42
    3    8 O      37, 40, 41, 56
    4    1 H      57-92

          :  Hamiltonian                  GFN2-xTB          :
 * total energy  :  -147.5450420 Eh     change       -0.6165692E-08 Eh
 * total energy  :  -147.5630235 Eh     change       -0.1798152E-01 Eh
 * total energy  :  -147.5683622 Eh     change       -0.5338707E-02 Eh
 * total energy  :  -147.5698561 Eh     change       -0.1493901E-02 Eh
 * total energy  :  -147.5707211 Eh     change       -0.8649824E-03 Eh
 * total energy  :  -147.5710824 Eh     change       -0.3613792E-03 Eh
 * total energy  :  -147.5714455 Eh     change       -0.3630611E-03 Eh
 * total energy  :  -147.5718798 Eh     change       -0.4342503E-03 Eh
 * total energy  :  -147.5722709 Eh     change       -0.3911209E-03 Eh
 * total energy  :  -147.5725337 Eh     change       -0.2628517E-03 Eh
 * total energy  :  -147.5815305 Eh     change       -0.1187768E-04 Eh
 * total energy  :  -147.5815405 Eh     change       -0.1006225E-04 Eh
 * total energy  :  -147.5815501 Eh     change       -0.9575761E-05 Eh
 * total energy  :  -147.5815588 Eh     change       -0.8741505E-05 Eh
 * total energy  :  -147.5815672 Eh     change       -0.8380004E-05 Eh
 * total energy  :  -147.5815767 Eh     change       -0.9440814E-05 Eh
 * total energy  :  -147.5815883 Eh     change       -0.1169158E-04 Eh
 * total energy  :  -147.5815966 Eh     change       -0.8251783E-05 Eh
 * total energy  :  -147.5816015 Eh     change       -0.4904954E-05 Eh
   *** GEOMETRY OPTIMIZATION CONVERGED AFTER 113 ITERATIONS ***

 final structure:
================
92
 xtb: 6.3.3 (4ae9cef)
C        -0.21202392206525   -2.11353582259795    2.66020484111962
C        -0.44749204128082   -2.27796172036847    3.99393213989437
C        -0.06447661423262   -3.46374399634538    4.65412238079989
C        -0.29615981414649   -3.66808689567578    6.02966121051880
C         0.08955648513642   -4.83038820216055    6.63645846705641
C         0.72635400454702   -5.83896964870997    5.89623768538448
C         0.96481235735861   -5.67035915652654    4.56122706209873
C         0.57659619523838   -4.48396287580617    3.90463277237358
C         0.80690409885065   -4.28136866494348    2.52913510140904
C         0.42211215390985   -3.12291191537674    1.91004101901844
C         0.64597398997387   -2.92640014498992    0.43106535172058
C        -0.68565022626738   -2.96359963001292   -0.34914982394220
C        -0.64484542398270   -3.62169622600145   -1.70827954254864
C        -1.83433414571017   -4.01732159896339   -2.26738202425559
C        -1.88970533288885   -4.57051486554791   -3.56091298431296
C        -3.10474235991282   -4.98093256569966   -4.14959814064012
C        -3.12394755977730   -5.51189037958537   -5.40838635698658
C        -1.93167258514158   -5.65899095142518   -6.13624343809632
C        -0.73892872024599   -5.27095545897195   -5.59398113035505
C        -0.68530833965905   -4.71781131188704   -4.29753988388051
C         0.52334983391516   -4.30181013303380   -3.70388590056007
C         0.54622221597967   -3.76683672240865   -2.44596208974105
N        -1.00615350329566   -1.54634277673132   -0.51070631800911
C        -2.19718347169997   -1.01365595751193   -0.11831067731906
C        -2.20783557507609    0.48337219877143   -0.11650120323505
C        -2.14195369562221    1.17285916357636    1.08880925482021
C        -2.10401011024109    2.55398296531771    1.09842247080428
C        -2.14920222933341    3.27624539855961   -0.09221717703275
C        -2.10346495933948    4.74599523439775   -0.08621744306300
C        -1.37675462155092    5.43674770125136   -1.05426489801668
C        -1.33608936454697    6.81864040213540   -1.05109241576277
C        -2.02075871502591    7.53329246350682   -0.08213151442749
C        -2.74583969203247    6.85725381588472    0.88489540086597
C        -2.78659567265910    5.47543869844414    0.88456305942930
C        -2.24695502086057    2.57563672224145   -1.29336283095061
C        -2.27229789606733    1.19488584847779   -1.30877961385003
O        -3.14287507735670   -1.70346907177821    0.19025546209994
C         0.22874223843224   -0.83569219850480   -0.65770428603419
C         0.70728331738517   -0.78799043919824   -2.12401952198405
O        -0.31049307867470   -0.68588720324574   -2.97319427487394
O         1.85831790463479   -0.79595386295757   -2.45435660213442
N         1.15526615571380   -1.58463339455923    0.15727443848511
C         2.32863320299752   -1.12950930102269    0.67424327116717
C         2.50801454804724    0.34940643273529    0.53204825756117
C         3.41719189056916    0.89893382091431   -0.35954717450686
C         3.54790643247304    2.27221893730393   -0.45401081363893
C         2.78417023212061    3.12261285249208    0.34310093182266
C         2.92446115830668    4.58312403459513    0.24846334801634
C         4.17595644979996    5.16874254870011    0.06824976050223
C         4.30556968743130    6.54278908040492   -0.00845787082684
C         3.18832866952290    7.35537332527118    0.09126963806172
C         1.93972897353565    6.78433259905410    0.27044709976000
C         1.80830024469787    5.41073720977232    0.34965665155099
C         1.88537322589253    2.55955052516265    1.24772019344098
C         1.74895684210883    1.18953262721586    1.34218223564133
O         3.10861962392496   -1.86097292756417    1.24166283888024
H        -0.51116757351388   -1.20071893146328    2.16572741293837
H        -0.93318276974378   -1.49931739712968    4.56513408282098
H        -0.78543966117733   -2.88799214526029    6.59563120288334
H        -0.09156209726953   -4.98160467797606    7.69060676317136
H         1.02612218322542   -6.75012855202363    6.39304059257942
H         1.45579253499981   -6.44318828592131    3.98746636053189
H         1.30096025741328   -5.06007023010126    1.96577125976832
H         1.35171053949228   -3.68352900107176    0.07775684023439
H        -1.48541748152641   -3.41366209568147    0.24853802974488
H        -2.75319805243374   -3.89566376566660   -1.71179642206325
H        -4.01808599148752   -4.86585805593211   -3.58422314411465
H        -4.05677079769494   -5.82416855391601   -5.85449100231212
H        -1.96693480357809   -6.08266002733920   -7.12923427624724
H         0.18174827184391   -5.38319654341399   -6.14893410038472
H         1.44213082329600   -4.40990499519737   -4.26247228888903
H         1.49006360821229   -3.45280240776295   -2.02719437564967
H        -2.11758923627748    0.62390795116171    2.01914835095669
H        -2.02215334986957    3.07790622782969    2.03921703899809
H        -0.82157542746244    4.88649234848190   -1.80019500978986
H        -0.76508723695149    7.33845201476826   -1.80655152395557
H        -1.99058466778095    8.61291709278283   -0.08098510221967
H        -3.28542437145257    7.40952399387472    1.64027586021307
H        -3.37251281035842    4.95556461792038    1.62834696668260
H        -2.31947501834537    3.12055830420155   -2.22282799059197
H        -2.34454631122279    0.65957048081132   -2.24315390399157
H         0.13942081038783    0.21014804976427   -0.32945341219834
H         0.00640515115895   -0.66053443803215   -3.89129363196770
H         4.00603085688468    0.24794035881346   -0.98624077109710
H         4.24014223914871    2.69176066162214   -1.16886896029256
H         5.05422395503144    4.54259515360775    0.01204045106695
H         5.28309852225165    6.98267958047130   -0.14263908978289
H         3.29130026599436    8.42878454009411    0.03160830630150
H         1.06120213164309    7.40808333487534    0.34864349015603
H         0.82677360216546    4.97606722112569    0.47093758611214
H         1.30553518114982    3.20051390447497    1.89519149853209
H         1.06309436009602    0.76398668103558    2.06168551853772

          :  Hamiltonian                  GFN2-xTB          :
         :: total energy            -147.581601501160 Eh    ::
         :: gradient norm              0.000370736818 Eh/a0 ::
         :: HOMO-LUMO gap              2.921786380503 eV    ::
         :: SCC energy              -150.114854569401 Eh    ::
         :: -> dispersion             -0.136361806007 Eh    ::
         :: repulsion energy           2.529685409952 Eh    ::

    * Orbital Energies and Occupations

         #    Occupation            Energy/Eh            Energy/eV
      -------------------------------------------------------------
         1        2.0000           -0.7760573             -21.1176
       ...           ...                  ...                  ...
       123        2.0000           -0.4137480             -11.2587
       124        2.0000           -0.4133186             -11.2470
       125        2.0000           -0.4110069             -11.1841
       126        2.0000           -0.4093121             -11.1379
       127        2.0000           -0.4078379             -11.0978
       128        2.0000           -0.4027558             -10.9595
       129        2.0000           -0.4003199             -10.8933
       130        2.0000           -0.3973690             -10.8130
       131        2.0000           -0.3947353             -10.7413
       132        2.0000           -0.3927827             -10.6882
       133        2.0000           -0.3884685             -10.5708
       134        2.0000           -0.3855384             -10.4910
       135        2.0000           -0.3782966             -10.2940 (HOMO)
       136                         -0.2709230              -7.3722 (LUMO)
       137                         -0.2628910              -7.1536
       138                         -0.2609380              -7.1005
       139                         -0.2596614              -7.0657
       140                         -0.2546972              -6.9307
       141                         -0.2399274              -6.5288
       142                         -0.2380573              -6.4779
       143                         -0.2319150              -6.3107
       144                         -0.2313305              -6.2948
       145                         -0.2304601              -6.2711
       146                         -0.2257986              -6.1443
       ...                                ...                  ...
       260                          0.6974261              18.9779
      -------------------------------------------------------------
                  HL-Gap            0.1073737 Eh            2.9218 eV

     #   Z          covCN         q      C6AA      Î±(0)
     1   6 C        2.920    -0.030    28.742     8.792
     2   6 C        2.917    -0.033    28.813     8.802
     3   6 C        2.988     0.014    27.684     8.631
     4   6 C        2.918    -0.033    28.833     8.805
     5   6 C        2.916    -0.029    28.722     8.788
     6   6 C        2.916    -0.028    28.712     8.787
     7   6 C        2.919    -0.033    28.818     8.803
     8   6 C        2.987     0.017    27.615     8.620
     9   6 C        2.923    -0.036    28.898     8.816
    10   6 C        2.970     0.005    27.905     8.665
    11   6 C        3.824     0.041    19.863     6.342
    12   6 C        3.844     0.036    19.943     6.353
    13   6 C        2.968    -0.003    28.087     8.693
    14   6 C        2.925    -0.039    28.972     8.827
    15   6 C        2.986     0.015    27.675     8.629
    16   6 C        2.918    -0.034    28.835     8.806
    17   6 C        2.916    -0.029    28.717     8.788
    18   6 C        2.916    -0.029    28.723     8.788
    19   6 C        2.918    -0.035    28.879     8.812
    20   6 C        2.987     0.011    27.755     8.642
    21   6 C        2.917    -0.037    28.914     8.818
    22   6 C        2.917    -0.041    29.008     8.832
    23   7 N        2.772    -0.113    23.457     7.193
    24   6 C        2.760     0.275    22.352     7.742
    25   6 C        2.978    -0.021    28.520     8.760
    26   6 C        2.921    -0.026    28.656     8.778
    27   6 C        2.924    -0.033    28.813     8.803
    28   6 C        2.976     0.012    27.735     8.639
    29   6 C        2.977     0.009    27.804     8.649
    30   6 C        2.925    -0.032    28.787     8.799
    31   6 C        2.918    -0.027    28.678     8.782
    32   6 C        2.920    -0.029    28.727     8.789
    33   6 C        2.918    -0.028    28.710     8.787
    34   6 C        2.925    -0.033    28.816     8.803
    35   6 C        2.925    -0.033    28.825     8.804
    36   6 C        2.920    -0.032    28.803     8.801
    37   8 O        0.859    -0.414    21.961     6.283
    38   6 C        3.776     0.092    19.080     6.224
    39   6 C        2.688     0.351    21.046     7.508
    40   8 O        1.659    -0.360    20.097     6.052
    41   8 O        0.856    -0.383    21.346     6.194
    42   7 N        2.770    -0.121    23.633     7.220
    43   6 C        2.760     0.277    22.313     7.735
    44   6 C        2.978    -0.020    28.500     8.757
    45   6 C        2.919    -0.022    28.555     8.763
    46   6 C        2.925    -0.032    28.807     8.802
    47   6 C        2.976     0.011    27.766     8.643
    48   6 C        2.977     0.010    27.788     8.647
    49   6 C        2.925    -0.033    28.826     8.805
    50   6 C        2.918    -0.029    28.727     8.789
    51   6 C        2.920    -0.030    28.751     8.793
    52   6 C        2.918    -0.029    28.735     8.790
    53   6 C        2.925    -0.034    28.843     8.807
    54   6 C        2.924    -0.035    28.866     8.811
    55   6 C        2.922    -0.034    28.842     8.807
    56   8 O        0.859    -0.413    21.949     6.281
    57   1 H        0.926     0.020     2.736     2.587
    58   1 H        0.926     0.034     2.529     2.487
    59   1 H        0.926     0.033     2.547     2.496
    60   1 H        0.926     0.032     2.559     2.502
    61   1 H        0.926     0.032     2.552     2.498
    62   1 H        0.926     0.035     2.517     2.481
    63   1 H        0.926     0.038     2.478     2.462
    64   1 H        0.924     0.065     2.137     2.286
    65   1 H        0.924     0.079     1.994     2.208
    66   1 H        0.926     0.050     2.319     2.381
    67   1 H        0.926     0.038     2.471     2.458
    68   1 H        0.926     0.034     2.534     2.489
    69   1 H        0.926     0.033     2.547     2.496
    70   1 H        0.926     0.033     2.541     2.493
    71   1 H        0.926     0.038     2.480     2.463
    72   1 H        0.926     0.038     2.469     2.457
    73   1 H        0.926     0.039     2.462     2.454
    74   1 H        0.926     0.041     2.439     2.442
    75   1 H        0.926     0.030     2.582     2.513
    76   1 H        0.926     0.032     2.553     2.499
    77   1 H        0.926     0.032     2.561     2.503
    78   1 H        0.926     0.033     2.543     2.494
    79   1 H        0.926     0.034     2.529     2.487
    80   1 H        0.926     0.040     2.455     2.450
    81   1 H        0.926     0.043     2.408     2.426
    82   1 H        0.923     0.068     2.104     2.268
    83   1 H        0.804     0.343     0.604     1.221
    84   1 H        0.926     0.055     2.259     2.350
    85   1 H        0.926     0.042     2.426     2.436
    86   1 H        0.926     0.035     2.519     2.482
    87   1 H        0.926     0.032     2.554     2.499
    88   1 H        0.926     0.031     2.570     2.507
    89   1 H        0.926     0.030     2.580     2.512
    90   1 H        0.926     0.029     2.605     2.524
    91   1 H        0.926     0.037     2.494     2.469
    92   1 H        0.925     0.029     2.603     2.523

Wiberg/Mayer (AO) data.
largest (>0.10) Wiberg bond orders for each atom

     #   Z sym  total        # sym  WBO       # sym  WBO       # sym  WBO
 ---------------------------------------------------------------------------
     1   6 C    3.992 --     2 C    1.565    10 C    1.293    57 H    0.965
     2   6 C    3.992 --     1 C    1.565     3 C    1.276    58 H    0.968
                             9 C    0.114
     3   6 C    3.990 --     4 C    1.282     2 C    1.276     8 C    1.251
     4   6 C    3.992 --     5 C    1.556     3 C    1.282    59 H    0.968
                             7 C    0.118
     5   6 C    3.990 --     4 C    1.556     6 C    1.321    60 H    0.971
     6   6 C    3.992 --     7 C    1.558     5 C    1.321    61 H    0.971
     7   6 C    3.989 --     6 C    1.558     8 C    1.279    62 H    0.968
                             4 C    0.118
     8   6 C    3.990 --     9 C    1.281     7 C    1.279     3 C    1.251
     9   6 C    3.989 --    10 C    1.528     8 C    1.281    63 H    0.965
                             2 C    0.114
    10   6 C    3.986 --     9 C    1.528     1 C    1.293    11 C    0.988
    11   6 C    3.962 --    10 C    0.988    12 C    0.961    42 N    0.955
                            64 H    0.951
    12   6 C    3.956 --    13 C    0.985    11 C    0.961    65 H    0.952
                            23 N    0.948
    13   6 C    3.984 --    14 C    1.520    22 C    1.301    12 C    0.985
    14   6 C    3.988 --    13 C    1.520    15 C    1.288    66 H    0.965
                            21 C    0.116
    15   6 C    3.990 --    14 C    1.288    16 C    1.275    20 C    1.249
    16   6 C    3.990 --    17 C    1.561    15 C    1.275    67 H    0.968
                            19 C    0.119
    17   6 C    3.992 --    16 C    1.561    18 C    1.318    68 H    0.971
    18   6 C    3.990 --    19 C    1.559    17 C    1.318    69 H    0.971
    19   6 C    3.992 --    18 C    1.559    20 C    1.279    70 H    0.968
                            16 C    0.119
    20   6 C    3.990 --    21 C    1.282    19 C    1.279    15 C    1.249
    21   6 C    3.991 --    22 C    1.554    20 C    1.282    71 H    0.968
                            14 C    0.116
    22   6 C    3.991 --    21 C    1.554    13 C    1.301    72 H    0.964
    23   7 N    3.461 --    24 C    1.195    38 C    1.000    12 C    0.948
                            37 O    0.188
    24   6 C    3.943 --    37 O    1.706    23 N    1.195    25 C    0.958
    25   6 C    3.982 --    26 C    1.399    36 C    1.395    24 C    0.958
                            28 C    0.102
    26   6 C    3.990 --    27 C    1.452    25 C    1.399    73 H    0.967
                            35 C    0.106
    27   6 C    3.991 --    26 C    1.452    28 C    1.388    74 H    0.967
                            36 C    0.107
    28   6 C    3.988 --    27 C    1.388    35 C    1.384    29 C    1.049
                            25 C    0.102
    29   6 C    3.989 --    34 C    1.388    30 C    1.387    28 C    1.049
                            32 C    0.105
    30   6 C    3.991 --    31 C    1.450    29 C    1.387    75 H    0.968
                            33 C    0.108
    31   6 C    3.992 --    30 C    1.450    32 C    1.434    76 H    0.970
                            34 C    0.108
    32   6 C    3.987 --    33 C    1.434    31 C    1.434    77 H    0.971
                            29 C    0.105
    33   6 C    3.992 --    34 C    1.452    32 C    1.434    78 H    0.971
                            30 C    0.108
    34   6 C    3.991 --    33 C    1.452    29 C    1.388    79 H    0.968
                            31 C    0.108
    35   6 C    3.991 --    36 C    1.457    28 C    1.384    80 H    0.967
                            26 C    0.106
    36   6 C    3.990 --    35 C    1.457    25 C    1.395    81 H    0.968
                            27 C    0.107
    37   8 O    2.028 --    24 C    1.706    23 N    0.188
    38   6 C    3.977 --    23 N    1.000    42 N    0.985    82 H    0.921
                            39 C    0.911
    39   6 C    3.919 --    41 O    1.782    40 O    1.154    38 C    0.911
    40   8 O    2.220 --    39 C    1.154    83 H    0.856    41 O    0.181
    41   8 O    2.063 --    39 C    1.782    40 O    0.181
    42   7 N    3.452 --    43 C    1.197    38 C    0.985    11 C    0.955
                            56 O    0.189
    43   6 C    3.944 --    56 O    1.707    42 N    1.197    44 C    0.958
    44   6 C    3.982 --    45 C    1.408    55 C    1.390    43 C    0.958
                            47 C    0.103
    45   6 C    3.989 --    46 C    1.449    44 C    1.408    84 H    0.968
                            54 C    0.106
    46   6 C    3.991 --    45 C    1.449    47 C    1.390    85 H    0.967
                            55 C    0.106
    47   6 C    3.988 --    46 C    1.390    54 C    1.381    48 C    1.050
                            44 C    0.103
    48   6 C    3.989 --    53 C    1.389    49 C    1.387    47 C    1.050
                            51 C    0.105
    49   6 C    3.991 --    50 C    1.453    48 C    1.387    86 H    0.968
                            52 C    0.108
    50   6 C    3.992 --    49 C    1.453    51 C    1.433    87 H    0.971
                            53 C    0.108
    51   6 C    3.987 --    52 C    1.435    50 C    1.433    88 H    0.971
                            48 C    0.105
    52   6 C    3.992 --    53 C    1.451    51 C    1.435    89 H    0.969
                            49 C    0.108
    53   6 C    3.991 --    52 C    1.451    48 C    1.389    90 H    0.966
                            50 C    0.108
    54   6 C    3.991 --    55 C    1.458    47 C    1.381    91 H    0.967
                            45 C    0.106
    55   6 C    3.991 --    54 C    1.458    44 C    1.390    92 H    0.967
                            46 C    0.106
    56   8 O    2.026 --    43 C    1.707    42 N    0.189
    57   1 H    0.999 --     1 C    0.965
    58   1 H    0.998 --     2 C    0.968
    59   1 H    0.998 --     4 C    0.968
    60   1 H    0.999 --     5 C    0.971
    61   1 H    0.998 --     6 C    0.971
    62   1 H    0.998 --     7 C    0.968
    63   1 H    0.998 --     9 C    0.965
    64   1 H    0.995 --    11 C    0.951
    65   1 H    0.993 --    12 C    0.952
    66   1 H    0.997 --    14 C    0.965
    67   1 H    0.998 --    16 C    0.968
    68   1 H    0.998 --    17 C    0.971
    69   1 H    0.998 --    18 C    0.971
    70   1 H    0.998 --    19 C    0.968
    71   1 H    0.998 --    21 C    0.968
    72   1 H    0.998 --    22 C    0.964
    73   1 H    0.998 --    26 C    0.967
    74   1 H    0.998 --    27 C    0.967
    75   1 H    0.999 --    30 C    0.968
    76   1 H    0.998 --    31 C    0.970
    77   1 H    0.998 --    32 C    0.971
    78   1 H    0.998 --    33 C    0.971
    79   1 H    0.999 --    34 C    0.968
    80   1 H    0.998 --    35 C    0.967
    81   1 H    0.998 --    36 C    0.968
    82   1 H    0.995 --    38 C    0.921
    83   1 H    0.882 --    40 O    0.856
    84   1 H    0.996 --    45 C    0.968
    85   1 H    0.998 --    46 C    0.967
    86   1 H    0.999 --    49 C    0.968
    87   1 H    0.998 --    50 C    0.971
    88   1 H    0.999 --    51 C    0.971
    89   1 H    0.999 --    52 C    0.969
    90   1 H    0.999 --    53 C    0.966
    91   1 H    0.998 --    54 C    0.967
    92   1 H    0.999 --    55 C    0.967
 ---------------------------------------------------------------------------

molecular dipole:
                 x           y           z       tot (Debye)
 q only:       -0.593       0.947      -1.045
   full:       -0.623       1.268      -1.269       4.827

           -------------------------------------------------
          | TOTAL ENERGY             -147.581601501160 Eh   |
          | GRADIENT NORM               0.000370736818 Eh/Î± |
          | HOMO-LUMO GAP               2.921786380503 eV   |
           -------------------------------------------------

 * finished run on 2022/03/17 at 01:32:58.656
