   * xtb version 6.3.3 (4ae9cef) compiled by 'conda@95abc7406d43' on 2020-10-14
          program call               : xtb acid_100.xyz --opt --chrg 0 --uhf 0 --gfn 2
          number of atoms            :                    78
          number of electrons        :                   226
          charge                     :                     0
          spin                       :                   0.0

   ID    Z sym.   atoms
    1    6 C      1-22, 24-31, 33, 34, 38-45
    2    7 N      23, 37
    3    8 O      32, 35, 36, 46
    4    1 H      47-78

          :  Hamiltonian                  GFN2-xTB          :
 * total energy  :  -124.0810429 Eh     change       -0.5326385E-08 Eh
 * total energy  :  -124.1054054 Eh     change       -0.2436245E-01 Eh
 * total energy  :  -124.1129983 Eh     change       -0.7592980E-02 Eh
 * total energy  :  -124.1158642 Eh     change       -0.2865889E-02 Eh
 * total energy  :  -124.1180730 Eh     change       -0.2208772E-02 Eh
 * total energy  :  -124.1197999 Eh     change       -0.1726936E-02 Eh
 * total energy  :  -124.1215305 Eh     change       -0.1730618E-02 Eh
 * total energy  :  -124.1227495 Eh     change       -0.1218910E-02 Eh
 * total energy  :  -124.1238658 Eh     change       -0.1116315E-02 Eh
 * total energy  :  -124.1246611 Eh     change       -0.7953367E-03 Eh
 * total energy  :  -124.1504500 Eh     change       -0.2855507E-04 Eh
 * total energy  :  -124.1504737 Eh     change       -0.2369297E-04 Eh
 * total energy  :  -124.1504929 Eh     change       -0.1920521E-04 Eh
 * total energy  :  -124.1505087 Eh     change       -0.1574903E-04 Eh
 * total energy  :  -124.1505202 Eh     change       -0.1159031E-04 Eh
 * total energy  :  -124.1505275 Eh     change       -0.7278015E-05 Eh
 * total energy  :  -124.1505216 Eh     change        0.5882080E-05 Eh
 * total energy  :  -124.1505309 Eh     change       -0.9251270E-05 Eh
 * total energy  :  -124.1505355 Eh     change       -0.4643607E-05 Eh
   *** GEOMETRY OPTIMIZATION CONVERGED AFTER 88 ITERATIONS ***

 final structure:
================
78
 xtb: 6.3.3 (4ae9cef)
C         3.18440464630131   -2.19643929194684    2.62170950955192
C         3.19850913433012   -3.26182371371586    1.76852449309237
C         2.55592905010173   -3.16670129149183    0.52598699458060
C         1.93806255684191   -2.00803994121734    0.14815726205674
C         1.92943225917514   -0.87430825579462    0.98986004973995
C         2.54700544495054   -0.98901309191486    2.26658384944163
C         2.51033579995093    0.09705393388266    3.16346558495024
C         1.87805836265371    1.25863870111526    2.82270745596427
C         1.30268752258033    1.39345654096336    1.55505095192135
C         1.34712733321156    0.37081941018855    0.63704172224594
C         0.75791110977729    0.63737758602960   -0.72877313102536
C        -0.77673183058847    0.81723236143524   -0.63545663954643
C        -1.55109535645131   -0.24244594289331   -1.38303913502061
C        -1.69531723832453   -0.12915204365067   -2.74325784510085
C        -2.48736623190641   -1.02604240934391   -3.47034557661593
C        -3.15312134679308   -2.02616444581685   -2.82242604208243
C        -3.00775438777539   -2.20027696622559   -1.43105084060776
C        -2.16754721154363   -1.32102135277983   -0.69381449174814
C        -1.99540682056824   -1.57123442318702    0.68515021285614
C        -2.65323709161922   -2.59649286652136    1.30495895055900
C        -3.51685542272379   -3.43234523401815    0.58344001860748
C        -3.68064299429354   -3.24176975698044   -0.75848918856504
N        -1.02016716176459    2.14678214690630   -1.16534047089348
C        -2.18684114251787    2.82726357990592   -1.02862912076754
C        -3.27243234720181    1.99341215176362   -0.41921386212606
C        -3.33932909609851    1.80316313215797    0.95378928544646
C        -4.28771633173146    0.95117829874025    1.49087348741305
C        -5.18458093953321    0.27768265883453    0.67330731276162
C        -6.17499609187312   -0.69155372772574    1.24051827157895
C        -5.13913229400411    0.51068732740519   -0.69631812109014
C        -4.19687483418181    1.36135965246722   -1.24038091789752
O        -2.31277360469581    3.97491215574069   -1.39610545198533
C         0.15793926301235    2.72988328531537   -1.76307719829946
C         0.32623445122008    4.21607863930059   -1.38728437977130
O         0.34342874854999    4.37411884241252   -0.06032143978031
O         0.38542058556382    5.10489052292675   -2.17990148905919
N         1.23622637245429    1.89997867145677   -1.27274987964312
C         2.49364948178440    2.39972073322302   -1.15501668387698
C         3.52959697470781    1.41700103651219   -0.72513640538795
C         4.29687389863970    1.67534191636701    0.40392467726263
C         5.23593442033766    0.75652059708594    0.82977735455531
C         5.45318665265247   -0.42064911507878    0.12436170563555
C         6.43741869789084   -1.43812880655847    0.61143343239382
C         4.72431137877646   -0.64253220134842   -1.03757214880126
C         3.77016966916507    0.26261951279768   -1.46024307912881
O         2.73414465417246    3.56407809254486   -1.40590700207590
H         3.65907408253841   -2.26049746759734    3.59057681789046
H         3.68971846787014   -4.18298929113907    2.04600142183652
H         2.54999826581560   -4.02121399181557   -0.13437792917105
H         1.43665265703278   -1.97564779455423   -0.80655022727565
H         2.98612846483457   -0.01051707141214    4.12737630231278
H         1.83322305305199    2.08594538235587    3.51488883272961
H         0.84619412438523    2.33493558661652    1.28398413852020
H         0.98939004325647   -0.16964551874187   -1.43055704626185
H        -1.07864783983509    0.80964014417138    0.41505566453696
H        -1.21515049112413    0.68451163401138   -3.26631823645800
H        -2.58284547996644   -0.90139922501724   -4.53848303191296
H        -3.79563154850608   -2.70366859400953   -3.36572881428640
H        -1.31893782725479   -0.96307616190769    1.26537411745685
H        -2.50668053848361   -2.76982607548297    2.36040884418117
H        -4.03717400831806   -4.22993597825594    1.09298142298690
H        -4.32680245362927   -3.89107066447647   -1.33204048909950
H        -2.64709391793541    2.32102689969685    1.60291791852786
H        -4.32398325585536    0.80180252760124    2.56020683776245
H        -5.92208251423638   -1.70347566959906    0.92400451293504
H        -7.17851061556835   -0.46936308849728    0.88240150475495
H        -6.17470559279903   -0.65983149582272    2.32685483319558
H        -5.84418551057833    0.01005888002805   -1.34373913476974
H        -4.16613004481301    1.52968962324518   -2.30631629510220
H         0.10997916919265    2.69571480920800   -2.86719793782953
H         0.43840165221491    5.31671397640625    0.14706601657981
H         4.13579442498741    2.59049184019509    0.95302279459280
H         5.81014798810063    0.95588996059586    1.72288139487069
H         5.92110830021549   -2.18235063608970    1.21824954956757
H         7.20670158558501   -0.97481925607305    1.22367059391387
H         6.90951753553926   -1.95267310076878   -0.22181506529997
H         4.90248563438793   -1.53901598428368   -1.61371518899027
H         3.21997049728972    0.07947719214398   -2.37185416447934

          :  Hamiltonian                  GFN2-xTB          :
         :: total energy            -124.150535536752 Eh    ::
         :: gradient norm              0.000645965876 Eh/a0 ::
         :: HOMO-LUMO gap              2.951382478128 eV    ::
         :: SCC energy              -126.193507106016 Eh    ::
         :: -> dispersion             -0.126212239348 Eh    ::
         :: repulsion energy           2.036808808239 Eh    ::

    * Orbital Energies and Occupations

         #    Occupation            Energy/Eh            Energy/eV
      -------------------------------------------------------------
         1        2.0000           -0.7377658             -20.0756
       ...           ...                  ...                  ...
       101        2.0000           -0.4256005             -11.5812
       102        2.0000           -0.4165430             -11.3347
       103        2.0000           -0.4163484             -11.3294
       104        2.0000           -0.4136236             -11.2553
       105        2.0000           -0.4127998             -11.2329
       106        2.0000           -0.4084733             -11.1151
       107        2.0000           -0.4066233             -11.0648
       108        2.0000           -0.4018503             -10.9349
       109        2.0000           -0.3955289             -10.7629
       110        2.0000           -0.3947674             -10.7422
       111        2.0000           -0.3916105             -10.6563
       112        2.0000           -0.3888494             -10.5811
       113        2.0000           -0.3875773             -10.5465 (HOMO)
       114                         -0.2791159              -7.5951 (LUMO)
       115                         -0.2747508              -7.4763
       116                         -0.2478890              -6.7454
       117                         -0.2440764              -6.6417
       118                         -0.2425040              -6.5989
       119                         -0.2348882              -6.3916
       120                         -0.2315040              -6.2995
       121                         -0.2309426              -6.2843
       122                         -0.2244212              -6.1068
       123                         -0.2139182              -5.8210
       124                         -0.2073979              -5.6436
       ...                                ...                  ...
       216                          0.6840225              18.6132
      -------------------------------------------------------------
                  HL-Gap            0.1084613 Eh            2.9514 eV

     #   Z          covCN         q      C6AA      Î±(0)
     1   6 C        2.921    -0.034    28.843     8.807
     2   6 C        2.915    -0.030    28.740     8.791
     3   6 C        2.917    -0.028    28.699     8.785
     4   6 C        2.917    -0.034    28.856     8.809
     5   6 C        2.983     0.007    27.853     8.657
     6   6 C        2.989     0.015    27.675     8.630
     7   6 C        2.921    -0.036    28.890     8.814
     8   6 C        2.914    -0.029    28.731     8.790
     9   6 C        2.924    -0.038    28.944     8.823
    10   6 C        2.969    -0.009    28.247     8.718
    11   6 C        3.816     0.042    19.851     6.341
    12   6 C        3.819     0.038    19.926     6.353
    13   6 C        2.967    -0.011    28.284     8.723
    14   6 C        2.922    -0.034    28.843     8.807
    15   6 C        2.914    -0.029    28.734     8.790
    16   6 C        2.921    -0.035    28.877     8.812
    17   6 C        2.989     0.015    27.660     8.627
    18   6 C        2.984     0.007    27.866     8.659
    19   6 C        2.917    -0.035    28.871     8.811
    20   6 C        2.917    -0.027    28.687     8.783
    21   6 C        2.915    -0.029    28.728     8.789
    22   6 C        2.921    -0.034    28.849     8.808
    23   7 N        2.766    -0.116    23.528     7.204
    24   6 C        2.762     0.273    22.380     7.747
    25   6 C        2.980    -0.018    28.455     8.750
    26   6 C        2.921    -0.030    28.744     8.792
    27   6 C        2.925    -0.038    28.948     8.823
    28   6 C        2.966     0.020    27.550     8.609
    29   6 C        3.758    -0.111    22.672     6.788
    30   6 C        2.926    -0.037    28.916     8.819
    31   6 C        2.922    -0.025    28.618     8.773
    32   8 O        0.859    -0.419    22.055     6.297
    33   6 C        3.759     0.105    18.895     6.197
    34   6 C        2.686     0.380    20.570     7.422
    35   8 O        1.659    -0.371    20.296     6.082
    36   8 O        0.856    -0.365    20.986     6.142
    37   7 N        2.763    -0.118    23.573     7.211
    38   6 C        2.764     0.274    22.374     7.746
    39   6 C        2.977    -0.017    28.439     8.748
    40   6 C        2.923    -0.022    28.545     8.762
    41   6 C        2.925    -0.037    28.914     8.818
    42   6 C        2.967     0.022    27.519     8.605
    43   6 C        3.758    -0.111    22.681     6.790
    44   6 C        2.925    -0.037    28.928     8.820
    45   6 C        2.921    -0.030    28.738     8.791
    46   8 O        0.859    -0.421    22.101     6.303
    47   1 H        0.926     0.036     2.498     2.472
    48   1 H        0.926     0.034     2.527     2.486
    49   1 H        0.926     0.035     2.522     2.483
    50   1 H        0.926     0.027     2.631     2.536
    51   1 H        0.926     0.039     2.468     2.457
    52   1 H        0.926     0.040     2.452     2.449
    53   1 H        0.926     0.050     2.317     2.380
    54   1 H        0.924     0.049     2.336     2.390
    55   1 H        0.924     0.057     2.232     2.336
    56   1 H        0.926     0.037     2.495     2.470
    57   1 H        0.926     0.040     2.447     2.446
    58   1 H        0.926     0.039     2.458     2.452
    59   1 H        0.926     0.026     2.640     2.541
    60   1 H        0.926     0.035     2.521     2.483
    61   1 H        0.926     0.035     2.516     2.481
    62   1 H        0.926     0.037     2.492     2.469
    63   1 H        0.926     0.034     2.535     2.490
    64   1 H        0.926     0.036     2.502     2.474
    65   1 H        0.925     0.048     2.340     2.392
    66   1 H        0.925     0.051     2.309     2.376
    67   1 H        0.925     0.044     2.392     2.419
    68   1 H        0.926     0.037     2.489     2.467
    69   1 H        0.926     0.037     2.486     2.466
    70   1 H        0.922     0.058     2.224     2.332
    71   1 H        0.805     0.341     0.610     1.226
    72   1 H        0.926     0.044     2.393     2.419
    73   1 H        0.926     0.038     2.472     2.459
    74   1 H        0.924     0.050     2.315     2.379
    75   1 H        0.925     0.048     2.350     2.397
    76   1 H        0.925     0.048     2.346     2.395
    77   1 H        0.926     0.036     2.499     2.472
    78   1 H        0.926     0.031     2.579     2.511

Wiberg/Mayer (AO) data.
largest (>0.10) Wiberg bond orders for each atom

     #   Z sym  total        # sym  WBO       # sym  WBO       # sym  WBO
 ---------------------------------------------------------------------------
     1   6 C    3.991 --     2 C    1.558     6 C    1.278    47 H    0.968
                             4 C    0.118
     2   6 C    3.992 --     1 C    1.558     3 C    1.320    48 H    0.971
     3   6 C    3.990 --     4 C    1.556     2 C    1.320    49 H    0.971
     4   6 C    3.992 --     3 C    1.556     5 C    1.282    50 H    0.961
                             1 C    0.118
     5   6 C    3.989 --     4 C    1.282    10 C    1.258     6 C    1.250
     6   6 C    3.990 --     7 C    1.282     1 C    1.278     5 C    1.250
     7   6 C    3.989 --     8 C    1.546     6 C    1.282    51 H    0.968
                            10 C    0.115
     8   6 C    3.992 --     7 C    1.546     9 C    1.334    52 H    0.970
     9   6 C    3.989 --    10 C    1.514     8 C    1.334    53 H    0.964
    10   6 C    3.984 --     9 C    1.514     5 C    1.258    11 C    0.989
                             7 C    0.115
    11   6 C    3.968 --    10 C    0.989    37 N    0.963    54 H    0.949
                            12 C    0.949
    12   6 C    3.966 --    13 C    0.987    23 N    0.966    11 C    0.949
                            55 H    0.945
    13   6 C    3.984 --    14 C    1.523    18 C    1.252    12 C    0.987
                            16 C    0.115
    14   6 C    3.990 --    13 C    1.523    15 C    1.327    56 H    0.967
    15   6 C    3.992 --    16 C    1.552    14 C    1.327    57 H    0.970
    16   6 C    3.989 --    15 C    1.552    17 C    1.279    58 H    0.968
                            13 C    0.115
    17   6 C    3.990 --    16 C    1.279    22 C    1.279    18 C    1.253
    18   6 C    3.988 --    19 C    1.284    17 C    1.253    13 C    1.252
    19   6 C    3.992 --    20 C    1.554    18 C    1.284    59 H    0.962
                            22 C    0.118
    20   6 C    3.991 --    19 C    1.554    21 C    1.322    60 H    0.971
    21   6 C    3.992 --    22 C    1.557    20 C    1.322    61 H    0.971
    22   6 C    3.991 --    21 C    1.557    17 C    1.279    62 H    0.968
                            19 C    0.118
    23   7 N    3.464 --    24 C    1.210    33 C    0.977    12 C    0.966
                            32 O    0.192
    24   6 C    3.944 --    32 O    1.695    23 N    1.210    25 C    0.954
    25   6 C    3.988 --    26 C    1.408    31 C    1.400    24 C    0.954
                            28 C    0.108
    26   6 C    3.991 --    27 C    1.442    25 C    1.408    63 H    0.969
                            30 C    0.110
    27   6 C    3.990 --    26 C    1.442    28 C    1.413    64 H    0.968
                            31 C    0.107
    28   6 C    3.988 --    27 C    1.413    30 C    1.404    29 C    1.027
                            25 C    0.108
    29   6 C    3.996 --    28 C    1.027    67 H    0.985    66 H    0.975
                            65 H    0.968
    30   6 C    3.991 --    31 C    1.453    28 C    1.404    68 H    0.969
                            26 C    0.110
    31   6 C    3.991 --    30 C    1.453    25 C    1.400    69 H    0.969
                            27 C    0.107
    32   8 O    2.034 --    24 C    1.695    23 N    0.192
    33   6 C    3.961 --    23 N    0.977    37 N    0.977    70 H    0.941
                            34 C    0.911
    34   6 C    3.927 --    36 O    1.797    35 O    1.130    33 C    0.911
    35   8 O    2.196 --    34 C    1.130    71 H    0.860    36 O    0.173
    36   8 O    2.084 --    34 C    1.797    35 O    0.173
    37   7 N    3.457 --    38 C    1.210    33 C    0.977    11 C    0.963
                            46 O    0.187
    38   6 C    3.943 --    46 O    1.675    37 N    1.210    39 C    0.971
    39   6 C    3.987 --    40 C    1.397    45 C    1.396    38 C    0.971
                            42 C    0.105
    40   6 C    3.990 --    41 C    1.452    39 C    1.397    72 H    0.969
                            44 C    0.107
    41   6 C    3.991 --    40 C    1.452    42 C    1.407    73 H    0.968
                            45 C    0.106
    42   6 C    3.988 --    41 C    1.407    44 C    1.405    43 C    1.027
                            39 C    0.105
    43   6 C    3.996 --    42 C    1.027    75 H    0.982    76 H    0.980
                            74 H    0.965
    44   6 C    3.991 --    45 C    1.453    42 C    1.405    77 H    0.969
                            40 C    0.107
    45   6 C    3.992 --    44 C    1.453    39 C    1.396    78 H    0.969
                            41 C    0.106
    46   8 O    2.042 --    38 C    1.675    37 N    0.187
    47   1 H    0.998 --     1 C    0.968
    48   1 H    0.998 --     2 C    0.971
    49   1 H    0.998 --     3 C    0.971
    50   1 H    0.999 --     4 C    0.961
    51   1 H    0.997 --     7 C    0.968
    52   1 H    0.997 --     8 C    0.970
    53   1 H    0.997 --     9 C    0.964
    54   1 H    0.997 --    11 C    0.949
    55   1 H    0.996 --    12 C    0.945
    56   1 H    0.998 --    14 C    0.967
    57   1 H    0.997 --    15 C    0.970
    58   1 H    0.997 --    16 C    0.968
    59   1 H    0.999 --    19 C    0.962
    60   1 H    0.998 --    20 C    0.971
    61   1 H    0.998 --    21 C    0.971
    62   1 H    0.998 --    22 C    0.968
    63   1 H    0.999 --    26 C    0.969
    64   1 H    0.998 --    27 C    0.968
    65   1 H    0.997 --    29 C    0.968
    66   1 H    0.997 --    29 C    0.975
    67   1 H    0.998 --    29 C    0.985
    68   1 H    0.998 --    30 C    0.969
    69   1 H    0.998 --    31 C    0.969
    70   1 H    0.996 --    33 C    0.941
    71   1 H    0.884 --    35 O    0.860
    72   1 H    0.998 --    40 C    0.969
    73   1 H    0.998 --    41 C    0.968
    74   1 H    0.997 --    43 C    0.965
    75   1 H    0.997 --    43 C    0.982
    76   1 H    0.997 --    43 C    0.980
    77   1 H    0.998 --    44 C    0.969
    78   1 H    0.999 --    45 C    0.969
 ---------------------------------------------------------------------------

molecular dipole:
                 x           y           z       tot (Debye)
 q only:       -0.122      -3.805       1.787
   full:       -0.122      -3.960       1.845      11.109

           -------------------------------------------------
          | TOTAL ENERGY             -124.150535536752 Eh   |
          | GRADIENT NORM               0.000645965876 Eh/Î± |
          | HOMO-LUMO GAP               2.951382478128 eV   |
           -------------------------------------------------

 * finished run on 2022/03/16 at 21:19:32.353
