   * xtb version 6.3.3 (4ae9cef) compiled by 'conda@95abc7406d43' on 2020-10-14
          program call               : xtb acid_104.xyz --opt --chrg 0 --uhf 0 --gfn 2
          number of atoms            :                    66
          number of electrons        :                   226
          charge                     :                     0
          spin                       :                   0.0

   ID    Z sym.   atoms
    1    8 O      1, 16, 17, 30
    2    6 C      2-7, 11, 12, 14, 15, 19-24, 28, 29, 31-44
    3    9 F      8-10, 25-27
    4    7 N      13, 18
    5    1 H      45-66

          :  Hamiltonian                  GFN2-xTB          :
 * total energy  :  -130.2894519 Eh     change       -0.1001837E-08 Eh
 * total energy  :  -130.3041183 Eh     change       -0.1466638E-01 Eh
 * total energy  :  -130.3084830 Eh     change       -0.4364681E-02 Eh
 * total energy  :  -130.3099037 Eh     change       -0.1420748E-02 Eh
 * total energy  :  -130.3110149 Eh     change       -0.1111206E-02 Eh
 * total energy  :  -130.3117861 Eh     change       -0.7711502E-03 Eh
 * total energy  :  -130.3124045 Eh     change       -0.6184538E-03 Eh
 * total energy  :  -130.3129438 Eh     change       -0.5392853E-03 Eh
 * total energy  :  -130.3134331 Eh     change       -0.4892861E-03 Eh
 * total energy  :  -130.3139191 Eh     change       -0.4860218E-03 Eh
 * total energy  :  -130.3170836 Eh     change       -0.8987347E-05 Eh
 * total energy  :  -130.3170922 Eh     change       -0.8631071E-05 Eh
 * total energy  :  -130.3170914 Eh     change        0.8161160E-06 Eh
 * total energy  :  -130.3170982 Eh     change       -0.6849954E-05 Eh
 * total energy  :  -130.3171046 Eh     change       -0.6354440E-05 Eh
 * total energy  :  -130.3171060 Eh     change       -0.1368605E-05 Eh
 * total energy  :  -130.3171023 Eh     change        0.3613807E-05 Eh
 * total energy  :  -130.3171099 Eh     change       -0.7561011E-05 Eh
 * total energy  :  -130.3171129 Eh     change       -0.2969161E-05 Eh
   *** GEOMETRY OPTIMIZATION CONVERGED AFTER 53 ITERATIONS ***

 final structure:
================
66
 xtb: 6.3.3 (4ae9cef)
O        -2.79248782409334   -1.06669336307006    2.23402635742024
C        -2.55600989418879   -0.11648043495088    1.52177063004113
C        -3.40379456005130    1.12012345616823    1.50818260324965
C        -4.68527490467580    1.04268885488306    0.97648874794933
C        -5.50512637052205    2.15449409458776    0.97792028880326
C        -5.04381017648971    3.34439964103038    1.52730884394817
C        -5.95100512354323    4.54246144592237    1.49644175102098
F        -6.14668254728539    4.98874865968667    0.23930078497566
F        -5.48529192288275    5.58282881184194    2.19782850416761
F        -7.17354322985765    4.26811221086160    1.98343379709431
C        -3.77449928882144    3.42504192443385    2.08121022825432
C        -2.95681578049307    2.30904242324710    2.07152823715982
N        -1.51369457134617   -0.11464076838485    0.65125282749420
C        -1.05497282540843    0.95275248822612   -0.19468315381567
C        -1.68471204480209    0.88428264478236   -1.60529212607725
O        -2.94094381601659    1.31433100795988   -1.59928473224456
O        -1.10542143552356    0.48886001353863   -2.57571376612361
N         0.35990701618754    0.70790440615500   -0.30261174154428
C         1.20141547111779    1.70528002755192   -0.67471979357507
C         2.59163394818797    1.26216607813635   -1.00573774211834
C         3.65847962294236    1.61276038788033   -0.18928635015224
C         4.93376896309529    1.17519559291284   -0.49243372404975
C         5.14001977336277    0.41343593761199   -1.63436478754223
C         6.50673064248952   -0.13275203826797   -1.93432309948191
F         6.76863844851040   -0.19779445148776   -3.24795649123771
F         6.64733220066346   -1.39262576386633   -1.46597649677487
F         7.49586093292769    0.57997830334955   -1.37958317196548
C         4.08599388959822    0.10645150285167   -2.48529767261764
C         2.81031800484212    0.53300077554061   -2.16876038929234
O         0.83579662667392    2.86080791825311   -0.72316932543605
C         0.63395154033761   -0.71576311797835   -0.18170813492664
C         1.90884717334333   -0.99274199397432    0.56929819334893
C         2.13811409723930   -0.39157096957500    1.80110605495421
C         3.31485565548672   -0.63229477430317    2.48586815659800
C         4.26966607646731   -1.48032893068443    1.94949787784032
C         4.03861909993670   -2.09756435716201    0.73230044687358
C         2.86103001523662   -1.85686153432772    0.04673501275121
C        -0.61836822555018   -1.25816501461785    0.56199049697586
C        -1.21151107627813   -2.44562450278614   -0.15820312836517
C        -2.39250213568970   -2.36565670886334   -0.87916596742950
C        -2.88421491832518   -3.47936104758676   -1.53879291814274
C        -2.19668186348238   -4.67865658562507   -1.48866896629253
C        -1.01446658570186   -4.76369854881609   -0.77148898303795
C        -0.52546016262178   -3.65394833502253   -0.10836032655644
H        -5.03703775094117    0.10842073311220    0.56731840818328
H        -6.50058608157636    2.10475552091656    0.56383614043820
H        -3.43100386628715    4.35031645047844    2.51714379413586
H        -1.97508714575879    2.36359841733531    2.51839624235420
H        -1.25551313815322    1.94841997602309    0.21721129581867
H        -3.32387551836036    1.29471601080085   -2.49289598449867
H         3.48468893600044    2.21184404798581    0.69056943009576
H         5.76526732715484    1.42380354886823    0.14842422952663
H         4.26722983337152   -0.46425246436446   -3.38319140685361
H         1.98168738891117    0.30369375668838   -2.82171738393656
H         0.68227956437370   -1.17289808906790   -1.17916558853226
H         1.39663620995975    0.27602377655344    2.21620883213805
H         3.48810216693791   -0.15664184584892    3.43946457229757
H         5.19145993953270   -1.66246862868410    2.48041055987559
H         4.77934541822829   -2.75973361192401    0.31117603113444
H         2.68161365456354   -2.33671958104126   -0.90431247172641
H        -0.36219053723399   -1.56644572724932    1.58355668362380
H        -2.94316560719335   -1.43710393394846   -0.91833998455230
H        -3.80749356081370   -3.40762446049232   -2.09453115941365
H        -2.58187474311973   -5.54562893930764   -2.00375775507507
H        -0.47648409489622   -5.69859152555920   -0.72234874676680
H         0.39231069030810   -3.71940779733218    0.45863840960911

          :  Hamiltonian                  GFN2-xTB          :
         :: total energy            -130.317112879211 Eh    ::
         :: gradient norm              0.000810709424 Eh/a0 ::
         :: HOMO-LUMO gap              3.578515460937 eV    ::
         :: SCC energy              -131.935919677147 Eh    ::
         :: -> dispersion             -0.095717138398 Eh    ::
         :: repulsion energy           1.616424257270 Eh    ::

    * Orbital Energies and Occupations

         #    Occupation            Energy/Eh            Energy/eV
      -------------------------------------------------------------
         1        2.0000           -0.8832607             -24.0347
       ...           ...                  ...                  ...
       101        2.0000           -0.4502625             -12.2523
       102        2.0000           -0.4496681             -12.2361
       103        2.0000           -0.4491199             -12.2212
       104        2.0000           -0.4470008             -12.1635
       105        2.0000           -0.4422139             -12.0333
       106        2.0000           -0.4305436             -11.7157
       107        2.0000           -0.4294281             -11.6853
       108        2.0000           -0.4279724             -11.6457
       109        2.0000           -0.4244251             -11.5492
       110        2.0000           -0.4233305             -11.5194
       111        2.0000           -0.4178121             -11.3692
       112        2.0000           -0.4156085             -11.3093
       113        2.0000           -0.4145404             -11.2802 (HOMO)
       114                         -0.2830324              -7.7017 (LUMO)
       115                         -0.2809843              -7.6460
       116                         -0.2795157              -7.6060
       117                         -0.2674635              -7.2781
       118                         -0.2665487              -7.2532
       119                         -0.2541812              -6.9166
       120                         -0.2488628              -6.7719
       121                         -0.2422335              -6.5915
       122                         -0.2412023              -6.5634
       123                         -0.2370421              -6.4502
       124                         -0.2336961              -6.3592
       ...                                ...                  ...
       198                          0.6466494              17.5962
      -------------------------------------------------------------
                  HL-Gap            0.1315080 Eh            3.5785 eV

     #   Z          covCN         q      C6AA      Î±(0)
     1   8 O        0.859    -0.406    21.803     6.260
     2   6 C        2.762     0.272    22.396     7.750
     3   6 C        2.975    -0.003    28.107     8.696
     4   6 C        2.925    -0.014    28.359     8.733
     5   6 C        2.922    -0.018    28.457     8.748
     6   6 C        2.978    -0.020    28.504     8.758
     7   6 C        3.336     0.486    17.284     6.583
     8   9 F        0.791    -0.209    11.332     3.976
     9   9 F        0.791    -0.202    11.256     3.963
    10   9 F        0.791    -0.206    11.297     3.970
    11   6 C        2.919    -0.020    28.506     8.755
    12   6 C        2.923    -0.023    28.587     8.768
    13   7 N        2.765    -0.109    23.383     7.182
    14   6 C        3.774     0.088    19.149     6.235
    15   6 C        2.689     0.356    20.951     7.491
    16   8 O        1.659    -0.365    20.184     6.065
    17   8 O        0.856    -0.378    21.253     6.181
    18   7 N        2.771    -0.107    23.344     7.176
    19   6 C        2.765     0.275    22.359     7.744
    20   6 C        2.978     0.000    28.016     8.682
    21   6 C        2.923    -0.016    28.416     8.742
    22   6 C        2.921    -0.021    28.528     8.759
    23   6 C        2.978    -0.022    28.561     8.766
    24   6 C        3.336     0.485    17.290     6.584
    25   9 F        0.791    -0.203    11.270     3.966
    26   9 F        0.791    -0.212    11.362     3.982
    27   9 F        0.791    -0.203    11.265     3.965
    28   6 C        2.921    -0.020    28.511     8.756
    29   6 C        2.924    -0.022    28.562     8.764
    30   8 O        0.859    -0.420    22.091     6.302
    31   6 C        3.822     0.034    19.985     6.362
    32   6 C        2.973    -0.003    28.091     8.694
    33   6 C        2.924    -0.035    28.868     8.811
    34   6 C        2.919    -0.028    28.692     8.784
    35   6 C        2.921    -0.028    28.706     8.786
    36   6 C        2.919    -0.028    28.698     8.785
    37   6 C        2.924    -0.037    28.909     8.817
    38   6 C        3.830     0.041    19.865     6.342
    39   6 C        2.972     0.006    27.879     8.661
    40   6 C        2.923    -0.026    28.660     8.779
    41   6 C        2.920    -0.025    28.632     8.775
    42   6 C        2.920    -0.027    28.687     8.783
    43   6 C        2.920    -0.025    28.626     8.774
    44   6 C        2.926    -0.035    28.862     8.810
    45   1 H        0.926     0.061     2.185     2.312
    46   1 H        0.926     0.066     2.131     2.283
    47   1 H        0.926     0.071     2.077     2.254
    48   1 H        0.926     0.054     2.272     2.357
    49   1 H        0.924     0.094     1.845     2.124
    50   1 H        0.804     0.348     0.592     1.209
    51   1 H        0.926     0.062     2.181     2.309
    52   1 H        0.926     0.067     2.117     2.275
    53   1 H        0.926     0.067     2.117     2.275
    54   1 H        0.926     0.065     2.147     2.291
    55   1 H        0.923     0.058     2.229     2.335
    56   1 H        0.926     0.035     2.512     2.478
    57   1 H        0.926     0.044     2.399     2.422
    58   1 H        0.926     0.046     2.373     2.409
    59   1 H        0.926     0.051     2.313     2.378
    60   1 H        0.926     0.035     2.515     2.480
    61   1 H        0.924     0.075     2.027     2.226
    62   1 H        0.926     0.022     2.705     2.572
    63   1 H        0.926     0.039     2.465     2.455
    64   1 H        0.926     0.041     2.431     2.438
    65   1 H        0.926     0.042     2.425     2.435
    66   1 H        0.926     0.034     2.527     2.486

Wiberg/Mayer (AO) data.
largest (>0.10) Wiberg bond orders for each atom

     #   Z sym  total        # sym  WBO       # sym  WBO       # sym  WBO
 ---------------------------------------------------------------------------
     1   8 O    2.032 --     2 C    1.702    13 N    0.195
     2   6 C    3.949 --     1 O    1.702    13 N    1.207     3 C    0.956
     3   6 C    3.988 --    12 C    1.408     4 C    1.405     2 C    0.956
                             6 C    0.106
     4   6 C    3.989 --     5 C    1.448     3 C    1.405    45 H    0.967
                            11 C    0.110
     5   6 C    3.988 --     4 C    1.448     6 C    1.409    46 H    0.966
                            12 C    0.111
     6   6 C    3.976 --    11 C    1.417     5 C    1.409     7 C    0.950
                             3 C    0.106
     7   6 C    3.827 --     9 F    0.955     6 C    0.950    10 F    0.946
                             8 F    0.939
     8   9 F    1.068 --     7 C    0.939
     9   9 F    1.078 --     7 C    0.955
    10   9 F    1.072 --     7 C    0.946
    11   6 C    3.988 --    12 C    1.441     6 C    1.417    47 H    0.965
                             4 C    0.110
    12   6 C    3.990 --    11 C    1.441     3 C    1.408    48 H    0.967
                             5 C    0.111
    13   7 N    3.475 --     2 C    1.207    14 C    0.986    38 C    0.963
                             1 O    0.195
    14   6 C    3.967 --    18 N    0.987    13 N    0.986    49 H    0.935
                            15 C    0.903
    15   6 C    3.918 --    17 O    1.789    16 O    1.158    14 C    0.903
    16   8 O    2.220 --    15 C    1.158    50 H    0.852    17 O    0.183
    17   8 O    2.067 --    15 C    1.789    16 O    0.183
    18   7 N    3.470 --    19 C    1.212    14 C    0.987    31 C    0.961
                            30 O    0.192
    19   6 C    3.948 --    30 O    1.692    18 N    1.212    20 C    0.960
    20   6 C    3.988 --    21 C    1.408    29 C    1.401    19 C    0.960
                            23 C    0.105
    21   6 C    3.989 --    22 C    1.444    20 C    1.408    51 H    0.967
                            28 C    0.110
    22   6 C    3.988 --    21 C    1.444    23 C    1.413    52 H    0.966
                            29 C    0.110
    23   6 C    3.975 --    22 C    1.413    28 C    1.409    24 C    0.952
                            20 C    0.105
    24   6 C    3.826 --    27 F    0.953    23 C    0.952    25 F    0.951
                            26 F    0.934
    25   9 F    1.075 --    24 C    0.951
    26   9 F    1.064 --    24 C    0.934
    27   9 F    1.077 --    24 C    0.953
    28   6 C    3.988 --    29 C    1.448    23 C    1.409    53 H    0.966
                            21 C    0.110
    29   6 C    3.989 --    28 C    1.448    20 C    1.401    54 H    0.966
                            22 C    0.110
    30   8 O    2.020 --    19 C    1.692    18 N    0.192
    31   6 C    3.963 --    32 C    0.992    18 N    0.961    55 H    0.953
                            38 C    0.948
    32   6 C    3.985 --    37 C    1.414    33 C    1.407    31 C    0.992
                            35 C    0.109
    33   6 C    3.991 --    34 C    1.449    32 C    1.407    56 H    0.969
                            36 C    0.111
    34   6 C    3.992 --    33 C    1.449    35 C    1.435    57 H    0.970
                            37 C    0.109
    35   6 C    3.990 --    36 C    1.440    34 C    1.435    58 H    0.970
                            32 C    0.109
    36   6 C    3.991 --    37 C    1.442    35 C    1.440    59 H    0.969
                            33 C    0.111
    37   6 C    3.990 --    36 C    1.442    32 C    1.414    60 H    0.968
                            34 C    0.109
    38   6 C    3.960 --    39 C    0.986    13 N    0.963    31 C    0.948
                            61 H    0.948
    39   6 C    3.985 --    40 C    1.423    44 C    1.404    38 C    0.986
                            42 C    0.110
    40   6 C    3.991 --    41 C    1.436    39 C    1.423    62 H    0.967
                            43 C    0.110
    41   6 C    3.992 --    42 C    1.446    40 C    1.436    63 H    0.971
                            44 C    0.113
    42   6 C    3.991 --    41 C    1.446    43 C    1.432    64 H    0.971
                            39 C    0.110
    43   6 C    3.991 --    44 C    1.453    42 C    1.432    65 H    0.970
                            40 C    0.110
    44   6 C    3.991 --    43 C    1.453    39 C    1.404    66 H    0.969
                            41 C    0.113
    45   1 H    0.996 --     4 C    0.967
    46   1 H    0.995 --     5 C    0.966
    47   1 H    0.994 --    11 C    0.965
    48   1 H    0.997 --    12 C    0.967
    49   1 H    0.991 --    14 C    0.935
    50   1 H    0.878 --    16 O    0.852
    51   1 H    0.996 --    21 C    0.967
    52   1 H    0.995 --    22 C    0.966
    53   1 H    0.995 --    28 C    0.966
    54   1 H    0.996 --    29 C    0.966
    55   1 H    0.996 --    31 C    0.953
    56   1 H    0.999 --    33 C    0.969
    57   1 H    0.998 --    34 C    0.970
    58   1 H    0.997 --    35 C    0.970
    59   1 H    0.997 --    36 C    0.969
    60   1 H    0.999 --    37 C    0.968
    61   1 H    0.994 --    38 C    0.948
    62   1 H    1.000 --    40 C    0.967
    63   1 H    0.998 --    41 C    0.971
    64   1 H    0.998 --    42 C    0.971
    65   1 H    0.998 --    43 C    0.970
    66   1 H    0.999 --    44 C    0.969
 ---------------------------------------------------------------------------

molecular dipole:
                 x           y           z       tot (Debye)
 q only:        0.015      -1.593      -0.043
   full:       -0.092      -1.404      -0.227       3.622

           -------------------------------------------------
          | TOTAL ENERGY             -130.317112879211 Eh   |
          | GRADIENT NORM               0.000810709424 Eh/Î± |
          | HOMO-LUMO GAP               3.578515460937 eV   |
           -------------------------------------------------

 * finished run on 2022/03/16 at 21:21:56.670
