   * xtb version 6.3.3 (4ae9cef) compiled by 'conda@95abc7406d43' on 2020-10-14
          program call               : xtb acid_4.xyz --opt --chrg 0 --uhf 0 --gfn 2
          number of atoms            :                    66
          number of electrons        :                   218
          charge                     :                     0
          spin                       :                   0.0

   ID    Z sym.   atoms
    1    6 C      1-22, 24-27, 29, 32, 33, 37-40, 42
    2    7 N      23, 36
    3   35 Br     28, 41
    4   16 S      30, 43
    5    8 O      31, 34, 35, 44
    6    1 H      45-66

          :  Hamiltonian                  GFN2-xTB          :
 * total energy  :  -120.7892510 Eh     change       -0.6757659E-08 Eh
 * total energy  :  -120.8047479 Eh     change       -0.1549695E-01 Eh
 * total energy  :  -120.8093512 Eh     change       -0.4603324E-02 Eh
 * total energy  :  -120.8106235 Eh     change       -0.1272248E-02 Eh
 * total energy  :  -120.8115578 Eh     change       -0.9343053E-03 Eh
 * total energy  :  -120.8120567 Eh     change       -0.4988904E-03 Eh
 * total energy  :  -120.8125174 Eh     change       -0.4607553E-03 Eh
 * total energy  :  -120.8129332 Eh     change       -0.4157589E-03 Eh
 * total energy  :  -120.8133802 Eh     change       -0.4469762E-03 Eh
 * total energy  :  -120.8139270 Eh     change       -0.5467831E-03 Eh
 * total energy  :  -120.8238416 Eh     change       -0.9149569E-05 Eh
 * total energy  :  -120.8238525 Eh     change       -0.1089586E-04 Eh
 * total energy  :  -120.8238520 Eh     change        0.4698891E-06 Eh
 * total energy  :  -120.8238590 Eh     change       -0.7008055E-05 Eh
 * total energy  :  -120.8238691 Eh     change       -0.1009119E-04 Eh
 * total energy  :  -120.8238590 Eh     change        0.1013016E-04 Eh
 * total energy  :  -120.8238726 Eh     change       -0.1359693E-04 Eh
 * total energy  :  -120.8238799 Eh     change       -0.7310016E-05 Eh
 * total energy  :  -120.8238843 Eh     change       -0.4406622E-05 Eh
   *** GEOMETRY OPTIMIZATION CONVERGED AFTER 78 ITERATIONS ***

 final structure:
================
66
 xtb: 6.3.3 (4ae9cef)
C         0.48293092189403    2.67781941922728    1.14395780496939
C         0.85708938414619    3.96794675829425    0.90301577530996
C         1.55438379546057    4.31249236606445   -0.27300124263841
C         1.95533287876807    5.63498666365608   -0.55321584923119
C         2.64147868882733    5.92843386300748   -1.69826334654008
C         2.95872676045014    4.91316851674282   -2.61449665079857
C         2.58419640430248    3.62178829807769   -2.37089345331007
C         1.87361719356962    3.28638501639807   -1.19937173175516
C         1.47037615316772    1.96554760997685   -0.92204436789524
C         0.77862768097223    1.65799753438890    0.22028813264997
C         0.33945713536020    0.24730109421150    0.50018504019609
C        -0.63137473231330   -0.33495225315191   -0.54163258840118
C        -2.08414078876157    0.04075533698855   -0.46650516974509
C        -2.59601639130828    0.90250828153044    0.46328324389990
C        -3.96331730990989    1.24935623661725    0.45630108731351
C        -4.50907050304973    2.13468909325203    1.40833642640979
C        -5.83914284106971    2.44977011868565    1.38665058800302
C        -6.68309714198654    1.89563016511914    0.41202260874982
C        -6.18256552584936    1.03628858398903   -0.52632652947555
C        -4.81585083132366    0.69217585237758   -0.53003778508768
C        -4.25993431549164   -0.18503751083879   -1.48546080253589
C        -2.93267317235893   -0.49255251351944   -1.46131570118491
N        -0.36297308766646   -1.77575127856591   -0.44454174679657
C        -1.20066615948490   -2.64915433929275    0.20400201594977
C        -0.77572791922966   -4.06385460362181    0.18218984743574
C        -1.16518765211113   -4.99597305607280    1.10442753100800
C        -0.69843100794582   -6.28474113053191    0.78278246407582
Br       -1.02667875086812   -7.80207266496905    1.85597436903395
C         0.01274659166943   -6.33100158922141   -0.37852488444452
S         0.13896830358186   -4.78564569547679   -1.10721140476861
O        -2.25092815122048   -2.32627807179671    0.71111466850932
C         1.07454799412479   -1.85837802028896   -0.36530678867504
C         1.66147041097014   -1.84020221299651   -1.79159227616610
O         2.71732775489461   -1.04417599081816   -1.90269149855380
O         1.21173394789421   -2.49167407870632   -2.68973678226265
N         1.45347334242534   -0.71045545072412    0.43076173248953
C         2.44478748678910   -0.59837704987829    1.35386907463808
C         3.51831577886276   -1.61004659907450    1.41046335338223
C         4.37133452051273   -1.68269992124760    2.47930960884774
C         5.34162373667583   -2.69180048024067    2.33184849590049
Br        6.65789688396652   -3.06233604166535    3.63215965820137
C         5.23981720655450   -3.37569685093672    1.15858671382547
S         3.93967749368805   -2.79329997518669    0.20808395691606
O         2.45896564010147    0.32994844743123    2.13936536518441
H        -0.02512699414273    2.42547156470913    2.06253882926328
H         0.63060781712796    4.74490882654838    1.61866212772476
H         1.71014711306848    6.41259359659931    0.15591349307796
H         2.94613953990760    6.94334590323619   -1.90735456602029
H         3.50214264732028    5.16320055474740   -3.51402054430231
H         2.82672898676425    2.83763442944398   -3.07451088810046
H         1.73812749362289    1.19192921577848   -1.62698445652491
H        -0.09439847177215    0.18654353879803    1.50641531969075
H        -0.26980520259737   -0.04139845813965   -1.54058765188903
H        -1.97044879138815    1.33967020227087    1.22472772056544
H        -3.85615085177868    2.55862099836727    2.15798177466918
H        -6.25119198884280    3.12719284082524    2.12034135939192
H        -7.73183124441658    2.15461254277115    0.41062713444315
H        -6.82835008933831    0.60688998619892   -1.27906861235015
H        -4.90570271062994   -0.60789066234427   -2.24156335469505
H        -2.51208165662674   -1.16407043907459   -2.19640261777567
H        -1.75615600586901   -4.76007337051981    1.97051774258911
H         0.46017130370609   -7.18843600238964   -0.84064804854307
H         1.39234435830991   -2.79868941795751    0.10227567673365
H         3.08962405445804   -1.07873323980547   -2.80025420116167
H         4.29327665793813   -1.03042421826294    3.33047562770156
H         5.85080622748030   -4.18172626901397    0.80410817286220

          :  Hamiltonian                  GFN2-xTB          :
         :: total energy            -120.823884298711 Eh    ::
         :: gradient norm              0.000603847237 Eh/a0 ::
         :: HOMO-LUMO gap              2.131311848350 eV    ::
         :: SCC energy              -122.536536781555 Eh    ::
         :: -> dispersion             -0.102564949257 Eh    ::
         :: repulsion energy           1.710865362253 Eh    ::

    * Orbital Energies and Occupations

         #    Occupation            Energy/Eh            Energy/eV
      -------------------------------------------------------------
         1        2.0000           -0.8508478             -23.1527
       ...           ...                  ...                  ...
        97        2.0000           -0.4254851             -11.5780
        98        2.0000           -0.4240975             -11.5403
        99        2.0000           -0.4232985             -11.5185
       100        2.0000           -0.4219624             -11.4822
       101        2.0000           -0.4216926             -11.4748
       102        2.0000           -0.4170416             -11.3483
       103        2.0000           -0.4163387             -11.3292
       104        2.0000           -0.4127479             -11.2314
       105        2.0000           -0.4088388             -11.1251
       106        2.0000           -0.4049559             -11.0194
       107        2.0000           -0.3984990             -10.8437
       108        2.0000           -0.3871222             -10.5341
       109        2.0000           -0.3816530             -10.3853 (HOMO)
       110                         -0.3033287              -8.2540 (LUMO)
       111                         -0.2992393              -8.1427
       112                         -0.2820891              -7.6760
       113                         -0.2689806              -7.3193
       114                         -0.2619808              -7.1289
       115                         -0.2498149              -6.7978
       116                         -0.2455063              -6.6806
       117                         -0.2386414              -6.4938
       118                         -0.2370202              -6.4496
       119                         -0.2339465              -6.3660
       120                         -0.2328819              -6.3370
       ...                                ...                  ...
       218                          0.6944922              18.8981
      -------------------------------------------------------------
                  HL-Gap            0.0783243 Eh            2.1313 eV

     #   Z          covCN         q      C6AA      Î±(0)
     1   6 C        2.920    -0.026    28.649     8.777
     2   6 C        2.917    -0.032    28.786     8.798
     3   6 C        2.988     0.015    27.669     8.629
     4   6 C        2.918    -0.033    28.816     8.803
     5   6 C        2.916    -0.029    28.718     8.788
     6   6 C        2.916    -0.029    28.721     8.788
     7   6 C        2.919    -0.035    28.862     8.810
     8   6 C        2.987     0.015    27.674     8.629
     9   6 C        2.924    -0.041    29.030     8.836
    10   6 C        2.968     0.011    27.778     8.645
    11   6 C        3.832     0.045    19.797     6.330
    12   6 C        3.868     0.047    19.744     6.318
    13   6 C        2.966     0.015    27.683     8.630
    14   6 C        2.921    -0.038    28.945     8.823
    15   6 C        2.988     0.018    27.600     8.618
    16   6 C        2.919    -0.033    28.831     8.805
    17   6 C        2.916    -0.029    28.716     8.787
    18   6 C        2.916    -0.029    28.723     8.788
    19   6 C        2.918    -0.033    28.824     8.804
    20   6 C        2.988     0.016    27.642     8.624
    21   6 C        2.917    -0.030    28.750     8.793
    22   6 C        2.922    -0.029    28.713     8.787
    23   7 N        2.765    -0.130    23.818     7.248
    24   6 C        2.771     0.279    22.284     7.731
    25   6 C        3.000    -0.024    28.579     8.769
    26   6 C        3.144    -0.038    28.681     8.762
    27   6 C        3.120     0.073    26.202     8.383
    28  35 Br       1.030    -0.141   188.925    22.162
    29   6 C        2.998    -0.032    28.792     8.802
    30  16 S        2.313     0.036   139.573    19.884
    31   8 O        0.859    -0.392    21.528     6.221
    32   6 C        3.799     0.089    19.111     6.224
    33   6 C        2.688     0.351    21.032     7.505
    34   8 O        1.659    -0.350    19.900     6.022
    35   8 O        0.856    -0.372    21.121     6.162
    36   7 N        2.764    -0.122    23.642     7.221
    37   6 C        2.771     0.271    22.416     7.754
    38   6 C        2.991    -0.015    28.382     8.739
    39   6 C        3.159    -0.034    28.528     8.732
    40   6 C        3.123     0.075    26.152     8.375
    41  35 Br       1.031    -0.138   188.843    22.157
    42   6 C        2.999    -0.026    28.641     8.779
    43  16 S        2.328    -0.010   141.458    20.018
    44   8 O        0.861    -0.418    22.036     6.294
    45   1 H        0.926     0.041     2.440     2.443
    46   1 H        0.926     0.042     2.427     2.436
    47   1 H        0.926     0.036     2.504     2.475
    48   1 H        0.926     0.034     2.532     2.488
    49   1 H        0.926     0.032     2.551     2.498
    50   1 H        0.926     0.028     2.615     2.529
    51   1 H        0.926     0.030     2.592     2.518
    52   1 H        0.924     0.061     2.186     2.312
    53   1 H        0.923     0.050     2.326     2.385
    54   1 H        0.926     0.038     2.474     2.460
    55   1 H        0.926     0.034     2.537     2.491
    56   1 H        0.926     0.033     2.542     2.493
    57   1 H        0.926     0.033     2.545     2.495
    58   1 H        0.926     0.034     2.527     2.486
    59   1 H        0.926     0.039     2.460     2.453
    60   1 H        0.926     0.032     2.563     2.504
    61   1 H        0.926     0.080     1.979     2.200
    62   1 H        0.926     0.074     2.038     2.232
    63   1 H        0.924     0.073     2.051     2.240
    64   1 H        0.804     0.348     0.593     1.210
    65   1 H        0.926     0.087     1.912     2.162
    66   1 H        0.926     0.073     2.058     2.243

Wiberg/Mayer (AO) data.
largest (>0.10) Wiberg bond orders for each atom

     #   Z sym  total        # sym  WBO       # sym  WBO       # sym  WBO
 ---------------------------------------------------------------------------
     1   6 C    3.990 --     2 C    1.562    10 C    1.295    45 H    0.965
     2   6 C    3.991 --     1 C    1.562     3 C    1.277    46 H    0.967
                             9 C    0.115
     3   6 C    3.990 --     4 C    1.281     2 C    1.277     8 C    1.250
     4   6 C    3.992 --     5 C    1.557     3 C    1.281    47 H    0.968
                             7 C    0.118
     5   6 C    3.990 --     4 C    1.557     6 C    1.320    48 H    0.971
     6   6 C    3.992 --     7 C    1.558     5 C    1.320    49 H    0.971
     7   6 C    3.990 --     6 C    1.558     8 C    1.278    50 H    0.969
                             4 C    0.118
     8   6 C    3.990 --     9 C    1.283     7 C    1.278     3 C    1.250
     9   6 C    3.990 --    10 C    1.524     8 C    1.283    51 H    0.962
                             2 C    0.115
    10   6 C    3.984 --     9 C    1.524     1 C    1.295    11 C    0.992
    11   6 C    3.956 --    10 C    0.992    12 C    0.962    52 H    0.952
                            36 N    0.943
    12   6 C    3.956 --    13 C    0.995    11 C    0.962    23 N    0.946
                            53 H    0.943
    13   6 C    3.983 --    14 C    1.537    22 C    1.280    12 C    0.995
    14   6 C    3.988 --    13 C    1.537    15 C    1.274    54 H    0.961
                            21 C    0.111
    15   6 C    3.990 --    16 C    1.282    14 C    1.274    20 C    1.254
    16   6 C    3.990 --    17 C    1.554    15 C    1.282    55 H    0.968
                            19 C    0.118
    17   6 C    3.992 --    16 C    1.554    18 C    1.324    56 H    0.971
    18   6 C    3.990 --    19 C    1.553    17 C    1.324    57 H    0.971
    19   6 C    3.992 --    18 C    1.553    20 C    1.285    58 H    0.968
                            16 C    0.118
    20   6 C    3.990 --    19 C    1.285    21 C    1.270    15 C    1.254
    21   6 C    3.991 --    22 C    1.576    20 C    1.270    59 H    0.968
                            14 C    0.111
    22   6 C    3.991 --    21 C    1.576    13 C    1.280    60 H    0.970
    23   7 N    3.412 --    24 C    1.161    32 C    0.989    12 C    0.946
                            31 O    0.173
    24   6 C    3.951 --    31 O    1.700    23 N    1.161    25 C    1.013
    25   6 C    3.945 --    26 C    1.549    30 S    1.153    24 C    1.013
                            29 C    0.105
    26   6 C    3.983 --    25 C    1.549    27 C    1.275    61 H    0.960
    27   6 C    3.937 --    29 C    1.554    26 C    1.275    28 Br   0.991
    28  35 Br   1.131 --    27 C    0.991
    29   6 C    3.950 --    27 C    1.554    30 S    1.221    62 H    0.967
                            25 C    0.105
    30  16 S    2.701 --    29 C    1.221    25 C    1.153
    31   8 O    2.054 --    24 C    1.700    23 N    0.173
    32   6 C    3.974 --    23 N    0.989    36 N    0.981    63 H    0.925
                            33 C    0.914
    33   6 C    3.923 --    35 O    1.784    34 O    1.160    32 C    0.914
    34   8 O    2.236 --    33 C    1.160    64 H    0.852    35 O    0.184
    35   8 O    2.078 --    33 C    1.784    34 O    0.184
    36   7 N    3.459 --    37 C    1.203    32 C    0.981    11 C    0.943
                            44 O    0.187
    37   6 C    3.956 --    44 O    1.655    36 N    1.203    38 C    1.020
    38   6 C    3.943 --    39 C    1.551    43 S    1.145    37 C    1.020
                            42 C    0.109
    39   6 C    3.983 --    38 C    1.551    40 C    1.274    65 H    0.958
    40   6 C    3.939 --    42 C    1.557    39 C    1.274    41 Br   0.993
    41  35 Br   1.135 --    40 C    0.993
    42   6 C    3.947 --    40 C    1.557    43 S    1.208    66 H    0.967
                            38 C    0.109
    43  16 S    2.676 --    42 C    1.208    38 C    1.145
    44   8 O    2.019 --    37 C    1.655    36 N    0.187
    45   1 H    0.998 --     1 C    0.965
    46   1 H    0.997 --     2 C    0.967
    47   1 H    0.998 --     4 C    0.968
    48   1 H    0.998 --     5 C    0.971
    49   1 H    0.998 --     6 C    0.971
    50   1 H    0.999 --     7 C    0.969
    51   1 H    0.999 --     9 C    0.962
    52   1 H    0.995 --    11 C    0.952
    53   1 H    0.995 --    12 C    0.943
    54   1 H    0.998 --    14 C    0.961
    55   1 H    0.998 --    16 C    0.968
    56   1 H    0.998 --    17 C    0.971
    57   1 H    0.998 --    18 C    0.971
    58   1 H    0.998 --    19 C    0.968
    59   1 H    0.997 --    21 C    0.968
    60   1 H    0.999 --    22 C    0.970
    61   1 H    0.994 --    26 C    0.960
    62   1 H    0.994 --    29 C    0.967
    63   1 H    0.994 --    32 C    0.925
    64   1 H    0.878 --    34 O    0.852
    65   1 H    0.992 --    39 C    0.958
    66   1 H    0.994 --    42 C    0.967
 ---------------------------------------------------------------------------

molecular dipole:
                 x           y           z       tot (Debye)
 q only:        0.339       0.948      -1.866
   full:        0.534       1.017      -2.205       6.320

           -------------------------------------------------
          | TOTAL ENERGY             -120.823884298711 Eh   |
          | GRADIENT NORM               0.000603847237 Eh/Î± |
          | HOMO-LUMO GAP               2.131311848350 eV   |
           -------------------------------------------------

 * finished run on 2022/03/17 at 00:44:15.274
