   * xtb version 6.3.3 (4ae9cef) compiled by 'conda@95abc7406d43' on 2020-10-14
          program call               : xtb acid_324.xyz --opt --chrg 0 --uhf 0 --gfn 2
          number of atoms            :                    66
          number of electrons        :                   218
          charge                     :                     0
          spin                       :                   0.0

   ID    Z sym.   atoms
    1    6 C      1-22, 24-27, 29, 32, 33, 37-40, 42
    2    7 N      23, 36
    3   35 Br     28, 41
    4   16 S      30, 43
    5    8 O      31, 34, 35, 44
    6    1 H      45-66

          :  Hamiltonian                  GFN2-xTB          :
 * total energy  :  -120.8020342 Eh     change       -0.2757176E-08 Eh
 * total energy  :  -120.8188235 Eh     change       -0.1678927E-01 Eh
 * total energy  :  -120.8239532 Eh     change       -0.5129716E-02 Eh
 * total energy  :  -120.8253184 Eh     change       -0.1365247E-02 Eh
 * total energy  :  -120.8261381 Eh     change       -0.8196422E-03 Eh
 * total energy  :  -120.8265339 Eh     change       -0.3957727E-03 Eh
 * total energy  :  -120.8268822 Eh     change       -0.3483130E-03 Eh
 * total energy  :  -120.8271843 Eh     change       -0.3021262E-03 Eh
 * total energy  :  -120.8274702 Eh     change       -0.2858604E-03 Eh
 * total energy  :  -120.8277566 Eh     change       -0.2864092E-03 Eh
 * total energy  :  -120.8305397 Eh     change       -0.5327742E-04 Eh
 * total energy  :  -120.8305889 Eh     change       -0.4923541E-04 Eh
 * total energy  :  -120.8306109 Eh     change       -0.2199618E-04 Eh
 * total energy  :  -120.8306350 Eh     change       -0.2408995E-04 Eh
 * total energy  :  -120.8306530 Eh     change       -0.1799837E-04 Eh
 * total energy  :  -120.8306622 Eh     change       -0.9236160E-05 Eh
 * total energy  :  -120.8306741 Eh     change       -0.1186647E-04 Eh
 * total energy  :  -120.8306824 Eh     change       -0.8321417E-05 Eh
 * total energy  :  -120.8306861 Eh     change       -0.3630902E-05 Eh
   *** GEOMETRY OPTIMIZATION CONVERGED AFTER 44 ITERATIONS ***

 final structure:
================
66
 xtb: 6.3.3 (4ae9cef)
C        -4.49689201248730   -1.00452542560610   -3.65299720549363
C        -4.23332639672664   -2.33809081873243   -3.52439189740905
C        -3.28544964630102   -2.77198388617124   -2.58752825471133
C        -2.61250316001375   -1.87313183461525   -1.80738125446813
C        -2.84494896064690   -0.48484837144294   -1.92394988126887
C        -3.81970130766019   -0.05059033281446   -2.86457260366189
C        -4.09790209538012    1.32528339767471   -2.99849891777062
C        -3.44007346495460    2.24217089526913   -2.23205385116175
C        -2.46636873999743    1.82319108231165   -1.31546981249799
C        -2.16156561281627    0.49627212277875   -1.15364253695289
C        -1.07228816151588    0.07031452691212   -0.19703564724226
C         0.27381224329592   -0.15225075659738   -0.93672975945240
C         0.62800077137676   -1.60120174111563   -1.14086522502282
C         0.62594370904644   -2.09330061801438   -2.42194744149417
C         0.92241803897177   -3.43442276409763   -2.68991113230621
C         1.23648483833322   -4.28051520508951   -1.66600141457749
C         1.25558117943995   -3.81900279209121   -0.33409516194538
C         0.93573241014833   -2.46153493594592   -0.05192980333904
C         0.94693450953780   -2.04973903131474    1.29996993477299
C         1.27500269811237   -2.91744939740121    2.30430416910869
C         1.60302021271990   -4.24995591673321    2.01914690956785
C         1.58698784939314   -4.68866119648021    0.72633596118594
N         1.24518556800035    0.55307474492878   -0.10695660614825
C         2.58402647427810    0.41582860512582   -0.29785765047046
C         3.45030452812426    1.08949693871087    0.70367364492265
C         4.56458223056430    1.82370612559477    0.43335304080038
C         5.22995042910480    2.23862876239446    1.60968407520091
Br        6.78732860994481    3.30485480892629    1.58604309397586
C         4.64341491640808    1.80018924099550    2.75481449304186
S         3.24629601859300    0.86580014072768    2.41602533048574
O         3.05831400000796   -0.24381043621140   -1.19476080894273
C         0.58394550484117    1.58111676479196    0.64313041320908
C         0.56763483392469    2.94894336968358   -0.08223109633708
O         1.34974593333713    2.96640437809998   -1.15106260597301
O        -0.06432080724776    3.88725724263805    0.31491539189939
N        -0.75097105171922    1.06875558986189    0.81641057438366
C        -1.63554784423030    1.35974420516764    1.80779890451771
C        -1.13693257137806    2.31726716205288    2.82941152921947
C        -0.09670941167148    2.15639396555160    3.69780139331627
C         0.05831085193482    3.27856873521085    4.53897775258781
Br        1.44294457456599    3.39875140042069    5.81765978562654
C        -0.85735788875514    4.25895818547253    4.31430468836927
S        -1.94523268346561    3.82320755805369    3.06361880433190
O        -2.73921876824312    0.86621660932202    1.84751741736342
H        -5.23313005725681   -0.65482932542627   -4.36254137059178
H        -4.75460367707684   -3.06252195650566   -4.13219444717247
H        -3.08780542752976   -3.82826084996355   -2.48006790674009
H        -1.89566639782211   -2.24433936825028   -1.09332919325414
H        -4.84388010789637    1.63706642423056   -3.71497743890128
H        -3.65744514707954    3.29587158112184   -2.32224015014908
H        -1.96862184620176    2.57416032970443   -0.72104824548337
H        -1.39243471393221   -0.83387293328241    0.33181134311061
H         0.22564987980863    0.33444963140766   -1.92154085027849
H         0.39039525494212   -1.43482946561972   -3.24505227312103
H         0.90755436392170   -3.78504850420227   -3.71063504384054
H         1.47899366095368   -5.31556276028061   -1.85842611450686
H         0.69490239130317   -1.03404497236219    1.55890854695645
H         1.28087870383614   -2.57681234243939    3.32942119701014
H         1.86215885754099   -4.92017245463472    2.82509146256152
H         1.83119555122006   -5.71466629957585    0.49103379650484
H         4.89150739410722    2.06497391539480   -0.56121618899502
H         4.94714834831209    1.96830780307065    3.76846860733831
H         1.06417073773979    1.76735799121634    1.61102271143667
H         1.33905398394797    3.83532559438640   -1.58692354489924
H         0.52092054684912    1.27811958064444    3.76992393824208
H        -0.94553664848380    5.20394428316800    4.81148542553563

          :  Hamiltonian                  GFN2-xTB          :
         :: total energy            -120.830686067882 Eh    ::
         :: gradient norm              0.000375596012 Eh/a0 ::
         :: HOMO-LUMO gap              2.430657705366 eV    ::
         :: SCC energy              -122.547650234332 Eh    ::
         :: -> dispersion             -0.111591109150 Eh    ::
         :: repulsion energy           1.713404686977 Eh    ::

    * Orbital Energies and Occupations

         #    Occupation            Energy/Eh            Energy/eV
      -------------------------------------------------------------
         1        2.0000           -0.8496664             -23.1206
       ...           ...                  ...                  ...
        97        2.0000           -0.4268414             -11.6149
        98        2.0000           -0.4264774             -11.6050
        99        2.0000           -0.4255118             -11.5788
       100        2.0000           -0.4221037             -11.4860
       101        2.0000           -0.4198466             -11.4246
       102        2.0000           -0.4153876             -11.3033
       103        2.0000           -0.4145211             -11.2797
       104        2.0000           -0.4110246             -11.1845
       105        2.0000           -0.4104537             -11.1690
       106        2.0000           -0.4088596             -11.1256
       107        2.0000           -0.4049405             -11.0190
       108        2.0000           -0.3912831             -10.6474
       109        2.0000           -0.3844715             -10.4620 (HOMO)
       110                         -0.2951464              -8.0313 (LUMO)
       111                         -0.2843367              -7.7372
       112                         -0.2811227              -7.6497
       113                         -0.2735511              -7.4437
       114                         -0.2687880              -7.3141
       115                         -0.2524339              -6.8691
       116                         -0.2428245              -6.6076
       117                         -0.2388440              -6.4993
       118                         -0.2384133              -6.4876
       119                         -0.2382390              -6.4828
       120                         -0.2348359              -6.3902
       ...                                ...                  ...
       218                          0.6839174              18.6103
      -------------------------------------------------------------
                  HL-Gap            0.0893250 Eh            2.4307 eV

     #   Z          covCN         q      C6AA      Î±(0)
     1   6 C        2.921    -0.033    28.830     8.805
     2   6 C        2.915    -0.028    28.698     8.785
     3   6 C        2.917    -0.027    28.682     8.782
     4   6 C        2.917    -0.036    28.891     8.814
     5   6 C        2.984     0.009    27.804     8.650
     6   6 C        2.988     0.017    27.632     8.623
     7   6 C        2.920    -0.035    28.866     8.811
     8   6 C        2.914    -0.029    28.722     8.788
     9   6 C        2.921    -0.032    28.806     8.801
    10   6 C        2.966    -0.001    28.052     8.688
    11   6 C        3.823     0.043    19.842     6.339
    12   6 C        3.831     0.046    19.775     6.327
    13   6 C        2.966     0.005    27.899     8.664
    14   6 C        2.924    -0.025    28.639     8.776
    15   6 C        2.914    -0.026    28.648     8.777
    16   6 C        2.921    -0.032    28.810     8.802
    17   6 C        2.988     0.017    27.617     8.620
    18   6 C        2.983     0.012    27.748     8.641
    19   6 C        2.917    -0.038    28.945     8.822
    20   6 C        2.917    -0.028    28.709     8.786
    21   6 C        2.915    -0.028    28.702     8.785
    22   6 C        2.921    -0.032    28.792     8.799
    23   7 N        2.766    -0.108    23.367     7.179
    24   6 C        2.773     0.278    22.298     7.734
    25   6 C        2.997    -0.020    28.494     8.756
    26   6 C        3.151    -0.040    28.704     8.763
    27   6 C        3.131     0.073    26.165     8.374
    28  35 Br       1.031    -0.141   188.933    22.162
    29   6 C        2.996    -0.029    28.706     8.789
    30  16 S        2.338     0.010   140.659    19.961
    31   8 O        0.859    -0.398    21.648     6.238
    32   6 C        3.764     0.085    19.211     6.247
    33   6 C        2.686     0.350    21.057     7.510
    34   8 O        1.659    -0.354    19.983     6.035
    35   8 O        0.856    -0.387    21.426     6.206
    36   7 N        2.767    -0.115    23.507     7.201
    37   6 C        2.784     0.276    22.329     7.740
    38   6 C        3.003    -0.018    28.454     8.750
    39   6 C        3.153    -0.060    29.171     8.833
    40   6 C        3.131     0.070    26.244     8.387
    41  35 Br       1.029    -0.153   189.274    22.182
    42   6 C        2.993    -0.039    28.954     8.827
    43  16 S        2.343     0.088   137.498    19.736
    44   8 O        0.859    -0.400    21.683     6.243
    45   1 H        0.926     0.037     2.488     2.467
    46   1 H        0.926     0.036     2.504     2.475
    47   1 H        0.926     0.034     2.527     2.486
    48   1 H        0.926     0.029     2.605     2.524
    49   1 H        0.926     0.039     2.464     2.455
    50   1 H        0.926     0.038     2.478     2.462
    51   1 H        0.926     0.028     2.617     2.530
    52   1 H        0.924     0.074     2.046     2.237
    53   1 H        0.923     0.052     2.295     2.369
    54   1 H        0.926     0.035     2.514     2.479
    55   1 H        0.926     0.040     2.445     2.445
    56   1 H        0.926     0.040     2.448     2.447
    57   1 H        0.926     0.023     2.693     2.566
    58   1 H        0.926     0.032     2.554     2.499
    59   1 H        0.926     0.036     2.506     2.476
    60   1 H        0.926     0.037     2.484     2.465
    61   1 H        0.926     0.073     2.057     2.243
    62   1 H        0.926     0.078     2.003     2.213
    63   1 H        0.924     0.080     1.982     2.201
    64   1 H        0.804     0.349     0.590     1.206
    65   1 H        0.926     0.054     2.265     2.353
    66   1 H        0.926     0.072     2.059     2.244

Wiberg/Mayer (AO) data.
largest (>0.10) Wiberg bond orders for each atom

     #   Z sym  total        # sym  WBO       # sym  WBO       # sym  WBO
 ---------------------------------------------------------------------------
     1   6 C    3.991 --     2 C    1.556     6 C    1.280    45 H    0.968
                             4 C    0.118
     2   6 C    3.992 --     1 C    1.556     3 C    1.324    46 H    0.971
     3   6 C    3.992 --     4 C    1.553     2 C    1.324    47 H    0.971
     4   6 C    3.992 --     3 C    1.553     5 C    1.285    48 H    0.962
                             1 C    0.118
     5   6 C    3.989 --     4 C    1.285     6 C    1.254    10 C    1.249
     6   6 C    3.990 --     1 C    1.280     7 C    1.277     5 C    1.254
     7   6 C    3.990 --     8 C    1.557     6 C    1.277    49 H    0.968
                            10 C    0.114
     8   6 C    3.992 --     7 C    1.557     9 C    1.321    50 H    0.970
     9   6 C    3.991 --    10 C    1.530     8 C    1.321    51 H    0.966
    10   6 C    3.983 --     9 C    1.530     5 C    1.249    11 C    0.988
                             7 C    0.114
    11   6 C    3.955 --    10 C    0.988    36 N    0.956    12 C    0.948
                            52 H    0.945
    12   6 C    3.959 --    13 C    0.994    53 H    0.953    23 N    0.951
                            11 C    0.948
    13   6 C    3.982 --    14 C    1.519    18 C    1.253    12 C    0.994
                            16 C    0.114
    14   6 C    3.990 --    13 C    1.519    15 C    1.328    54 H    0.967
    15   6 C    3.991 --    16 C    1.552    14 C    1.328    55 H    0.970
    16   6 C    3.990 --    15 C    1.552    17 C    1.279    56 H    0.968
                            13 C    0.114
    17   6 C    3.990 --    22 C    1.280    16 C    1.279    18 C    1.252
    18   6 C    3.989 --    19 C    1.284    13 C    1.253    17 C    1.252
    19   6 C    3.992 --    20 C    1.554    18 C    1.284    57 H    0.965
                            22 C    0.118
    20   6 C    3.992 --    19 C    1.554    21 C    1.323    58 H    0.971
    21   6 C    3.992 --    22 C    1.557    20 C    1.323    59 H    0.971
    22   6 C    3.991 --    21 C    1.557    17 C    1.280    60 H    0.968
                            19 C    0.118
    23   7 N    3.462 --    24 C    1.196    32 C    0.997    12 C    0.951
                            31 O    0.188
    24   6 C    3.953 --    31 O    1.693    23 N    1.196    25 C    0.984
    25   6 C    3.946 --    26 C    1.589    30 S    1.145    24 C    0.984
                            29 C    0.110
    26   6 C    3.984 --    25 C    1.589    27 C    1.252    61 H    0.960
    27   6 C    3.937 --    29 C    1.578    26 C    1.252    28 Br   0.991
    28  35 Br   1.134 --    27 C    0.991
    29   6 C    3.946 --    27 C    1.578    30 S    1.195    62 H    0.966
                            25 C    0.110
    30  16 S    2.658 --    29 C    1.195    25 C    1.145
    31   8 O    2.045 --    24 C    1.693    23 N    0.188
    32   6 C    3.972 --    23 N    0.997    36 N    0.988    63 H    0.918
                            33 C    0.903
    33   6 C    3.919 --    35 O    1.773    34 O    1.169    32 C    0.903
    34   8 O    2.233 --    33 C    1.169    64 H    0.851    35 O    0.185
    35   8 O    2.061 --    33 C    1.773    34 O    0.185
    36   7 N    3.466 --    37 C    1.197    32 C    0.988    11 C    0.956
                            44 O    0.194
    37   6 C    3.951 --    44 O    1.700    36 N    1.197    38 C    0.977
    38   6 C    3.954 --    39 C    1.567    43 S    1.184    37 C    0.977
                            42 C    0.106
    39   6 C    3.982 --    38 C    1.567    40 C    1.261    65 H    0.960
    40   6 C    3.933 --    42 C    1.567    39 C    1.261    41 Br   0.984
    41  35 Br   1.120 --    40 C    0.984
    42   6 C    3.948 --    40 C    1.567    43 S    1.218    66 H    0.967
                            38 C    0.106
    43  16 S    2.697 --    42 C    1.218    38 C    1.184
    44   8 O    2.040 --    37 C    1.700    36 N    0.194
    45   1 H    0.998 --     1 C    0.968
    46   1 H    0.998 --     2 C    0.971
    47   1 H    0.998 --     3 C    0.971
    48   1 H    0.999 --     4 C    0.962
    49   1 H    0.997 --     7 C    0.968
    50   1 H    0.998 --     8 C    0.970
    51   1 H    0.999 --     9 C    0.966
    52   1 H    0.994 --    11 C    0.945
    53   1 H    0.996 --    12 C    0.953
    54   1 H    0.998 --    14 C    0.967
    55   1 H    0.997 --    15 C    0.970
    56   1 H    0.997 --    16 C    0.968
    57   1 H    0.999 --    19 C    0.965
    58   1 H    0.998 --    20 C    0.971
    59   1 H    0.998 --    21 C    0.971
    60   1 H    0.998 --    22 C    0.968
    61   1 H    0.995 --    26 C    0.960
    62   1 H    0.993 --    29 C    0.966
    63   1 H    0.993 --    32 C    0.918
    64   1 H    0.877 --    34 O    0.851
    65   1 H    0.997 --    39 C    0.960
    66   1 H    0.994 --    42 C    0.967
 ---------------------------------------------------------------------------

molecular dipole:
                 x           y           z       tot (Debye)
 q only:       -0.701      -0.362      -1.092
   full:       -0.720      -0.226      -1.287       3.793

           -------------------------------------------------
          | TOTAL ENERGY             -120.830686067882 Eh   |
          | GRADIENT NORM               0.000375596012 Eh/Î± |
          | HOMO-LUMO GAP               2.430657705366 eV   |
           -------------------------------------------------

 * finished run on 2022/03/16 at 23:50:34.962
