   * xtb version 6.3.3 (4ae9cef) compiled by 'conda@95abc7406d43' on 2020-10-14
          program call               : xtb acid_462.xyz --opt --chrg 0 --uhf 0 --gfn 2
          number of atoms            :                    72
          number of electrons        :                   226
          charge                     :                     0
          spin                       :                   0.0

   ID    Z sym.   atoms
    1    6 C      1-22, 24-29, 31, 33, 34, 38-41, 43-45
    2    7 N      23, 37
    3   17 Cl     30, 42
    4    8 O      32, 35, 36, 46
    5    1 H      47-72

          :  Hamiltonian                  GFN2-xTB          :
 * total energy  :  -125.8812298 Eh     change       -0.2792618E-08 Eh
 * total energy  :  -125.8972365 Eh     change       -0.1600664E-01 Eh
 * total energy  :  -125.9017717 Eh     change       -0.4535247E-02 Eh
 * total energy  :  -125.9027846 Eh     change       -0.1012848E-02 Eh
 * total energy  :  -125.9033515 Eh     change       -0.5668892E-03 Eh
 * total energy  :  -125.9035994 Eh     change       -0.2479262E-03 Eh
 * total energy  :  -125.9038295 Eh     change       -0.2301382E-03 Eh
 * total energy  :  -125.9040737 Eh     change       -0.2441148E-03 Eh
 * total energy  :  -125.9043485 Eh     change       -0.2748182E-03 Eh
 * total energy  :  -125.9046223 Eh     change       -0.2738718E-03 Eh
 * total energy  :  -125.9075313 Eh     change       -0.8338232E-05 Eh
 * total energy  :  -125.9075375 Eh     change       -0.6168610E-05 Eh
 * total energy  :  -125.9075437 Eh     change       -0.6208349E-05 Eh
 * total energy  :  -125.9075520 Eh     change       -0.8262626E-05 Eh
 * total energy  :  -125.9075608 Eh     change       -0.8814506E-05 Eh
 * total energy  :  -125.9075696 Eh     change       -0.8800972E-05 Eh
 * total energy  :  -125.9075792 Eh     change       -0.9641704E-05 Eh
 * total energy  :  -125.9075907 Eh     change       -0.1147033E-04 Eh
 * total energy  :  -125.9075954 Eh     change       -0.4731770E-05 Eh
   *** GEOMETRY OPTIMIZATION CONVERGED AFTER 68 ITERATIONS ***

 final structure:
================
72
 xtb: 6.3.3 (4ae9cef)
C        -1.12747068153986   -3.35340696042169    0.39238648032519
C        -1.90701254034937   -4.21861105411476   -0.32043137275153
C        -2.57219763654271   -3.79869269272595   -1.49061799838762
C        -3.38636163726892   -4.66581009337250   -2.24803827241919
C        -4.01832971564722   -4.22194029057392   -3.37554172571069
C        -3.86716906297524   -2.89113152100330   -3.79671405129561
C        -3.08589562576951   -2.02595790845843   -3.08410899918687
C        -2.41862615389621   -2.45395523516689   -1.91740543132662
C        -1.60488615896144   -1.58905739678333   -1.16187534875105
C        -0.96918879380562   -2.02067276625006   -0.02669736298632
C        -0.08193753117230   -1.08457046554548    0.75444858682574
C         1.24466712216258   -0.79532919411832    0.00003519573340
C         2.47330133820646   -0.82596470668923    0.87833535761758
C         2.68549089434818   -1.87311520613261    1.73779806726892
C         3.82922127978806   -1.92732097930190    2.55853848640342
C         4.06069187756310   -2.99677920071297    3.44931058442068
C         5.17858089068882   -3.02013708435238    4.23465686634594
C         6.11564110836466   -1.97639011092955    4.16802191214102
C         5.92123711308828   -0.92767406977697    3.31364173736758
C         4.77985803916439   -0.87604337709076    2.48685357982850
C         4.55497242281669    0.17395490117148    1.57360579655866
C         3.43900164609019    0.19501540691465    0.78596602082988
N         1.00845825738065    0.51364141482104   -0.59334640993686
C         1.04044860656654    0.66245705431245   -1.95615461738805
C         0.41738193754208    1.91279051704461   -2.48365527240122
C         0.75366703506969    3.18058004115701   -2.01819127655840
C         0.12525714894959    4.29360993780237   -2.55021212146778
C        -0.84106110711212    4.15821585465110   -3.53194818658148
C        -1.16133673042826    2.89204273013012   -3.99805688949895
Cl       -2.36676914908216    2.70919749271725   -5.22099182323494
C        -0.53039399726172    1.76885456729734   -3.49123007124830
O         1.53510041328168   -0.17973241965922   -2.67100562371283
C         0.15662590550486    1.24793993947436    0.30491181697775
C         1.01171200824563    1.94677842757606    1.38514718292124
O         0.94191224869714    1.34063308644014    2.56120300272613
O         1.65420826040839    2.93720952776979    1.17348979551508
N        -0.69858668777353    0.23318345701385    0.86337681116540
C        -1.90982708047393    0.41836558989189    1.44450305593458
C        -2.44355941379842    1.81309368532268    1.28902728946927
C        -2.80568189979792    2.26272638115213    0.02367797660195
C        -3.29369169131516    3.54918435208970   -0.12742455870981
Cl       -3.71364796048597    4.10994082403369   -1.70551956293705
C        -3.43713027605724    4.38884799595228    0.96677823091955
C        -3.09703364048342    3.92342925143605    2.22479790001776
C        -2.60184291015676    2.64063385290068    2.39115390182242
O        -2.50651225263731   -0.46828010657323    2.01201547936702
H        -0.63147676761963   -3.68225203620802    1.29375213962790
H        -2.02943992391746   -5.24088779503094    0.00736594741485
H        -3.50127263424512   -5.68874206565467   -1.91892581030429
H        -4.64054530083667   -4.89117283145088   -3.95149857898106
H        -4.37537260184549   -2.55765912411491   -4.68955214449404
H        -2.97009360216869   -1.00008122611627   -3.40472559451922
H        -1.49357157827934   -0.56659107573130   -1.49774661950314
H         0.09980520017545   -1.48303425449089    1.75702721174202
H         1.38512834529575   -1.50568772247604   -0.82493214256654
H         1.98037597726618   -2.69022942879943    1.79011982177440
H         3.33717421819128   -3.79793913641091    3.49765795135240
H         5.35102543158386   -3.84277180149918    4.91294384282550
H         6.99294367683502   -2.01213679356885    4.79696353093038
H         6.64091896581159   -0.12359198015860    3.25530116786040
H         5.28793272599549    0.96403434531191    1.49706544356960
H         3.29656506516799    0.99393997119097    0.07431173485418
H         1.50253288478476    3.29753364045810   -1.24987951604964
H         0.38617449760273    5.27691753808438   -2.19058360286461
H        -1.34094021104815    5.02390884820661   -3.93658005628084
H        -0.76568974498916    0.78532712430207   -3.86870089273967
H        -0.39857049113538    2.03241617579217   -0.22094758637044
H         1.50458085740353    1.78234634578758    3.21840003876620
H        -2.72397475110594    1.61335885747124   -0.83543041005007
H        -3.81722474863301    5.38889520864892    0.83156569463280
H        -3.21970941731492    4.56843809560938    3.08133927777103
H        -2.33856329210601    2.27390767152928    3.37117701298423

          :  Hamiltonian                  GFN2-xTB          :
         :: total energy            -125.907595449451 Eh    ::
         :: gradient norm              0.000346774737 Eh/a0 ::
         :: HOMO-LUMO gap              2.837560875687 eV    ::
         :: SCC energy              -127.824600786092 Eh    ::
         :: -> dispersion             -0.111116766336 Eh    ::
         :: repulsion energy           1.913520813228 Eh    ::

    * Orbital Energies and Occupations

         #    Occupation            Energy/Eh            Energy/eV
      -------------------------------------------------------------
         1        2.0000           -1.0668966             -29.0317
       ...           ...                  ...                  ...
       101        2.0000           -0.4265593             -11.6073
       102        2.0000           -0.4251752             -11.5696
       103        2.0000           -0.4204670             -11.4415
       104        2.0000           -0.4181206             -11.3776
       105        2.0000           -0.4140853             -11.2678
       106        2.0000           -0.4126131             -11.2278
       107        2.0000           -0.4094661             -11.1421
       108        2.0000           -0.4086957             -11.1212
       109        2.0000           -0.4062992             -11.0560
       110        2.0000           -0.4037152             -10.9856
       111        2.0000           -0.3997167             -10.8768
       112        2.0000           -0.3890591             -10.5868
       113        2.0000           -0.3813512             -10.3771 (HOMO)
       114                         -0.2770728              -7.5395 (LUMO)
       115                         -0.2703960              -7.3579
       116                         -0.2674611              -7.2780
       117                         -0.2643668              -7.1938
       118                         -0.2624149              -7.1407
       119                         -0.2552829              -6.9466
       120                         -0.2506457              -6.8204
       121                         -0.2399137              -6.5284
       122                         -0.2324479              -6.3252
       123                         -0.2201674              -5.9911
       124                         -0.2175346              -5.9194
       ...                                ...                  ...
       220                          0.6951640              18.9164
      -------------------------------------------------------------
                  HL-Gap            0.1042784 Eh            2.8376 eV

     #   Z          covCN         q      C6AA      Î±(0)
     1   6 C        2.919    -0.031    28.781     8.797
     2   6 C        2.918    -0.031    28.781     8.797
     3   6 C        2.988     0.015    27.669     8.629
     4   6 C        2.918    -0.033    28.819     8.803
     5   6 C        2.916    -0.028    28.705     8.786
     6   6 C        2.916    -0.027    28.685     8.783
     7   6 C        2.918    -0.032    28.790     8.799
     8   6 C        2.987     0.016    27.636     8.623
     9   6 C        2.924    -0.034    28.843     8.807
    10   6 C        2.970     0.007    27.872     8.660
    11   6 C        3.825     0.039    19.895     6.347
    12   6 C        3.844     0.036    19.946     6.353
    13   6 C        2.966     0.001    28.013     8.682
    14   6 C        2.923    -0.044    29.101     8.846
    15   6 C        2.987     0.015    27.676     8.630
    16   6 C        2.918    -0.035    28.859     8.809
    17   6 C        2.916    -0.028    28.706     8.786
    18   6 C        2.916    -0.029    28.721     8.788
    19   6 C        2.918    -0.034    28.855     8.809
    20   6 C        2.987     0.012    27.749     8.641
    21   6 C        2.917    -0.035    28.868     8.811
    22   6 C        2.919    -0.036    28.898     8.815
    23   7 N        2.767    -0.115    23.510     7.201
    24   6 C        2.765     0.274    22.363     7.744
    25   6 C        2.977    -0.016    28.398     8.741
    26   6 C        2.918    -0.039    28.972     8.827
    27   6 C        2.922    -0.023    28.588     8.768
    28   6 C        2.954    -0.032    28.801     8.802
    29   6 C        2.888     0.104    25.693     8.310
    30  17 Cl       0.968    -0.165   104.318    15.626
    31   6 C        2.962    -0.032    28.803     8.803
    32   8 O        0.859    -0.403    21.739     6.251
    33   6 C        3.778     0.083    19.221     6.246
    34   6 C        2.688     0.353    21.012     7.502
    35   8 O        1.659    -0.351    19.916     6.024
    36   8 O        0.856    -0.389    21.457     6.210
    37   7 N        2.769    -0.113    23.469     7.195
    38   6 C        2.760     0.274    22.375     7.746
    39   6 C        2.979    -0.015    28.378     8.738
    40   6 C        2.962    -0.043    29.061     8.842
    41   6 C        2.888     0.099    25.795     8.327
    42  17 Cl       0.968    -0.165   104.343    15.628
    43   6 C        2.953    -0.038    28.932     8.822
    44   6 C        2.922    -0.024    28.596     8.769
    45   6 C        2.921    -0.028    28.707     8.786
    46   8 O        0.859    -0.407    21.821     6.263
    47   1 H        0.926     0.034     2.534     2.489
    48   1 H        0.926     0.039     2.456     2.450
    49   1 H        0.926     0.034     2.527     2.486
    50   1 H        0.926     0.033     2.541     2.493
    51   1 H        0.926     0.034     2.525     2.485
    52   1 H        0.926     0.031     2.570     2.507
    53   1 H        0.925     0.018     2.764     2.600
    54   1 H        0.924     0.068     2.107     2.270
    55   1 H        0.924     0.088     1.898     2.154
    56   1 H        0.926     0.035     2.513     2.479
    57   1 H        0.926     0.035     2.519     2.482
    58   1 H        0.926     0.034     2.524     2.484
    59   1 H        0.926     0.034     2.532     2.488
    60   1 H        0.926     0.034     2.524     2.485
    61   1 H        0.926     0.039     2.457     2.451
    62   1 H        0.926     0.036     2.496     2.471
    63   1 H        0.926     0.063     2.169     2.303
    64   1 H        0.926     0.056     2.250     2.346
    65   1 H        0.926     0.064     2.148     2.292
    66   1 H        0.926     0.069     2.092     2.262
    67   1 H        0.924     0.073     2.053     2.240
    68   1 H        0.804     0.345     0.600     1.217
    69   1 H        0.926     0.052     2.294     2.368
    70   1 H        0.926     0.065     2.142     2.289
    71   1 H        0.926     0.057     2.237     2.339
    72   1 H        0.926     0.056     2.251     2.346

Wiberg/Mayer (AO) data.
largest (>0.10) Wiberg bond orders for each atom

     #   Z sym  total        # sym  WBO       # sym  WBO       # sym  WBO
 ---------------------------------------------------------------------------
     1   6 C    3.990 --     2 C    1.560    10 C    1.298    47 H    0.968
     2   6 C    3.991 --     1 C    1.560     3 C    1.279    48 H    0.968
                             9 C    0.116
     3   6 C    3.990 --     4 C    1.281     2 C    1.279     8 C    1.249
     4   6 C    3.992 --     5 C    1.557     3 C    1.281    49 H    0.968
                             7 C    0.118
     5   6 C    3.990 --     4 C    1.557     6 C    1.320    50 H    0.971
     6   6 C    3.992 --     7 C    1.559     5 C    1.320    51 H    0.971
     7   6 C    3.990 --     6 C    1.559     8 C    1.278    52 H    0.968
                             4 C    0.118
     8   6 C    3.991 --     9 C    1.286     7 C    1.278     3 C    1.249
     9   6 C    3.991 --    10 C    1.522     8 C    1.286    53 H    0.964
                             2 C    0.116
    10   6 C    3.985 --     9 C    1.522     1 C    1.298    11 C    0.989
    11   6 C    3.958 --    10 C    0.989    37 N    0.955    54 H    0.952
                            12 C    0.950
    12   6 C    3.955 --    13 C    0.989    23 N    0.965    11 C    0.950
                            55 H    0.939
    13   6 C    3.984 --    14 C    1.521    22 C    1.298    12 C    0.989
    14   6 C    3.990 --    13 C    1.521    15 C    1.285    56 H    0.963
                            21 C    0.116
    15   6 C    3.990 --    14 C    1.285    16 C    1.277    20 C    1.249
    16   6 C    3.991 --    17 C    1.560    15 C    1.277    57 H    0.968
                            19 C    0.118
    17   6 C    3.992 --    16 C    1.560    18 C    1.319    58 H    0.971
    18   6 C    3.990 --    19 C    1.558    17 C    1.319    59 H    0.971
    19   6 C    3.992 --    18 C    1.558    20 C    1.280    60 H    0.968
                            16 C    0.118
    20   6 C    3.990 --    21 C    1.280    19 C    1.280    15 C    1.249
    21   6 C    3.991 --    22 C    1.557    20 C    1.280    61 H    0.968
                            14 C    0.116
    22   6 C    3.991 --    21 C    1.557    13 C    1.298    62 H    0.966
    23   7 N    3.447 --    24 C    1.173    33 C    0.988    12 C    0.965
                            32 O    0.182
    24   6 C    3.945 --    32 O    1.712    23 N    1.173    25 C    0.976
    25   6 C    3.987 --    31 C    1.400    26 C    1.392    24 C    0.976
                            28 C    0.105
    26   6 C    3.989 --    27 C    1.439    25 C    1.392    63 H    0.964
    27   6 C    3.990 --    28 C    1.440    26 C    1.439    64 H    0.968
                            31 C    0.107
    28   6 C    3.988 --    27 C    1.440    29 C    1.399    65 H    0.967
                            25 C    0.105
    29   6 C    3.921 --    31 C    1.408    28 C    1.399    30 Cl   0.982
    30  17 Cl   1.121 --    29 C    0.982
    31   6 C    3.987 --    29 C    1.408    25 C    1.400    66 H    0.964
                            27 C    0.107
    32   8 O    2.040 --    24 C    1.712    23 N    0.182
    33   6 C    3.973 --    23 N    0.988    37 N    0.987    67 H    0.928
                            34 C    0.909
    34   6 C    3.920 --    36 O    1.771    35 O    1.169    33 C    0.909
    35   8 O    2.234 --    34 C    1.169    68 H    0.855    36 O    0.185
    36   8 O    2.057 --    34 C    1.771    35 O    0.185
    37   7 N    3.469 --    38 C    1.211    33 C    0.987    11 C    0.955
                            46 O    0.195
    38   6 C    3.951 --    46 O    1.703    37 N    1.211    39 C    0.954
    39   6 C    3.987 --    45 C    1.412    40 C    1.399    38 C    0.954
                            43 C    0.108
    40   6 C    3.989 --    41 C    1.409    39 C    1.399    69 H    0.964
                            44 C    0.109
    41   6 C    3.921 --    40 C    1.409    43 C    1.397    42 Cl   0.980
    42  17 Cl   1.119 --    41 C    0.980
    43   6 C    3.988 --    44 C    1.444    41 C    1.397    70 H    0.967
                            39 C    0.108
    44   6 C    3.990 --    43 C    1.444    45 C    1.434    71 H    0.968
                            40 C    0.109
    45   6 C    3.990 --    44 C    1.434    39 C    1.412    72 H    0.968
    46   8 O    2.031 --    38 C    1.703    37 N    0.195
    47   1 H    0.998 --     1 C    0.968
    48   1 H    0.998 --     2 C    0.968
    49   1 H    0.998 --     4 C    0.968
    50   1 H    0.998 --     5 C    0.971
    51   1 H    0.998 --     6 C    0.971
    52   1 H    0.999 --     7 C    0.968
    53   1 H    0.999 --     9 C    0.964
    54   1 H    0.995 --    11 C    0.952
    55   1 H    0.991 --    12 C    0.939
    56   1 H    0.998 --    14 C    0.963
    57   1 H    0.998 --    16 C    0.968
    58   1 H    0.998 --    17 C    0.971
    59   1 H    0.998 --    18 C    0.971
    60   1 H    0.998 --    19 C    0.968
    61   1 H    0.998 --    21 C    0.968
    62   1 H    0.998 --    22 C    0.966
    63   1 H    0.995 --    26 C    0.964
    64   1 H    0.996 --    27 C    0.968
    65   1 H    0.995 --    28 C    0.967
    66   1 H    0.995 --    31 C    0.964
    67   1 H    0.994 --    33 C    0.928
    68   1 H    0.880 --    35 O    0.855
    69   1 H    0.997 --    40 C    0.964
    70   1 H    0.995 --    43 C    0.967
    71   1 H    0.996 --    44 C    0.968
    72   1 H    0.996 --    45 C    0.968
 ---------------------------------------------------------------------------

molecular dipole:
                 x           y           z       tot (Debye)
 q only:        0.959       0.310       1.963
   full:        0.704       0.713       1.667       4.943

           -------------------------------------------------
          | TOTAL ENERGY             -125.907595449451 Eh   |
          | GRADIENT NORM               0.000346774737 Eh/Î± |
          | HOMO-LUMO GAP               2.837560875687 eV   |
           -------------------------------------------------

 * finished run on 2022/03/17 at 01:29:43.560
