   * xtb version 6.3.3 (4ae9cef) compiled by 'conda@95abc7406d43' on 2020-10-14
          program call               : xtb acid_131.xyz --opt --chrg 0 --uhf 0 --gfn 2
          number of atoms            :                    66
          number of electrons        :                   230
          charge                     :                     0
          spin                       :                   0.0

   ID    Z sym.   atoms
    1    6 C      1, 2, 6-15, 19-22, 24-27, 29, 30, 32, 33, 37-40, 42, 43
    2    9 F      3-5, 16-18
    3    7 N      23, 36
    4    8 O      28, 31, 34, 35, 41, 44
    5    1 H      45-66

          :  Hamiltonian                  GFN2-xTB          :
 * total energy  :  -134.1543187 Eh     change       -0.2128388E-08 Eh
 * total energy  :  -134.1707586 Eh     change       -0.1643989E-01 Eh
 * total energy  :  -134.1759573 Eh     change       -0.5198716E-02 Eh
 * total energy  :  -134.1776801 Eh     change       -0.1722824E-02 Eh
 * total energy  :  -134.1789120 Eh     change       -0.1231863E-02 Eh
 * total energy  :  -134.1797054 Eh     change       -0.7934879E-03 Eh
 * total energy  :  -134.1803411 Eh     change       -0.6356466E-03 Eh
 * total energy  :  -134.1810717 Eh     change       -0.7305810E-03 Eh
 * total energy  :  -134.1818339 Eh     change       -0.7621891E-03 Eh
 * total energy  :  -134.1824196 Eh     change       -0.5857570E-03 Eh
 * total energy  :  -134.1872734 Eh     change       -0.4317340E-04 Eh
 * total energy  :  -134.1873029 Eh     change       -0.2952668E-04 Eh
 * total energy  :  -134.1873158 Eh     change       -0.1290449E-04 Eh
 * total energy  :  -134.1873253 Eh     change       -0.9460138E-05 Eh
 * total energy  :  -134.1873302 Eh     change       -0.4988729E-05 Eh
 * total energy  :  -134.1873390 Eh     change       -0.8802913E-05 Eh
 * total energy  :  -134.1873371 Eh     change        0.1973143E-05 Eh
 * total energy  :  -134.1873421 Eh     change       -0.4992975E-05 Eh
 * total energy  :  -134.1873469 Eh     change       -0.4810201E-05 Eh
   *** GEOMETRY OPTIMIZATION CONVERGED AFTER 74 ITERATIONS ***

 final structure:
================
66
 xtb: 6.3.3 (4ae9cef)
C         0.84604892278633    3.54564618083577    0.14483330799496
C        -0.05250203408095    3.97816357111055    1.26895337648058
F        -0.01676953424869    5.29635477558162    1.49520590098744
F         0.22934399551163    3.39607776312708    2.44896255225320
F        -1.35374174211375    3.68698981894313    1.02753838322694
C         1.58369309383007    4.51562539188900   -0.52324820210985
C         2.40123674294055    4.16470912948506   -1.57947889169185
C         2.47651208398525    2.84185691966953   -1.97872040510702
C         1.74037136293666    1.87810189183656   -1.31897395476591
C         0.92418636878561    2.20831531134521   -0.24282832944556
C         0.13375493318132    1.11336358915480    0.42688240665468
C        -0.95732195896576    0.53906476829241   -0.50009924394218
C        -2.31299172955243    1.14154286853965   -0.23880563650454
C        -2.95010608553658    2.00470101585517   -1.12989646662629
C        -2.29904051653486    2.40871672703619   -2.42328855802802
F        -2.01220583971376    1.38152085905114   -3.24050160368499
F        -1.12230961172194    3.04955192873142   -2.22448813402133
F        -3.04690915088111    3.25147335325143   -3.14594655489252
C        -4.19709967489000    2.53545776512056   -0.82322401636989
C        -4.81818658087240    2.21557853802920    0.36848076029850
C        -4.18996814767272    1.36850587992711    1.26405339187562
C        -2.94999061558256    0.84289763561673    0.95988764500378
N        -0.95403657386916   -0.88420272375646   -0.17635227426674
C        -1.88278785739360   -1.71367675619244   -0.74616984095029
C        -1.71057319269937   -3.15350036644166   -0.45731190278605
C        -1.76811408980419   -3.81594935903235    0.74156891020796
C        -2.00971173597907   -3.33774455603513    2.12896413006456
O        -1.61714438313041   -5.13714390961913    0.54037082074803
C        -1.46274338010835   -5.33590758772955   -0.77892457072551
C        -1.52622955005938   -4.15925222618530   -1.45024111944401
O        -2.77996109087020   -1.27381038071603   -1.43038607998856
C         0.29079464980042   -1.29217440999585    0.43063988744840
C         1.11116204522938   -2.17195907775237   -0.53768402508575
O         1.47295648085083   -1.49551823874408   -1.62442605770817
O         1.35521416810208   -3.33155434068088   -0.36114138245659
N         0.96085184015353   -0.05006498768061    0.72538721618232
C         2.23455462570093    0.06420915403001    1.19268803559783
C         2.93573925584723   -1.22466735322715    1.38938874099017
C         4.10339302719423   -1.58393095711154    0.76474559382016
C         4.90878572696342   -0.86709875824261   -0.25597271672860
O         4.49429338615204   -2.79820695432101    1.18852140279627
C         3.60418773622418   -3.21659078735755    2.10424491110539
C         2.62243676569792   -2.29609079128412    2.27547068010699
O         2.75408932928929    1.14119945659710    1.39324426611736
H         1.51457699328112    5.54600931892498   -0.21166779091899
H         2.97376108743462    4.92343166420454   -2.08948057330933
H         3.10846675488778    2.56052234360255   -2.80750235425364
H         1.80372819121240    0.84669104677724   -1.63093137138677
H        -0.32034879580035    1.46372968508384    1.35982286607579
H        -0.66051175946209    0.66588091339782   -1.54646090147574
H        -4.67938987059013    3.20054965100786   -1.52225644607163
H        -5.78742146875468    2.63032940741663    0.59630731212094
H        -4.66473184739569    1.11876147786318    2.20067771795837
H        -2.46093026123541    0.18190657064012    1.66034209579973
H        -2.31717703980600   -2.29651567520051    2.11596172427993
H        -2.79498378248277   -3.93341057256461    2.59107730070470
H        -1.11198712871096   -3.44865304597663    2.73802220337705
H        -1.31992175920388   -6.34434825983811   -1.11066111748473
H        -1.44993233413814   -3.99879335554057   -2.50535215616995
H         0.10970369468232   -1.89010758489158    1.33585555838930
H         1.94168967282914   -2.07034865513552   -2.25193284111603
H         5.96477106631340   -0.92389313307998    0.00004657148164
H         4.60053835930300    0.17424186342477   -0.28808631607580
H         4.77874187156624   -1.31366966635999   -1.24236322194976
H         3.77564344439648   -4.17267368306337    2.55553422821797
H         1.80255644680290   -2.35022008164646    2.96112715917850

          :  Hamiltonian                  GFN2-xTB          :
         :: total energy            -134.187346872582 Eh    ::
         :: gradient norm              0.000582581726 Eh/a0 ::
         :: HOMO-LUMO gap              3.205040594261 eV    ::
         :: SCC energy              -135.691063188828 Eh    ::
         :: -> dispersion             -0.097355339735 Eh    ::
         :: repulsion energy           1.499922481758 Eh    ::

    * Orbital Energies and Occupations

         #    Occupation            Energy/Eh            Energy/eV
      -------------------------------------------------------------
         1        2.0000           -0.8760185             -23.8377
       ...           ...                  ...                  ...
       103        2.0000           -0.4503200             -12.2538
       104        2.0000           -0.4411824             -12.0052
       105        2.0000           -0.4384212             -11.9300
       106        2.0000           -0.4372398             -11.8979
       107        2.0000           -0.4361439             -11.8681
       108        2.0000           -0.4336440             -11.8001
       109        2.0000           -0.4311383             -11.7319
       110        2.0000           -0.4228009             -11.5050
       111        2.0000           -0.4122216             -11.2171
       112        2.0000           -0.4089650             -11.1285
       113        2.0000           -0.4071944             -11.0803
       114        2.0000           -0.4009379             -10.9101
       115        2.0000           -0.3988308             -10.8527 (HOMO)
       116                         -0.2810477              -7.6477 (LUMO)
       117                         -0.2638421              -7.1795
       118                         -0.2593395              -7.0570
       119                         -0.2540912              -6.9142
       120                         -0.2499219              -6.8007
       121                         -0.2453268              -6.6757
       122                         -0.2413477              -6.5674
       123                         -0.2205282              -6.0009
       124                         -0.2171534              -5.9090
       125                         -0.1710332              -4.6541
       126                         -0.1682128              -4.5773
       ...                                ...                  ...
       198                          0.6834584              18.5979
      -------------------------------------------------------------
                  HL-Gap            0.1177831 Eh            3.2050 eV

     #   Z          covCN         q      C6AA      Î±(0)
     1   6 C        2.976    -0.023    28.580     8.769
     2   6 C        3.336     0.485    17.300     6.588
     3   9 F        0.792    -0.199    11.227     3.958
     4   9 F        0.791    -0.206    11.300     3.971
     5   9 F        0.791    -0.225    11.495     4.005
     6   6 C        2.923    -0.018    28.462     8.749
     7   6 C        2.920    -0.020    28.510     8.756
     8   6 C        2.919    -0.016    28.420     8.742
     9   6 C        2.927    -0.025    28.616     8.773
    10   6 C        2.972     0.028    27.371     8.582
    11   6 C        3.822     0.046    19.781     6.329
    12   6 C        3.826     0.048    19.748     6.323
    13   6 C        2.972     0.027    27.403     8.587
    14   6 C        2.976    -0.021    28.534     8.762
    15   6 C        3.335     0.486    17.294     6.587
    16   9 F        0.791    -0.203    11.266     3.965
    17   9 F        0.791    -0.224    11.489     4.004
    18   9 F        0.792    -0.200    11.234     3.959
    19   6 C        2.923    -0.018    28.454     8.748
    20   6 C        2.921    -0.020    28.504     8.755
    21   6 C        2.919    -0.016    28.409     8.740
    22   6 C        2.928    -0.022    28.564     8.765
    23   7 N        2.766    -0.124    23.697     7.230
    24   6 C        2.758     0.273    22.383     7.747
    25   6 C        3.076    -0.067    29.569     8.915
    26   6 C        3.099     0.114    25.372     8.255
    27   6 C        3.753    -0.117    22.797     6.809
    28   8 O        1.732    -0.170    16.864     5.545
    29   6 C        3.058     0.070    26.386     8.424
    30   6 C        3.008    -0.057    29.395     8.894
    31   8 O        0.859    -0.408    21.846     6.267
    32   6 C        3.751     0.085    19.230     6.254
    33   6 C        2.687     0.351    21.042     7.507
    34   8 O        1.659    -0.357    20.036     6.043
    35   8 O        0.856    -0.385    21.386     6.200
    36   7 N        2.767    -0.112    23.448     7.192
    37   6 C        2.757     0.273    22.377     7.746
    38   6 C        3.078    -0.070    29.664     8.929
    39   6 C        3.102     0.123    25.178     8.223
    40   6 C        3.753    -0.119    22.847     6.816
    41   8 O        1.731    -0.172    16.894     5.550
    42   6 C        3.061     0.071    26.352     8.418
    43   6 C        3.006    -0.065    29.590     8.923
    44   8 O        0.859    -0.419    22.054     6.296
    45   1 H        0.926     0.068     2.104     2.268
    46   1 H        0.926     0.058     2.224     2.332
    47   1 H        0.926     0.054     2.270     2.356
    48   1 H        0.926     0.059     2.212     2.326
    49   1 H        0.924     0.064     2.147     2.292
    50   1 H        0.924     0.068     2.111     2.272
    51   1 H        0.926     0.070     2.087     2.259
    52   1 H        0.926     0.059     2.205     2.322
    53   1 H        0.926     0.056     2.241     2.341
    54   1 H        0.926     0.045     2.386     2.416
    55   1 H        0.925     0.053     2.287     2.365
    56   1 H        0.925     0.073     2.048     2.238
    57   1 H        0.924     0.062     2.179     2.308
    58   1 H        0.926     0.060     2.201     2.320
    59   1 H        0.927     0.049     2.337     2.391
    60   1 H        0.923     0.073     2.052     2.240
    61   1 H        0.804     0.344     0.602     1.219
    62   1 H        0.925     0.073     2.049     2.238
    63   1 H        0.925     0.071     2.071     2.250
    64   1 H        0.924     0.058     2.224     2.332
    65   1 H        0.926     0.062     2.179     2.308
    66   1 H        0.927     0.039     2.463     2.454

Wiberg/Mayer (AO) data.
largest (>0.10) Wiberg bond orders for each atom

     #   Z sym  total        # sym  WBO       # sym  WBO       # sym  WBO
 ---------------------------------------------------------------------------
     1   6 C    3.969 --     6 C    1.410    10 C    1.387     2 C    0.952
                             8 C    0.104
     2   6 C    3.820 --     3 F    0.958     1 C    0.952     4 F    0.944
                             5 F    0.927
     3   9 F    1.080 --     2 C    0.958
     4   9 F    1.074 --     2 C    0.944
     5   9 F    1.054 --     2 C    0.927
     6   6 C    3.987 --     7 C    1.445     1 C    1.410    45 H    0.965
                             9 C    0.110
     7   6 C    3.989 --     6 C    1.445     8 C    1.430    46 H    0.969
                            10 C    0.108
     8   6 C    3.990 --     9 C    1.451     7 C    1.430    47 H    0.969
                             1 C    0.104
     9   6 C    3.989 --     8 C    1.451    10 C    1.406    48 H    0.962
                             6 C    0.110
    10   6 C    3.986 --     9 C    1.406     1 C    1.387    11 C    0.995
                             7 C    0.108
    11   6 C    3.967 --    10 C    0.995    36 N    0.957    49 H    0.952
                            12 C    0.951
    12   6 C    3.967 --    13 C    0.995    23 N    0.956    11 C    0.951
                            50 H    0.951
    13   6 C    3.986 --    22 C    1.408    14 C    1.386    12 C    0.995
                            20 C    0.109
    14   6 C    3.970 --    19 C    1.413    13 C    1.386    15 C    0.952
                            21 C    0.105
    15   6 C    3.822 --    18 F    0.957    14 C    0.952    16 F    0.947
                            17 F    0.927
    16   9 F    1.077 --    15 C    0.947
    17   9 F    1.054 --    15 C    0.927
    18   9 F    1.079 --    15 C    0.957
    19   6 C    3.987 --    20 C    1.444    14 C    1.413    51 H    0.965
                            22 C    0.109
    20   6 C    3.988 --    19 C    1.444    21 C    1.432    52 H    0.969
                            13 C    0.109
    21   6 C    3.990 --    22 C    1.450    20 C    1.432    53 H    0.969
                            14 C    0.105
    22   6 C    3.990 --    21 C    1.450    13 C    1.408    54 H    0.965
                            19 C    0.109
    23   7 N    3.436 --    24 C    1.173    32 C    0.984    12 C    0.956
                            31 O    0.183
    24   6 C    3.945 --    31 O    1.706    23 N    1.173    25 C    0.986
    25   6 C    3.972 --    26 C    1.527    30 C    1.246    24 C    0.986
    26   6 C    3.916 --    25 C    1.527    28 O    1.134    27 C    1.029
                            29 C    0.135
    27   6 C    3.993 --    26 C    1.029    55 H    0.982    56 H    0.969
                            57 H    0.965
    28   8 O    2.455 --    26 C    1.134    29 C    1.130
    29   6 C    3.907 --    30 C    1.625    28 O    1.130    58 H    0.965
                            26 C    0.135
    30   6 C    3.982 --    29 C    1.625    25 C    1.246    59 H    0.974
    31   8 O    2.039 --    24 C    1.706    23 N    0.183
    32   6 C    3.970 --    36 N    0.988    23 N    0.984    60 H    0.940
                            33 C    0.908
    33   6 C    3.921 --    35 O    1.781    34 O    1.153    32 C    0.908
    34   8 O    2.224 --    33 C    1.153    61 H    0.855    35 O    0.181
    35   8 O    2.064 --    33 C    1.781    34 O    0.181
    36   7 N    3.455 --    37 C    1.195    32 C    0.988    11 C    0.957
                            44 O    0.189
    37   6 C    3.947 --    44 O    1.689    36 N    1.195    38 C    0.982
    38   6 C    3.972 --    39 C    1.520    43 C    1.244    37 C    0.982
    39   6 C    3.917 --    38 C    1.520    41 O    1.136    40 C    1.032
                            42 C    0.131
    40   6 C    3.991 --    39 C    1.032    63 H    0.979    62 H    0.970
                            64 H    0.965
    41   8 O    2.454 --    39 C    1.136    42 C    1.129
    42   6 C    3.908 --    43 C    1.626    41 O    1.129    65 H    0.965
                            39 C    0.131
    43   6 C    3.982 --    42 C    1.626    38 C    1.244    66 H    0.973
    44   8 O    2.028 --    37 C    1.689    36 N    0.189
    45   1 H    0.995 --     6 C    0.965
    46   1 H    0.996 --     7 C    0.969
    47   1 H    0.996 --     8 C    0.969
    48   1 H    0.996 --     9 C    0.962
    49   1 H    0.995 --    11 C    0.952
    50   1 H    0.995 --    12 C    0.951
    51   1 H    0.995 --    19 C    0.965
    52   1 H    0.996 --    20 C    0.969
    53   1 H    0.996 --    21 C    0.969
    54   1 H    0.998 --    22 C    0.965
    55   1 H    0.997 --    27 C    0.982
    56   1 H    0.994 --    27 C    0.969
    57   1 H    0.996 --    27 C    0.965
    58   1 H    0.996 --    29 C    0.965
    59   1 H    0.998 --    30 C    0.974
    60   1 H    0.994 --    32 C    0.940
    61   1 H    0.881 --    34 O    0.855
    62   1 H    0.994 --    40 C    0.970
    63   1 H    0.995 --    40 C    0.979
    64   1 H    0.997 --    40 C    0.965
    65   1 H    0.995 --    42 C    0.965
    66   1 H    0.998 --    43 C    0.973
 ---------------------------------------------------------------------------

molecular dipole:
                 x           y           z       tot (Debye)
 q only:        0.573      -1.087       0.069
   full:        0.712      -1.493       0.055       4.207

           -------------------------------------------------
          | TOTAL ENERGY             -134.187346872582 Eh   |
          | GRADIENT NORM               0.000582581726 Eh/Î± |
          | HOMO-LUMO GAP               3.205040594261 eV   |
           -------------------------------------------------

 * finished run on 2022/03/16 at 21:41:46.202
