   * xtb version 6.3.3 (4ae9cef) compiled by 'conda@95abc7406d43' on 2020-10-14
          program call               : xtb alk_10.xyz --opt --chrg 0 --uhf 0 --gfn 2
          number of atoms            :                    24
          number of electrons        :                    48
          charge                     :                     0
          spin                       :                   0.0

   ID    Z sym.   atoms
    1    6 C      1-8
    2    1 H      9-24

          :  Hamiltonian                  GFN2-xTB          :
 * total energy  :   -25.2578546 Eh     change       -0.1896794E-10 Eh
 * total energy  :   -25.2591320 Eh     change       -0.1277401E-02 Eh
 * total energy  :   -25.2592718 Eh     change       -0.1397897E-03 Eh
 * total energy  :   -25.2593119 Eh     change       -0.4004718E-04 Eh
 * total energy  :   -25.2593298 Eh     change       -0.1787296E-04 Eh
 * total energy  :   -25.2593386 Eh     change       -0.8829488E-05 Eh
 * total energy  :   -25.2593503 Eh     change       -0.1175749E-04 Eh
 * total energy  :   -25.2593602 Eh     change       -0.9819303E-05 Eh
 * total energy  :   -25.2593666 Eh     change       -0.6479122E-05 Eh
 * total energy  :   -25.2593718 Eh     change       -0.5141307E-05 Eh
 * total energy  :   -25.2593739 Eh     change       -0.2104574E-05 Eh
   *** GEOMETRY OPTIMIZATION CONVERGED AFTER 11 ITERATIONS ***

 final structure:
================
24
 xtb: 6.3.3 (4ae9cef)
C        -2.91155598136301    1.94654787193545    0.23826008745365
C        -2.37176657294375    0.79171933513966    0.57949549713537
C        -2.18153231515379   -0.35812460690015   -0.35787196250903
C        -0.70261523440759   -0.60202631342605   -0.69207348525853
C         0.10583651982030   -1.09518230757485    0.50713773341229
C         1.56953747435500   -1.40650621549130    0.16217986401396
C         2.55160512043357   -0.29497271646304    0.53745821095329
C         2.34384986144613    0.99969210234275   -0.23881508072900
H        -3.26963329350620    2.13100174279040   -0.76202046229518
H        -3.02666387754882    2.75615235067118    0.93928889899217
H        -2.02685633717330    0.63537132559609    1.59306239564305
H        -2.72305403715248   -0.15968332277387   -1.28520427712264
H        -2.59538130818943   -1.26446715739720    0.09302983765167
H        -0.64928776808291   -1.35420958059960   -1.48349223310170
H        -0.27331237773638    0.32112372514539   -1.08252119287766
H         0.07815310771778   -0.35084109687662    1.30376869623038
H        -0.37409807197178   -1.99984856301042    0.88893047433462
H         1.65545718892492   -1.61428260092510   -0.90664429133578
H         1.87638934627948   -2.31049448416303    0.69337419925145
H         2.46830082822865   -0.09043396162775    1.60761651621842
H         3.56591563226944   -0.65770208121835    0.35178768354250
H         2.37696580472453    0.81106289432610   -1.30982883005019
H         3.12717684461553    1.71394262029131    0.00676105417171
H         1.38656744641418    1.45216304020903    0.00627166627516

          :  Hamiltonian                  GFN2-xTB          :
         :: total energy             -25.259373882723 Eh    ::
         :: gradient norm              0.000473456191 Eh/a0 ::
         :: HOMO-LUMO gap              5.385075137715 eV    ::
         :: SCC energy               -25.667664741208 Eh    ::
         :: -> dispersion             -0.015329859042 Eh    ::
         :: repulsion energy           0.408174312052 Eh    ::

    * Orbital Energies and Occupations

         #    Occupation            Energy/Eh            Energy/eV
      -------------------------------------------------------------
         1        2.0000           -0.6242212             -16.9859
       ...           ...                  ...                  ...
        12        2.0000           -0.4983649             -13.5612
        13        2.0000           -0.4825780             -13.1316
        14        2.0000           -0.4726393             -12.8612
        15        2.0000           -0.4667623             -12.7012
        16        2.0000           -0.4577778             -12.4568
        17        2.0000           -0.4511405             -12.2762
        18        2.0000           -0.4439437             -12.0803
        19        2.0000           -0.4360748             -11.8662
        20        2.0000           -0.4263913             -11.6027
        21        2.0000           -0.4202441             -11.4354
        22        2.0000           -0.4175088             -11.3610
        23        2.0000           -0.4115088             -11.1977
        24        2.0000           -0.3960955             -10.7783 (HOMO)
        25                         -0.1981977              -5.3932 (LUMO)
        26                          0.0684479               1.8626
        27                          0.0983933               2.6774
        28                          0.1046661               2.8481
        29                          0.1092512               2.9729
        30                          0.1266360               3.4459
        31                          0.1361819               3.7057
        32                          0.1453552               3.9553
        33                          0.1488925               4.0516
        34                          0.1524667               4.1488
        35                          0.1706104               4.6425
       ...                                ...                  ...
        48                          0.6271826              17.0665
      -------------------------------------------------------------
                  HL-Gap            0.1978979 Eh            5.3851 eV

     #   Z          covCN         q      C6AA      Î±(0)
     1   6 C        2.837    -0.095    30.381     9.033
     2   6 C        2.886    -0.026    28.660     8.777
     3   6 C        3.806    -0.059    21.632     6.621
     4   6 C        3.802    -0.055    21.556     6.610
     5   6 C        3.800    -0.058    21.619     6.620
     6   6 C        3.800    -0.060    21.648     6.625
     7   6 C        3.799    -0.052    21.504     6.603
     8   6 C        3.751    -0.101    22.483     6.762
     9   1 H        0.926     0.033     2.538     2.491
    10   1 H        0.926     0.031     2.568     2.506
    11   1 H        0.925     0.030     2.585     2.514
    12   1 H        0.924     0.035     2.517     2.481
    13   1 H        0.924     0.036     2.509     2.477
    14   1 H        0.924     0.028     2.619     2.531
    15   1 H        0.924     0.037     2.490     2.468
    16   1 H        0.924     0.037     2.494     2.469
    17   1 H        0.924     0.026     2.638     2.540
    18   1 H        0.924     0.032     2.558     2.501
    19   1 H        0.924     0.027     2.637     2.539
    20   1 H        0.924     0.028     2.613     2.528
    21   1 H        0.924     0.026     2.642     2.542
    22   1 H        0.925     0.032     2.553     2.498
    23   1 H        0.925     0.030     2.590     2.517
    24   1 H        0.925     0.037     2.487     2.466

Wiberg/Mayer (AO) data.
largest (>0.10) Wiberg bond orders for each atom

     #   Z sym  total        # sym  WBO       # sym  WBO       # sym  WBO
 ---------------------------------------------------------------------------
     1   6 C    3.991 --     2 C    1.979    10 H    0.978     9 H    0.976
     2   6 C    3.992 --     1 C    1.979     3 C    1.027    11 H    0.966
     3   6 C    3.998 --     2 C    1.027     4 C    0.987    12 H    0.975
                            13 H    0.965
     4   6 C    3.997 --     5 C    1.010     3 C    0.987    14 H    0.977
                            15 H    0.975
     5   6 C    3.997 --     4 C    1.010     6 C    1.003    17 H    0.980
                            16 H    0.975
     6   6 C    3.997 --     7 C    1.009     5 C    1.003    19 H    0.980
                            18 H    0.977
     7   6 C    3.998 --     8 C    1.020     6 C    1.009    21 H    0.979
                            20 H    0.978
     8   6 C    3.997 --     7 C    1.020    22 H    0.988    23 H    0.987
                            24 H    0.985
     9   1 H    0.999 --     1 C    0.976
    10   1 H    0.999 --     1 C    0.978
    11   1 H    0.999 --     2 C    0.966
    12   1 H    0.999 --     3 C    0.975
    13   1 H    0.999 --     3 C    0.965
    14   1 H    0.999 --     4 C    0.977
    15   1 H    0.999 --     4 C    0.975
    16   1 H    0.999 --     5 C    0.975
    17   1 H    0.999 --     5 C    0.980
    18   1 H    0.999 --     6 C    0.977
    19   1 H    0.999 --     6 C    0.980
    20   1 H    0.999 --     7 C    0.978
    21   1 H    0.999 --     7 C    0.979
    22   1 H    0.999 --     8 C    0.988
    23   1 H    0.999 --     8 C    0.987
    24   1 H    0.999 --     8 C    0.985
 ---------------------------------------------------------------------------

molecular dipole:
                 x           y           z       tot (Debye)
 q only:        0.073      -0.107      -0.038
   full:        0.077      -0.120      -0.035       0.373

           -------------------------------------------------
          | TOTAL ENERGY              -25.259373882723 Eh   |
          | GRADIENT NORM               0.000473456191 Eh/Î± |
          | HOMO-LUMO GAP               5.385075137715 eV   |
           -------------------------------------------------

 * finished run on 2022/03/17 at 02:19:16.851
