   * xtb version 6.3.3 (4ae9cef) compiled by 'conda@95abc7406d43' on 2020-10-14
          program call               : xtb acid_174.xyz --opt --chrg 0 --uhf 0 --gfn 2
          number of atoms            :                    86
          number of electrons        :                   262
          charge                     :                     0
          spin                       :                   0.0

   ID    Z sym.   atoms
    1    6 C      1-22, 24-34, 37, 38, 42-52
    2    7 N      23, 41
    3    8 O      35, 36, 39, 40, 53, 54
    4    1 H      55-86

          :  Hamiltonian                  GFN2-xTB          :
 * total energy  :  -145.0718647 Eh     change       -0.7659992E-08 Eh
 * total energy  :  -145.0904510 Eh     change       -0.1858634E-01 Eh
 * total energy  :  -145.0960147 Eh     change       -0.5563672E-02 Eh
 * total energy  :  -145.0974149 Eh     change       -0.1400169E-02 Eh
 * total energy  :  -145.0982400 Eh     change       -0.8250945E-03 Eh
 * total energy  :  -145.0986424 Eh     change       -0.4024333E-03 Eh
 * total energy  :  -145.0990938 Eh     change       -0.4513830E-03 Eh
 * total energy  :  -145.0996540 Eh     change       -0.5602525E-03 Eh
 * total energy  :  -145.1001840 Eh     change       -0.5299797E-03 Eh
 * total energy  :  -145.1005909 Eh     change       -0.4068718E-03 Eh
 * total energy  :  -145.1035079 Eh     change       -0.1595890E-04 Eh
 * total energy  :  -145.1035285 Eh     change       -0.2058318E-04 Eh
 * total energy  :  -145.1035399 Eh     change       -0.1138710E-04 Eh
 * total energy  :  -145.1035525 Eh     change       -0.1260767E-04 Eh
 * total energy  :  -145.1035745 Eh     change       -0.2200860E-04 Eh
 * total energy  :  -145.1035941 Eh     change       -0.1960087E-04 Eh
 * total energy  :  -145.1036092 Eh     change       -0.1509784E-04 Eh
 * total energy  :  -145.1036250 Eh     change       -0.1579674E-04 Eh
 * total energy  :  -145.1036257 Eh     change       -0.6767347E-06 Eh
   *** GEOMETRY OPTIMIZATION CONVERGED AFTER 44 ITERATIONS ***

 final structure:
================
86
 xtb: 6.3.3 (4ae9cef)
C        -2.09152571161405   -5.47540703768475   -2.92407131627853
C        -2.42625577917774   -6.30412201677902   -1.89262225036481
C        -2.23299499703784   -5.87760140007594   -0.57140713003940
C        -1.71159711750750   -4.64282338447993   -0.30467724292074
C        -1.34703693441537   -3.75755758831657   -1.34364677370961
C        -1.54721130110166   -4.19602106734153   -2.68325864857288
C        -1.19419296691342   -3.35600937827152   -3.75899487246161
C        -0.64585141012137   -2.12792234665742   -3.52883468667735
C        -0.43422311706468   -1.69227898933370   -2.21533169178387
C        -0.77906437834586   -2.46991039217825   -1.13743434887837
C        -0.51806745364474   -1.92269386404766    0.24691493477445
C         0.98010575621512   -1.76088121509736    0.57411344180004
C         1.35353094668252   -2.52055446574196    1.82802204676293
C         1.51012244290273   -1.86588536819299    3.02180232374021
C         1.81381005833763   -2.56084622197233    4.20072347863990
C         1.93914681376130   -3.91933995350019    4.18243792020686
C         1.77980287236048   -4.63621316709203    2.97833561027131
C         1.49547708424917   -3.93419990764040    1.77486952673216
C         1.36148272338700   -4.68234355533598    0.58475880406639
C         1.47291568275236   -6.04509060817623    0.59088582651082
C         1.73569008895243   -6.73521595432152    1.78248127956627
C         1.89404100794618   -6.04197417050556    2.94866211047511
N         1.17749564712952   -0.32596138989635    0.72105735768740
C         2.43270951558843    0.17459562572651    0.51104627570228
C         2.60210284641504    1.62983459091903    0.69037031496344
C         2.03145742351616    2.56539124489690    1.52354504228741
C         2.72354479852924    3.76750070146460    1.30044172304355
C         3.68226659657201    3.49381437008149    0.34875803796520
C         4.69027102619595    4.33474664322389   -0.26815323508642
C         4.75882542460694    5.69997123804892    0.01361768793481
C         5.73391001416891    6.48268786697399   -0.57323377713841
C         6.65119278607399    5.91980759432230   -1.44639202555602
C         6.58831848229747    4.56552914793361   -1.73298856825001
C         5.61667822247631    3.77563471112931   -1.15057578020667
O         3.60496451624898    2.20005293033351   -0.00391782495612
O         3.36447383219334   -0.55331080590918    0.24089590967885
C        -0.05493134867368    0.41338194578210    0.73537515250743
C        -0.04582942383072    1.52832097376762   -0.33584100058405
O        -0.60656108209964    2.64803967730268    0.10916321224272
O         0.38241070936498    1.39253042870910   -1.44555047672058
N        -1.06054945298164   -0.57692625604046    0.42023106256489
C        -2.40214799456597   -0.38501263990134    0.32794231748958
C        -2.88468086103969    0.97122071375433    0.70592943318262
C        -2.85416735584250    1.63136322164104    1.90623977878830
C        -3.58101996644553    2.82253321203288    1.71789583182750
C        -4.01349862249851    2.81247423784395    0.41271250453111
C        -4.80257014154405    3.76017457489666   -0.35040697710846
C        -5.23368436204351    4.95993840235914    0.21821378607466
C        -6.00184925706213    5.84182456633022   -0.51673126723346
C        -6.34994644257314    5.54577669018406   -1.82508818116586
C        -5.92197050126820    4.35938601498321   -2.39901463487794
C        -5.15419610043571    3.47210822821976   -1.67061730272244
O        -3.59200268636402    1.67924353709854   -0.19122688327210
O        -3.15647384022466   -1.27530162230053    0.00129148466018
H        -2.23523297821496   -5.78652222134903   -3.94928797891245
H        -2.83955434511096   -7.28352625570032   -2.08436492345694
H        -2.49990627363106   -6.53540336448904    0.24281602973777
H        -1.57783084464053   -4.35725621256177    0.72669794268279
H        -1.36391506738257   -3.70656142052976   -4.76711586599320
H        -0.36910692874942   -1.48178969835653   -4.34833637389660
H         0.00685702442827   -0.71963561415712   -2.06064505085142
H        -1.00189217891906   -2.55581670713107    0.99638746405431
H         1.61480031371610   -2.09410873201518   -0.25503494413691
H         1.41092446144596   -0.79118173017839    3.06476211315142
H         1.94113099420977   -2.00861233525332    5.12006008709049
H         2.16219483700094   -4.46615969021253    5.08717926696314
H         1.16643806121767   -4.17851053755853   -0.34764957698778
H         1.35683919728720   -6.59682045989278   -0.33016993050267
H         1.81863676819184   -7.81197876534818    1.76900362205168
H         2.10863782909592   -6.55991615593346    3.87274283348045
H         1.23861444566595    2.42093595868737    2.22811979954195
H         2.54030228669374    4.70249086200682    1.78827975694342
H         4.04712903766844    6.14495907312739    0.69146998152146
H         5.78030013166815    7.53825049768437   -0.34900228181138
H         7.41272204321333    6.53562929308284   -1.90119839604849
H         7.30201307512502    4.12370501116447   -2.41245619693303
H         5.56469986675738    2.71967100805577   -1.36641765505211
H        -0.26102476571965    0.87386097637929    1.71482665975464
H        -0.62968513770807    3.32811359454578   -0.58505100841535
H        -2.39401423378418    1.29644785669837    2.81395305870978
H        -3.76023254244838    3.57717322487847    2.45513307904886
H        -4.96839864276006    5.19616538208170    1.23682326810198
H        -6.33457989259791    6.76547736140289   -0.06636040129239
H        -6.95431395636732    6.23608922389115   -2.39426409767473
H        -6.19063341174633    4.12445677429163   -3.41831516142203
H        -4.82456688610122    2.54389547953535   -2.11184443955351

          :  Hamiltonian                  GFN2-xTB          :
         :: total energy            -145.103625694371 Eh    ::
         :: gradient norm              0.000731987887 Eh/a0 ::
         :: HOMO-LUMO gap              2.647177558090 eV    ::
         :: SCC energy              -147.421692342549 Eh    ::
         :: -> dispersion             -0.124203321862 Eh    ::
         :: repulsion energy           2.315932660319 Eh    ::

    * Orbital Energies and Occupations

         #    Occupation            Energy/Eh            Energy/eV
      -------------------------------------------------------------
         1        2.0000           -0.7822449             -21.2860
       ...           ...                  ...                  ...
       119        2.0000           -0.4137210             -11.2579
       120        2.0000           -0.4135886             -11.2543
       121        2.0000           -0.4130318             -11.2392
       122        2.0000           -0.4111308             -11.1874
       123        2.0000           -0.4057819             -11.0419
       124        2.0000           -0.4038946             -10.9905
       125        2.0000           -0.4026539             -10.9568
       126        2.0000           -0.4000416             -10.8857
       127        2.0000           -0.3960728             -10.7777
       128        2.0000           -0.3870634             -10.5325
       129        2.0000           -0.3841893             -10.4543
       130        2.0000           -0.3799496             -10.3390
       131        2.0000           -0.3736482             -10.1675 (HOMO)
       132                         -0.2763662              -7.5203 (LUMO)
       133                         -0.2717367              -7.3943
       134                         -0.2656475              -7.2286
       135                         -0.2632939              -7.1646
       136                         -0.2572633              -7.0005
       137                         -0.2368719              -6.4456
       138                         -0.2338366              -6.3630
       139                         -0.2316398              -6.3032
       140                         -0.2308876              -6.2828
       141                         -0.2307056              -6.2778
       142                         -0.2243427              -6.1047
       ...                                ...                  ...
       248                          0.7066716              19.2295
      -------------------------------------------------------------
                  HL-Gap            0.0972820 Eh            2.6472 eV

     #   Z          covCN         q      C6AA      Î±(0)
     1   6 C        2.922    -0.034    28.838     8.806
     2   6 C        2.915    -0.029    28.728     8.789
     3   6 C        2.917    -0.028    28.693     8.784
     4   6 C        2.917    -0.029    28.727     8.789
     5   6 C        2.982     0.016    27.646     8.625
     6   6 C        2.989     0.016    27.635     8.623
     7   6 C        2.921    -0.035    28.860     8.810
     8   6 C        2.914    -0.028    28.696     8.784
     9   6 C        2.923    -0.037    28.921     8.819
    10   6 C        2.966     0.002    27.986     8.677
    11   6 C        3.821     0.046    19.795     6.332
    12   6 C        3.825     0.042    19.855     6.341
    13   6 C        2.968    -0.001    28.053     8.688
    14   6 C        2.920    -0.034    28.839     8.806
    15   6 C        2.914    -0.030    28.749     8.792
    16   6 C        2.920    -0.036    28.894     8.815
    17   6 C        2.988     0.016    27.651     8.626
    18   6 C        2.985     0.009    27.818     8.652
    19   6 C        2.917    -0.035    28.863     8.810
    20   6 C        2.917    -0.026    28.663     8.779
    21   6 C        2.915    -0.028    28.697     8.784
    22   6 C        2.920    -0.034    28.846     8.808
    23   7 N        2.762    -0.117    23.543     7.206
    24   6 C        2.760     0.266    22.508     7.769
    25   6 C        3.096     0.075    26.213     8.391
    26   6 C        3.009    -0.066    29.631     8.929
    27   6 C        3.013    -0.069    29.711     8.941
    28   6 C        3.101     0.118    25.293     8.241
    29   6 C        2.971     0.005    27.902     8.664
    30   6 C        2.924    -0.035    28.873     8.812
    31   6 C        2.918    -0.027    28.683     8.783
    32   6 C        2.920    -0.027    28.685     8.783
    33   6 C        2.918    -0.026    28.651     8.777
    34   6 C        2.925    -0.027    28.681     8.782
    35   8 O        1.732    -0.157    16.668     5.512
    36   8 O        0.859    -0.402    21.716     6.248
    37   6 C        3.744     0.089    19.172     6.246
    38   6 C        2.688     0.352    21.021     7.503
    39   8 O        1.659    -0.364    20.159     6.061
    40   8 O        0.856    -0.374    21.168     6.168
    41   7 N        2.764    -0.114    23.479     7.197
    42   6 C        2.758     0.265    22.521     7.771
    43   6 C        3.103     0.078    26.129     8.376
    44   6 C        3.009    -0.063    29.539     8.915
    45   6 C        3.017    -0.066    29.618     8.927
    46   6 C        3.102     0.111    25.434     8.264
    47   6 C        2.970     0.004    27.925     8.668
    48   6 C        2.924    -0.036    28.908     8.817
    49   6 C        2.918    -0.028    28.690     8.783
    50   6 C        2.920    -0.029    28.723     8.789
    51   6 C        2.918    -0.027    28.679     8.782
    52   6 C        2.925    -0.030    28.745     8.792
    53   8 O        1.731    -0.175    16.940     5.557
    54   8 O        0.859    -0.399    21.651     6.239
    55   1 H        0.926     0.034     2.533     2.489
    56   1 H        0.926     0.032     2.560     2.502
    57   1 H        0.926     0.031     2.570     2.507
    58   1 H        0.926     0.028     2.617     2.530
    59   1 H        0.926     0.035     2.511     2.478
    60   1 H        0.926     0.037     2.483     2.464
    61   1 H        0.926     0.050     2.314     2.379
    62   1 H        0.924     0.064     2.149     2.293
    63   1 H        0.924     0.084     1.940     2.178
    64   1 H        0.926     0.025     2.657     2.549
    65   1 H        0.926     0.034     2.525     2.485
    66   1 H        0.926     0.037     2.491     2.468
    67   1 H        0.926     0.033     2.538     2.491
    68   1 H        0.926     0.034     2.532     2.488
    69   1 H        0.926     0.034     2.524     2.484
    70   1 H        0.926     0.035     2.512     2.479
    71   1 H        0.926     0.036     2.506     2.476
    72   1 H        0.926     0.043     2.403     2.424
    73   1 H        0.926     0.035     2.514     2.480
    74   1 H        0.926     0.036     2.503     2.474
    75   1 H        0.926     0.037     2.496     2.470
    76   1 H        0.926     0.039     2.462     2.453
    77   1 H        0.926     0.056     2.252     2.347
    78   1 H        0.923     0.062     2.180     2.309
    79   1 H        0.804     0.347     0.595     1.212
    80   1 H        0.926     0.035     2.510     2.477
    81   1 H        0.927     0.044     2.399     2.422
    82   1 H        0.926     0.036     2.508     2.477
    83   1 H        0.926     0.035     2.510     2.478
    84   1 H        0.926     0.035     2.512     2.478
    85   1 H        0.926     0.037     2.491     2.468
    86   1 H        0.926     0.049     2.338     2.391

Wiberg/Mayer (AO) data.
largest (>0.10) Wiberg bond orders for each atom

     #   Z sym  total        # sym  WBO       # sym  WBO       # sym  WBO
 ---------------------------------------------------------------------------
     1   6 C    3.991 --     2 C    1.558     6 C    1.279    55 H    0.968
                             4 C    0.118
     2   6 C    3.992 --     1 C    1.558     3 C    1.321    56 H    0.971
     3   6 C    3.991 --     4 C    1.555     2 C    1.321    57 H    0.971
     4   6 C    3.992 --     3 C    1.555     5 C    1.282    58 H    0.959
                             1 C    0.118
     5   6 C    3.988 --     4 C    1.282    10 C    1.252     6 C    1.252
     6   6 C    3.990 --     7 C    1.280     1 C    1.279     5 C    1.252
     7   6 C    3.990 --     8 C    1.553     6 C    1.280    59 H    0.968
                            10 C    0.114
     8   6 C    3.992 --     7 C    1.553     9 C    1.327    60 H    0.970
     9   6 C    3.989 --    10 C    1.524     8 C    1.327    61 H    0.961
    10   6 C    3.982 --     9 C    1.524     5 C    1.252    11 C    0.986
                             7 C    0.114
    11   6 C    3.954 --    10 C    0.986    12 C    0.955    41 N    0.947
                            62 H    0.945
    12   6 C    3.955 --    13 C    0.985    23 N    0.961    11 C    0.955
                            63 H    0.942
    13   6 C    3.983 --    14 C    1.531    18 C    1.249    12 C    0.985
                            16 C    0.114
    14   6 C    3.990 --    13 C    1.531    15 C    1.321    64 H    0.967
    15   6 C    3.992 --    16 C    1.557    14 C    1.321    65 H    0.970
    16   6 C    3.990 --    15 C    1.557    17 C    1.277    66 H    0.968
                            13 C    0.114
    17   6 C    3.990 --    22 C    1.281    16 C    1.277    18 C    1.255
    18   6 C    3.989 --    19 C    1.285    17 C    1.255    13 C    1.249
    19   6 C    3.992 --    20 C    1.552    18 C    1.285    67 H    0.963
                            22 C    0.119
    20   6 C    3.992 --    19 C    1.552    21 C    1.324    68 H    0.971
    21   6 C    3.992 --    22 C    1.555    20 C    1.324    69 H    0.971
    22   6 C    3.991 --    21 C    1.555    17 C    1.281    70 H    0.968
                            19 C    0.119
    23   7 N    3.444 --    24 C    1.176    37 C    0.996    12 C    0.961
                            36 O    0.185
    24   6 C    3.956 --    36 O    1.683    23 N    1.176    25 C    1.006
    25   6 C    3.899 --    26 C    1.492    35 O    1.126    24 C    1.006
                            28 C    0.119
    26   6 C    3.983 --    25 C    1.492    27 C    1.349    71 H    0.971
    27   6 C    3.982 --    28 C    1.478    26 C    1.349    72 H    0.973
    28   6 C    3.909 --    27 C    1.478    35 O    1.131    29 C    1.087
                            25 C    0.119
    29   6 C    3.988 --    34 C    1.370    30 C    1.369    28 C    1.087
    30   6 C    3.987 --    31 C    1.461    29 C    1.369    73 H    0.968
                            33 C    0.105
    31   6 C    3.992 --    30 C    1.461    32 C    1.429    74 H    0.971
                            34 C    0.105
    32   6 C    3.978 --    33 C    1.431    31 C    1.429    75 H    0.971
    33   6 C    3.992 --    34 C    1.459    32 C    1.431    76 H    0.970
                            30 C    0.105
    34   6 C    3.989 --    33 C    1.459    29 C    1.370    77 H    0.967
                            31 C    0.105
    35   8 O    2.469 --    28 C    1.131    25 C    1.126
    36   8 O    2.029 --    24 C    1.683    23 N    0.185
    37   6 C    3.972 --    23 N    0.996    41 N    0.979    78 H    0.939
                            38 C    0.907
    38   6 C    3.920 --    40 O    1.783    39 O    1.155    37 C    0.907
    39   8 O    2.220 --    38 C    1.155    79 H    0.853    40 O    0.182
    40   8 O    2.077 --    38 C    1.783    39 O    0.182
    41   7 N    3.467 --    42 C    1.209    37 C    0.979    11 C    0.947
                            54 O    0.198
    42   6 C    3.955 --    54 O    1.694    41 N    1.209    43 C    0.966
    43   6 C    3.899 --    44 C    1.529    53 O    1.130    42 C    0.966
                            46 C    0.126
    44   6 C    3.981 --    43 C    1.529    45 C    1.327    80 H    0.973
    45   6 C    3.982 --    46 C    1.502    44 C    1.327    81 H    0.973
    46   6 C    3.905 --    45 C    1.502    53 O    1.107    47 C    1.088
                            43 C    0.126
    47   6 C    3.988 --    52 C    1.370    48 C    1.369    46 C    1.088
    48   6 C    3.989 --    49 C    1.461    47 C    1.369    82 H    0.968
                            51 C    0.106
    49   6 C    3.992 --    48 C    1.461    50 C    1.429    83 H    0.971
                            52 C    0.105
    50   6 C    3.978 --    51 C    1.431    49 C    1.429    84 H    0.971
    51   6 C    3.992 --    52 C    1.459    50 C    1.431    85 H    0.971
                            48 C    0.106
    52   6 C    3.989 --    51 C    1.459    47 C    1.370    86 H    0.968
                            49 C    0.105
    53   8 O    2.449 --    43 C    1.130    46 C    1.107
    54   8 O    2.037 --    42 C    1.694    41 N    0.198
    55   1 H    0.998 --     1 C    0.968
    56   1 H    0.998 --     2 C    0.971
    57   1 H    0.999 --     3 C    0.971
    58   1 H    0.999 --     4 C    0.959
    59   1 H    0.998 --     7 C    0.968
    60   1 H    0.998 --     8 C    0.970
    61   1 H    0.997 --     9 C    0.961
    62   1 H    0.995 --    11 C    0.945
    63   1 H    0.992 --    12 C    0.942
    64   1 H    0.999 --    14 C    0.967
    65   1 H    0.998 --    15 C    0.970
    66   1 H    0.998 --    16 C    0.968
    67   1 H    0.998 --    19 C    0.963
    68   1 H    0.998 --    20 C    0.971
    69   1 H    0.998 --    21 C    0.971
    70   1 H    0.998 --    22 C    0.968
    71   1 H    0.998 --    26 C    0.971
    72   1 H    0.998 --    27 C    0.973
    73   1 H    0.999 --    30 C    0.968
    74   1 H    0.998 --    31 C    0.971
    75   1 H    0.998 --    32 C    0.971
    76   1 H    0.998 --    33 C    0.970
    77   1 H    0.997 --    34 C    0.967
    78   1 H    0.996 --    37 C    0.939
    79   1 H    0.879 --    39 O    0.853
    80   1 H    0.998 --    44 C    0.973
    81   1 H    0.997 --    45 C    0.973
    82   1 H    0.999 --    48 C    0.968
    83   1 H    0.998 --    49 C    0.971
    84   1 H    0.998 --    50 C    0.971
    85   1 H    0.998 --    51 C    0.971
    86   1 H    0.998 --    52 C    0.968
 ---------------------------------------------------------------------------

molecular dipole:
                 x           y           z       tot (Debye)
 q only:       -0.076       1.349       0.602
   full:       -0.245       1.854       0.843       5.215

           -------------------------------------------------
          | TOTAL ENERGY             -145.103625694371 Eh   |
          | GRADIENT NORM               0.000731987887 Eh/Î± |
          | HOMO-LUMO GAP               2.647177558090 eV   |
           -------------------------------------------------

 * finished run on 2022/03/16 at 22:05:24.979
