   * xtb version 6.3.3 (4ae9cef) compiled by 'conda@95abc7406d43' on 2020-10-14
          program call               : xtb acid_335.xyz --opt --chrg 0 --uhf 0 --gfn 2
          number of atoms            :                    74
          number of electrons        :                   250
          charge                     :                     0
          spin                       :                   0.0

   ID    Z sym.   atoms
    1    6 C      1, 3-16, 18, 20-26, 30, 32, 33, 37-41, 45-47
    2    8 O      2, 17, 31, 34, 35, 48
    3    7 N      19, 36
    4    9 F      27-29, 42-44
    5    1 H      49-74

          :  Hamiltonian                  GFN2-xTB          :
 * total energy  :  -144.7462205 Eh     change       -0.2138165E-08 Eh
 * total energy  :  -144.7643204 Eh     change       -0.1809989E-01 Eh
 * total energy  :  -144.7706985 Eh     change       -0.6378170E-02 Eh
 * total energy  :  -144.7731934 Eh     change       -0.2494856E-02 Eh
 * total energy  :  -144.7751861 Eh     change       -0.1992686E-02 Eh
 * total energy  :  -144.7764996 Eh     change       -0.1313558E-02 Eh
 * total energy  :  -144.7775524 Eh     change       -0.1052759E-02 Eh
 * total energy  :  -144.7784686 Eh     change       -0.9161823E-03 Eh
 * total energy  :  -144.7793533 Eh     change       -0.8847604E-03 Eh
 * total energy  :  -144.7800542 Eh     change       -0.7008329E-03 Eh
 * total energy  :  -144.7906882 Eh     change       -0.3277099E-05 Eh
 * total energy  :  -144.7907039 Eh     change       -0.1572558E-04 Eh
 * total energy  :  -144.7907318 Eh     change       -0.2789347E-04 Eh
 * total energy  :  -144.7907457 Eh     change       -0.1382520E-04 Eh
 * total energy  :  -144.7907439 Eh     change        0.1723126E-05 Eh
 * total energy  :  -144.7907601 Eh     change       -0.1612912E-04 Eh
 * total energy  :  -144.7907693 Eh     change       -0.9284272E-05 Eh
 * total energy  :  -144.7907758 Eh     change       -0.6415012E-05 Eh
 * total energy  :  -144.7907801 Eh     change       -0.4343229E-05 Eh
   *** GEOMETRY OPTIMIZATION CONVERGED AFTER 97 ITERATIONS ***

 final structure:
================
74
 xtb: 6.3.3 (4ae9cef)
C        -2.11252959923126   -1.17625904533295   -0.92589304489070
O        -1.50819885797051   -0.35604035375127   -1.82975063534112
C        -2.02981163430777   -0.28903973759899   -3.13653403319259
C        -3.21168207033261   -1.97853613015050   -1.20606880698780
C        -3.76715289895063   -2.77241112014425   -0.21709436493070
C        -3.23151719110521   -2.78315496768361    1.05609383394680
C        -2.13778605797955   -1.98397222687133    1.34037936242370
C        -1.57596537630483   -1.17119644998873    0.37164976472177
C        -0.37356714690524   -0.32818701628723    0.69717758217777
C         0.88279962517114   -0.84344201630119   -0.03475072908132
C         1.75875536306940   -1.68095655411922    0.85704931857774
C         2.58567684648566   -1.09672648282132    1.80062377360199
C         3.39763234683986   -1.87545420457416    2.60756627791755
C         3.37637068189968   -3.24986930266251    2.46817428253453
C         2.53912715261579   -3.85250782268131    1.54391409614434
C         1.71744102340413   -3.07691335066225    0.73488937899170
O         0.83956172648406   -3.57551395311359   -0.18090446828745
C         0.81318455353007   -4.96446258466440   -0.40185830038176
N         1.55179502442165    0.36408287909342   -0.50074119496531
C         2.62807117223464    0.26222900958015   -1.31739988669165
C         3.19934127341513    1.58160856830758   -1.74890907615409
C         3.02168342883708    2.03824826816466   -3.04909185099679
C         3.56777344802904    3.24661416306784   -3.44503159788782
C         4.29317045347975    4.01254608918951   -2.54858333252530
C         4.48510070016056    3.54335382202671   -1.25748647131756
C         5.22423490070638    4.36177835144863   -0.23800429320027
F         4.38011702953675    4.82991854670227    0.71372676916929
F         5.83635778513611    5.43503431196278   -0.74995143129254
F         6.15873454023775    3.65911494163060    0.41860224387716
C         3.94957399947161    2.32780633293464   -0.85289219129273
O         3.10458074273074   -0.80080981342923   -1.64826710525169
C         0.77034009980921    1.55014800361220   -0.27448624928231
C         1.40057441115524    2.49754522382570    0.77257145664593
O         1.63427100421392    3.69656902653627    0.27073724598757
O         1.62593457507928    2.17307766811128    1.90584325647752
N        -0.47750742294369    1.05489945410745    0.26356519754689
C        -1.51016985304826    1.90982837703603    0.42888940166189
C        -2.72764590280456    1.31655467405166    1.07057861178634
C        -3.83626006287787    1.04118300818464    0.28399659177433
C        -4.95304424145176    0.45985939004032    0.86148756501710
C        -6.13738649239807    0.10018168626575    0.01142406183365
F        -6.65353958221989   -1.09792780575081    0.33573169408089
F        -7.14667391919867    0.98242837855650    0.12958798895495
F        -5.84411191973112    0.03934506213791   -1.29707070767369
C        -4.99604978632957    0.20552119735773    2.22638834709220
C        -3.90665503996156    0.53520592213020    3.01210806758327
C        -2.76989137777209    1.07867898729284    2.43747172596319
O        -1.45044385209476    3.06902480433966    0.07144392581427
H        -3.07394495055546    0.03820552430002   -3.13858642986241
H        -1.42088487878765    0.44884564608174   -3.65664296880072
H        -1.94871768976991   -1.25181276225994   -3.65015621533422
H        -3.64792515999144   -1.98899275631678   -2.19156904983164
H        -4.62625580555855   -3.38233231598563   -0.45052563812058
H        -3.66218309712520   -3.40586350915712    1.82414137281141
H        -1.71083132928388   -1.98594965810223    2.33239924609402
H        -0.19345638471573   -0.35586198916509    1.78106226980979
H         0.60242279374358   -1.44685315471344   -0.90504783482440
H         2.58915296971854   -0.02211967307446    1.90626869656262
H         4.04271845724446   -1.40931694309978    3.33589509235649
H         4.01207184258120   -3.86800431344033    3.08454243330660
H         2.53782191132354   -4.92764840502106    1.46133701521372
H         1.78627508235539   -5.33653205878055   -0.73683149479655
H         0.07630349408702   -5.12099968388599   -1.18799429519962
H         0.50123238508435   -5.50860577898159    0.49553495265822
H         2.45468688855318    1.44051330821900   -3.74669083301781
H         3.42447061038640    3.59926575824002   -4.45439979493951
H         4.71192077988371    4.96104830540348   -2.84670281441502
H         4.12393185665535    1.96493265138386    0.14967221980358
H         0.59233098196423    2.13170170524889   -1.19116157313722
H         1.99149720436761    4.30758184297461    0.93917895859867
H        -3.81680579337084    1.26438654405951   -0.77119901274360
H        -5.87519713273788   -0.24420637214756    2.66143706879821
H        -3.94076038420676    0.35683658397146    4.07556745132712
H        -1.91448527410287    1.32277229512271    3.04957312698990

          :  Hamiltonian                  GFN2-xTB          :
         :: total energy            -144.790780100912 Eh    ::
         :: gradient norm              0.000947940151 Eh/a0 ::
         :: HOMO-LUMO gap              2.953174702982 eV    ::
         :: SCC energy              -146.507252439044 Eh    ::
         :: -> dispersion             -0.109302389687 Eh    ::
         :: repulsion energy           1.712379910790 Eh    ::

    * Orbital Energies and Occupations

         #    Occupation            Energy/Eh            Energy/eV
      -------------------------------------------------------------
         1        2.0000           -0.8841699             -24.0595
       ...           ...                  ...                  ...
       113        2.0000           -0.4449572             -12.1079
       114        2.0000           -0.4441394             -12.0856
       115        2.0000           -0.4432670             -12.0619
       116        2.0000           -0.4417963             -12.0219
       117        2.0000           -0.4295701             -11.6892
       118        2.0000           -0.4217347             -11.4760
       119        2.0000           -0.4155518             -11.3077
       120        2.0000           -0.4138434             -11.2613
       121        2.0000           -0.4088012             -11.1240
       122        2.0000           -0.4072285             -11.0813
       123        2.0000           -0.4007394             -10.9047
       124        2.0000           -0.3964827             -10.7888
       125        2.0000           -0.3842982             -10.4573 (HOMO)
       126                         -0.2757710              -7.5041 (LUMO)
       127                         -0.2735178              -7.4428
       128                         -0.2682718              -7.3000
       129                         -0.2668016              -7.2600
       130                         -0.2628372              -7.1522
       131                         -0.2443749              -6.6498
       132                         -0.2328218              -6.3354
       133                         -0.2305472              -6.2735
       134                         -0.2283512              -6.2138
       135                         -0.2246871              -6.1140
       136                         -0.2192109              -5.9650
       ...                                ...                  ...
       218                          0.6620819              18.0162
      -------------------------------------------------------------
                  HL-Gap            0.1085272 Eh            2.9532 eV

     #   Z          covCN         q      C6AA      Î±(0)
     1   6 C        2.867     0.140    24.943     8.187
     2   8 O        1.705    -0.272    18.518     5.810
     3   6 C        3.643     0.036    20.300     6.477
     4   6 C        2.917    -0.066    29.654     8.930
     5   6 C        2.921    -0.031    28.772     8.796
     6   6 C        2.917    -0.042    29.032     8.836
     7   6 C        2.925    -0.037    28.911     8.818
     8   6 C        2.972    -0.023    28.586     8.770
     9   6 C        3.817     0.042    19.863     6.343
    10   6 C        3.828     0.047    19.772     6.327
    11   6 C        2.974    -0.015    28.381     8.739
    12   6 C        2.923    -0.035    28.878     8.813
    13   6 C        2.918    -0.039    28.974     8.827
    14   6 C        2.921    -0.030    28.761     8.795
    15   6 C        2.918    -0.065    29.607     8.923
    16   6 C        2.868     0.142    24.896     8.179
    17   8 O        1.705    -0.274    18.541     5.814
    18   6 C        3.644     0.037    20.288     6.475
    19   7 N        2.763    -0.103    23.258     7.163
    20   6 C        2.765     0.270    22.432     7.756
    21   6 C        2.977    -0.008    28.205     8.712
    22   6 C        2.922    -0.016    28.403     8.740
    23   6 C        2.921    -0.019    28.488     8.753
    24   6 C        2.919    -0.021    28.533     8.760
    25   6 C        2.977    -0.021    28.521     8.760
    26   6 C        3.337     0.486    17.268     6.579
    27   9 F        0.791    -0.220    11.444     3.996
    28   9 F        0.791    -0.200    11.238     3.960
    29   9 F        0.791    -0.202    11.255     3.963
    30   6 C        2.926    -0.021    28.522     8.758
    31   8 O        0.859    -0.406    21.793     6.259
    32   6 C        3.762     0.090    19.135     6.236
    33   6 C        2.689     0.357    20.939     7.489
    34   8 O        1.659    -0.353    19.953     6.030
    35   8 O        0.856    -0.388    21.433     6.207
    36   7 N        2.767    -0.092    23.039     7.129
    37   6 C        2.767     0.272    22.412     7.753
    38   6 C        2.978    -0.000    28.024     8.684
    39   6 C        2.925    -0.016    28.417     8.742
    40   6 C        2.977    -0.023    28.576     8.769
    41   6 C        3.336     0.486    17.284     6.583
    42   9 F        0.791    -0.207    11.309     3.972
    43   9 F        0.791    -0.205    11.287     3.969
    44   9 F        0.791    -0.208    11.316     3.974
    45   6 C        2.921    -0.022    28.545     8.761
    46   6 C        2.921    -0.021    28.519     8.757
    47   6 C        2.922    -0.020    28.508     8.756
    48   8 O        0.859    -0.426    22.206     6.318
    49   1 H        0.924     0.047     2.355     2.400
    50   1 H        0.925     0.063     2.165     2.301
    51   1 H        0.924     0.046     2.367     2.406
    52   1 H        0.926     0.050     2.315     2.379
    53   1 H        0.926     0.050     2.324     2.384
    54   1 H        0.926     0.044     2.399     2.422
    55   1 H        0.926     0.038     2.475     2.460
    56   1 H        0.923     0.058     2.227     2.334
    57   1 H        0.924     0.086     1.914     2.164
    58   1 H        0.926     0.053     2.280     2.361
    59   1 H        0.926     0.042     2.419     2.432
    60   1 H        0.926     0.040     2.444     2.445
    61   1 H        0.926     0.041     2.434     2.440
    62   1 H        0.924     0.048     2.345     2.395
    63   1 H        0.925     0.061     2.182     2.310
    64   1 H        0.924     0.041     2.436     2.441
    65   1 H        0.926     0.060     2.204     2.322
    66   1 H        0.926     0.062     2.176     2.307
    67   1 H        0.926     0.068     2.104     2.268
    68   1 H        0.926     0.057     2.233     2.337
    69   1 H        0.923     0.081     1.974     2.197
    70   1 H        0.804     0.355     0.576     1.192
    71   1 H        0.926     0.065     2.142     2.289
    72   1 H        0.926     0.064     2.152     2.294
    73   1 H        0.926     0.061     2.184     2.311
    74   1 H        0.926     0.058     2.225     2.333

Wiberg/Mayer (AO) data.
largest (>0.10) Wiberg bond orders for each atom

     #   Z sym  total        # sym  WBO       # sym  WBO       # sym  WBO
 ---------------------------------------------------------------------------
     1   6 C    3.937 --     4 C    1.382     8 C    1.318     2 O    1.065
     2   8 O    2.234 --     1 C    1.065     3 C    0.980
     3   6 C    3.941 --     2 O    0.980    50 H    0.979    51 H    0.976
                            49 H    0.976
     4   6 C    3.987 --     5 C    1.435     1 C    1.382    52 H    0.964
                             7 C    0.101
     5   6 C    3.989 --     6 C    1.443     4 C    1.435    53 H    0.970
                             8 C    0.106
     6   6 C    3.991 --     5 C    1.443     7 C    1.425    54 H    0.970
     7   6 C    3.989 --     8 C    1.436     6 C    1.425    55 H    0.967
                             4 C    0.101
     8   6 C    3.982 --     7 C    1.436     1 C    1.318     9 C    0.994
                             5 C    0.106
     9   6 C    3.964 --     8 C    0.994    36 N    0.959    56 H    0.952
                            10 C    0.952
    10   6 C    3.957 --    11 C    0.991    19 N    0.952     9 C    0.952
                            57 H    0.946
    11   6 C    3.981 --    12 C    1.438    16 C    1.325    10 C    0.991
                            14 C    0.106
    12   6 C    3.989 --    11 C    1.438    13 C    1.426    58 H    0.963
                            15 C    0.103
    13   6 C    3.991 --    14 C    1.444    12 C    1.426    59 H    0.970
    14   6 C    3.990 --    13 C    1.444    15 C    1.435    60 H    0.971
                            11 C    0.106
    15   6 C    3.987 --    14 C    1.435    16 C    1.380    61 H    0.965
                            12 C    0.103
    16   6 C    3.934 --    15 C    1.380    11 C    1.325    17 O    1.061
    17   8 O    2.232 --    16 C    1.061    18 C    0.982
    18   6 C    3.944 --    17 O    0.982    63 H    0.980    62 H    0.976
                            64 H    0.976
    19   7 N    3.477 --    20 C    1.220    32 C    0.989    10 C    0.952
                            31 O    0.198
    20   6 C    3.952 --    31 O    1.699    19 N    1.220    21 C    0.952
    21   6 C    3.987 --    30 C    1.413    22 C    1.406    20 C    0.952
                            24 C    0.108
    22   6 C    3.989 --    23 C    1.445    21 C    1.406    65 H    0.968
                            25 C    0.107
    23   6 C    3.989 --    22 C    1.445    24 C    1.437    66 H    0.968
                            30 C    0.112
    24   6 C    3.987 --    23 C    1.437    25 C    1.416    67 H    0.966
                            21 C    0.108
    25   6 C    3.974 --    24 C    1.416    30 C    1.411    26 C    0.951
                            22 C    0.107
    26   6 C    3.823 --    28 F    0.957    29 F    0.951    25 C    0.951
                            27 F    0.927
    27   9 F    1.057 --    26 C    0.927
    28   9 F    1.080 --    26 C    0.957
    29   9 F    1.078 --    26 C    0.951
    30   6 C    3.990 --    21 C    1.413    25 C    1.411    68 H    0.966
                            23 C    0.112
    31   8 O    2.034 --    20 C    1.699    19 N    0.198
    32   6 C    3.965 --    19 N    0.989    36 N    0.977    69 H    0.946
                            33 C    0.903
    33   6 C    3.920 --    35 O    1.769    34 O    1.180    32 C    0.903
    34   8 O    2.241 --    33 C    1.180    70 H    0.845    35 O    0.188
    35   8 O    2.058 --    33 C    1.769    34 O    0.188
    36   7 N    3.491 --    37 C    1.232    32 C    0.977     9 C    0.959
                            48 O    0.198
    37   6 C    3.951 --    48 O    1.679    36 N    1.232    38 C    0.954
    38   6 C    3.988 --    47 C    1.410    39 C    1.406    37 C    0.954
                            45 C    0.110
    39   6 C    3.988 --    40 C    1.421    38 C    1.406    71 H    0.965
                            46 C    0.110
    40   6 C    3.975 --    39 C    1.421    45 C    1.407    41 C    0.951
                            47 C    0.106
    41   6 C    3.825 --    40 C    0.951    44 F    0.948    42 F    0.946
                            43 F    0.944
    42   9 F    1.070 --    41 C    0.946
    43   9 F    1.073 --    41 C    0.944
    44   9 F    1.070 --    41 C    0.948
    45   6 C    3.988 --    46 C    1.444    40 C    1.407    72 H    0.967
                            38 C    0.110
    46   6 C    3.990 --    45 C    1.444    47 C    1.439    73 H    0.968
                            39 C    0.110
    47   6 C    3.990 --    46 C    1.439    38 C    1.410    74 H    0.968
                            40 C    0.106
    48   8 O    2.013 --    37 C    1.679    36 N    0.198
    49   1 H    0.998 --     3 C    0.976
    50   1 H    0.996 --     3 C    0.979
    51   1 H    0.998 --     3 C    0.976
    52   1 H    0.997 --     4 C    0.964
    53   1 H    0.997 --     5 C    0.970
    54   1 H    0.998 --     6 C    0.970
    55   1 H    0.998 --     7 C    0.967
    56   1 H    0.996 --     9 C    0.952
    57   1 H    0.992 --    10 C    0.946
    58   1 H    0.997 --    12 C    0.963
    59   1 H    0.998 --    13 C    0.970
    60   1 H    0.998 --    14 C    0.971
    61   1 H    0.998 --    15 C    0.965
    62   1 H    0.998 --    18 C    0.976
    63   1 H    0.996 --    18 C    0.980
    64   1 H    0.998 --    18 C    0.976
    65   1 H    0.996 --    22 C    0.968
    66   1 H    0.995 --    23 C    0.968
    67   1 H    0.995 --    24 C    0.966
    68   1 H    0.997 --    30 C    0.966
    69   1 H    0.993 --    32 C    0.946
    70   1 H    0.873 --    34 O    0.845
    71   1 H    0.996 --    39 C    0.965
    72   1 H    0.995 --    45 C    0.967
    73   1 H    0.995 --    46 C    0.968
    74   1 H    0.996 --    47 C    0.968
 ---------------------------------------------------------------------------

molecular dipole:
                 x           y           z       tot (Debye)
 q only:       -0.389      -1.577      -0.264
   full:       -0.466      -1.499      -0.313       4.068

           -------------------------------------------------
          | TOTAL ENERGY             -144.790780100912 Eh   |
          | GRADIENT NORM               0.000947940151 Eh/Î± |
          | HOMO-LUMO GAP               2.953174702982 eV   |
           -------------------------------------------------

 * finished run on 2022/03/16 at 23:57:38.750
