   * xtb version 6.3.3 (4ae9cef) compiled by 'conda@95abc7406d43' on 2020-10-14
          program call               : xtb acid_109.xyz --opt --chrg 0 --uhf 0 --gfn 2
          number of atoms            :                    62
          number of electrons        :                   206
          charge                     :                     0
          spin                       :                   0.0

   ID    Z sym.   atoms
    1    6 C      1, 3-16, 18, 20-22, 25, 26, 28, 29, 33-35, 38, 39
    2    8 O      2, 17, 27, 30, 31, 40
    3    7 N      19, 32
    4   35 Br     23, 36
    5   16 S      24, 37
    6    1 H      41-62

          :  Hamiltonian                  GFN2-xTB          :
 * total energy  :  -116.0708609 Eh     change       -0.3306411E-08 Eh
 * total energy  :  -116.0870484 Eh     change       -0.1618752E-01 Eh
 * total energy  :  -116.0924208 Eh     change       -0.5372385E-02 Eh
 * total energy  :  -116.0942701 Eh     change       -0.1849322E-02 Eh
 * total energy  :  -116.0954475 Eh     change       -0.1177383E-02 Eh
 * total energy  :  -116.0962828 Eh     change       -0.8352505E-03 Eh
 * total energy  :  -116.0971304 Eh     change       -0.8476165E-03 Eh
 * total energy  :  -116.0979381 Eh     change       -0.8077468E-03 Eh
 * total energy  :  -116.0986388 Eh     change       -0.7006470E-03 Eh
 * total energy  :  -116.0992247 Eh     change       -0.5859830E-03 Eh
 * total energy  :  -116.1104219 Eh     change       -0.2366933E-04 Eh
 * total energy  :  -116.1104410 Eh     change       -0.1914110E-04 Eh
 * total energy  :  -116.1104539 Eh     change       -0.1289210E-04 Eh
 * total energy  :  -116.1104648 Eh     change       -0.1087086E-04 Eh
 * total energy  :  -116.1104752 Eh     change       -0.1037618E-04 Eh
 * total energy  :  -116.1104840 Eh     change       -0.8849162E-05 Eh
 * total energy  :  -116.1104896 Eh     change       -0.5580810E-05 Eh
 * total energy  :  -116.1104906 Eh     change       -0.1004166E-05 Eh
 * total energy  :  -116.1104938 Eh     change       -0.3206953E-05 Eh
   *** GEOMETRY OPTIMIZATION CONVERGED AFTER 66 ITERATIONS ***

 final structure:
================
62
 xtb: 6.3.3 (4ae9cef)
C         2.25498034110506    1.19152551760616   -1.49950876202218
O         1.54242121970001    0.18243915794004   -2.07542323596000
C         1.80095215273391   -0.13294292968407   -3.42446565382319
C         3.28516917266620    1.87844654363715   -2.13125079161978
C         3.95341301658333    2.89696713457701   -1.47401793379850
C         3.60561418001960    3.24551749426428   -0.18329270052434
C         2.58420364803238    2.56153894917374    0.45231583972479
C         1.90214055364608    1.54133923567347   -0.18699332373723
C         0.79956445924620    0.81066422127444    0.53329940938646
C        -0.56487492010147    0.88996662163688   -0.16955730446960
C        -1.57353038849143    1.64502358912794    0.65689000468065
C        -2.14301546271615    1.07238831997750    1.78122088828409
C        -3.06563882292186    1.77115606024333    2.54063736091706
C        -3.41658200519855    3.05522973642929    2.17077682685516
C        -2.84730974819602    3.64804364809627    1.05651789097632
C        -1.91727797782042    2.95379456810971    0.29164234091875
O        -1.28562425248544    3.46027314164598   -0.80393181482864
C        -1.65329807703813    4.73823242625565   -1.26306585106682
N        -0.95736566235104   -0.50095788064474   -0.35970962982839
C        -2.17689584987845   -0.79739878107299   -0.86065778948913
C        -2.53140000914756   -2.25353424758927   -0.85964671619854
C        -2.15054929885791   -3.18784773517759   -1.77513211062410
Br       -0.98996191885632   -2.94609893104507   -3.22354543344893
S        -2.85141354476444   -4.74498110888679   -1.47929123673788
C        -3.68293989608035   -4.11875839132899   -0.11020097696055
C        -3.43327956300940   -2.80129428037913    0.09133146086951
O        -2.96248982303279    0.04361702856995   -1.23625162524546
C         0.07435344443870   -1.44030377438658    0.00572081913402
C        -0.46035092716992   -2.48180878705368    1.00774948685848
O        -0.31053532152768   -3.73034633130972    0.56199595518267
O        -0.95107520333003   -2.21057120212402    2.06694007685903
N         1.07930221435024   -0.61818327459527    0.63033995213098
C         2.06985064694118   -1.03996573048859    1.45069002539194
C         2.27969687274362   -2.51908052320408    1.48986451436491
C         2.76666672259821   -3.26787990188433    0.45823139174981
Br        3.22158327574962   -2.66337656662461   -1.25338796068727
S         2.97718514413345   -4.93376120900497    0.88012803080252
C         2.41230298785322   -4.61088973376762    2.47211499342036
C         2.09617290198106   -3.30511521882818    2.65740390859938
O         2.75146418756321   -0.27997247830112    2.10237424366036
H         1.08985082392812   -0.91285789258227   -3.68911796600436
H         1.64398261267118    0.73450245357992   -4.07223525742507
H         2.81612390791524   -0.51776156020303   -3.55799690536625
H         3.57900171876058    1.62101578927793   -3.13596001223386
H         4.75306592570221    3.41582263847168   -1.98145575208093
H         4.12858359409391    4.03777510192698    0.32921374719691
H         2.31334046811604    2.81521570702795    1.46573140733453
H         0.73054787642235    1.21076759517258    1.55297506595533
H        -0.47762154008917    1.37464674616773   -1.14663838135136
H        -1.86517515685937    0.06674660694978    2.06287776305168
H        -3.50666749121295    1.31335077271459    3.41268623507577
H        -4.13930379505776    3.60902897344160    2.75150260801703
H        -3.13777687167906    4.65217557959799    0.79147128549363
H        -1.42945400727485    5.51208152794265   -0.52167989510355
H        -2.71424498663072    4.77982322655487   -1.52818992921882
H        -1.05183676939079    4.91245316988261   -2.15389604819422
H        -4.31856823241534   -4.76643509796883    0.45988971277000
H        -3.85853804988098   -2.21727555135053    0.88696596025652
H         0.47027278020094   -1.96138058134522   -0.88225170250477
H        -0.64730853982403   -4.37665421155677    1.20457556173153
H         2.35892506532287   -5.41156889610724    3.18250459959545
H         1.73117419807422   -2.89256447446326    3.58017333329932

          :  Hamiltonian                  GFN2-xTB          :
         :: total energy            -116.110493827879 Eh    ::
         :: gradient norm              0.000433999717 Eh/a0 ::
         :: HOMO-LUMO gap              2.387498068471 eV    ::
         :: SCC energy              -117.542794331362 Eh    ::
         :: -> dispersion             -0.103522425328 Eh    ::
         :: repulsion energy           1.428121927374 Eh    ::

    * Orbital Energies and Occupations

         #    Occupation            Energy/Eh            Energy/eV
      -------------------------------------------------------------
         1        2.0000           -0.8557433             -23.2860
       ...           ...                  ...                  ...
        91        2.0000           -0.4278675             -11.6429
        92        2.0000           -0.4268267             -11.6145
        93        2.0000           -0.4246878             -11.5563
        94        2.0000           -0.4165124             -11.3339
        95        2.0000           -0.4129027             -11.2357
        96        2.0000           -0.4095284             -11.1438
        97        2.0000           -0.4075401             -11.0897
        98        2.0000           -0.4054682             -11.0334
        99        2.0000           -0.4053825             -11.0310
       100        2.0000           -0.4001516             -10.8887
       101        2.0000           -0.3983912             -10.8408
       102        2.0000           -0.3816500             -10.3852
       103        2.0000           -0.3776323             -10.2759 (HOMO)
       104                         -0.2898934              -7.8884 (LUMO)
       105                         -0.2791104              -7.5950
       106                         -0.2703035              -7.3553
       107                         -0.2500031              -6.8029
       108                         -0.2477729              -6.7422
       109                         -0.2309085              -6.2833
       110                         -0.2273720              -6.1871
       111                         -0.2261956              -6.1551
       112                         -0.2218102              -6.0358
       113                         -0.2156617              -5.8685
       114                         -0.2154834              -5.8636
       ...                                ...                  ...
       202                          0.6664501              18.1350
      -------------------------------------------------------------
                  HL-Gap            0.0877389 Eh            2.3875 eV

     #   Z          covCN         q      C6AA      Î±(0)
     1   6 C        2.868     0.141    24.916     8.182
     2   8 O        1.705    -0.270    18.480     5.804
     3   6 C        3.644     0.028    20.434     6.497
     4   6 C        2.918    -0.065    29.630     8.926
     5   6 C        2.921    -0.030    28.746     8.792
     6   6 C        2.917    -0.039    28.962     8.825
     7   6 C        2.925    -0.027    28.677     8.782
     8   6 C        2.972    -0.016    28.405     8.742
     9   6 C        3.824     0.049    19.734     6.321
    10   6 C        3.822     0.045    19.808     6.334
    11   6 C        2.974    -0.013    28.337     8.732
    12   6 C        2.923    -0.035    28.870     8.811
    13   6 C        2.918    -0.040    28.984     8.828
    14   6 C        2.921    -0.031    28.768     8.796
    15   6 C        2.918    -0.064    29.594     8.921
    16   6 C        2.868     0.144    24.868     8.174
    17   8 O        1.705    -0.271    18.494     5.806
    18   6 C        3.644     0.037    20.287     6.474
    19   7 N        2.765    -0.097    23.130     7.143
    20   6 C        2.760     0.278    22.294     7.732
    21   6 C        3.188    -0.041    28.527     8.714
    22   6 C        2.940     0.073    26.374     8.423
    23  35 Br       1.140    -0.120   188.349    22.128
    24  16 S        2.445     0.027   139.942    19.910
    25   6 C        2.936    -0.031    28.775     8.798
    26   6 C        3.118    -0.040    28.820     8.793
    27   8 O        0.859    -0.405    21.785     6.258
    28   6 C        3.746     0.091    19.139     6.240
    29   6 C        2.689     0.351    21.042     7.507
    30   8 O        1.659    -0.373    20.335     6.088
    31   8 O        0.856    -0.383    21.341     6.194
    32   7 N        2.766    -0.098    23.156     7.147
    33   6 C        2.762     0.277    22.321     7.737
    34   6 C        3.191    -0.041    28.513     8.710
    35   6 C        2.940     0.071    26.418     8.430
    36  35 Br       1.138    -0.117   188.263    22.123
    37  16 S        2.442     0.033   139.694    19.893
    38   6 C        2.937    -0.032    28.794     8.800
    39   6 C        3.115    -0.041    28.840     8.797
    40   8 O        0.859    -0.408    21.836     6.265
    41   1 H        0.925     0.071     2.075     2.253
    42   1 H        0.924     0.045     2.388     2.417
    43   1 H        0.924     0.049     2.328     2.386
    44   1 H        0.926     0.043     2.408     2.427
    45   1 H        0.926     0.039     2.457     2.451
    46   1 H        0.926     0.041     2.437     2.441
    47   1 H        0.926     0.048     2.350     2.397
    48   1 H        0.924     0.069     2.100     2.266
    49   1 H        0.924     0.089     1.888     2.149
    50   1 H        0.926     0.048     2.345     2.395
    51   1 H        0.926     0.038     2.480     2.463
    52   1 H        0.926     0.038     2.475     2.460
    53   1 H        0.926     0.040     2.446     2.446
    54   1 H        0.924     0.041     2.434     2.440
    55   1 H        0.924     0.047     2.364     2.404
    56   1 H        0.925     0.062     2.170     2.304
    57   1 H        0.926     0.061     2.184     2.311
    58   1 H        0.926     0.063     2.163     2.300
    59   1 H        0.923     0.082     1.957     2.188
    60   1 H        0.804     0.343     0.606     1.223
    61   1 H        0.926     0.061     2.188     2.313
    62   1 H        0.926     0.064     2.154     2.295

Wiberg/Mayer (AO) data.
largest (>0.10) Wiberg bond orders for each atom

     #   Z sym  total        # sym  WBO       # sym  WBO       # sym  WBO
 ---------------------------------------------------------------------------
     1   6 C    3.936 --     4 C    1.379     8 C    1.325     2 O    1.064
     2   8 O    2.236 --     1 C    1.064     3 C    0.980
     3   6 C    3.941 --     2 O    0.980    42 H    0.976    43 H    0.974
                            41 H    0.974
     4   6 C    3.987 --     5 C    1.437     1 C    1.379    44 H    0.965
                             7 C    0.103
     5   6 C    3.990 --     6 C    1.443     4 C    1.437    45 H    0.971
                             8 C    0.106
     6   6 C    3.991 --     5 C    1.443     7 C    1.426    46 H    0.970
     7   6 C    3.988 --     8 C    1.436     6 C    1.426    47 H    0.966
                             4 C    0.103
     8   6 C    3.981 --     7 C    1.436     1 C    1.325     9 C    0.989
                             5 C    0.106
     9   6 C    3.957 --     8 C    0.989    10 C    0.959    48 H    0.953
                            32 N    0.946
    10   6 C    3.954 --    11 C    0.990     9 C    0.959    19 N    0.949
                            49 H    0.946
    11   6 C    3.982 --    12 C    1.438    16 C    1.325    10 C    0.990
                            14 C    0.106
    12   6 C    3.989 --    11 C    1.438    13 C    1.426    50 H    0.964
                            15 C    0.103
    13   6 C    3.991 --    14 C    1.443    12 C    1.426    51 H    0.971
    14   6 C    3.990 --    13 C    1.443    15 C    1.436    52 H    0.971
                            11 C    0.106
    15   6 C    3.987 --    14 C    1.436    16 C    1.379    53 H    0.965
                            12 C    0.103
    16   6 C    3.935 --    15 C    1.379    11 C    1.325    17 O    1.063
    17   8 O    2.234 --    16 C    1.063    18 C    0.982
    18   6 C    3.944 --    17 O    0.982    56 H    0.979    55 H    0.977
                            54 H    0.976
    19   7 N    3.487 --    20 C    1.229    28 C    0.984    10 C    0.949
                            27 O    0.201
    20   6 C    3.954 --    27 O    1.693    19 N    1.229    21 C    0.944
    21   6 C    3.980 --    22 C    1.548    26 C    1.231    20 C    0.944
    22   6 C    3.907 --    21 C    1.548    24 S    1.164    23 Br   1.019
                            25 C    0.104
    23  35 Br   1.186 --    22 C    1.019
    24  16 S    2.643 --    25 C    1.189    22 C    1.164
    25   6 C    3.948 --    26 C    1.635    24 S    1.189    57 H    0.968
                            22 C    0.104
    26   6 C    3.986 --    25 C    1.635    21 C    1.231    58 H    0.960
    27   8 O    2.042 --    20 C    1.693    19 N    0.201
    28   6 C    3.968 --    32 N    0.986    19 N    0.984    59 H    0.935
                            29 C    0.913
    29   6 C    3.918 --    31 O    1.779    30 O    1.141    28 C    0.913
    30   8 O    2.206 --    29 C    1.141    60 H    0.856    31 O    0.178
    31   8 O    2.066 --    29 C    1.779    30 O    0.178
    32   7 N    3.483 --    33 C    1.223    28 C    0.986     9 C    0.946
                            40 O    0.198
    33   6 C    3.954 --    40 O    1.691    32 N    1.223    34 C    0.953
    34   6 C    3.980 --    35 C    1.537    39 C    1.235    33 C    0.953
    35   6 C    3.908 --    34 C    1.537    37 S    1.170    36 Br   1.023
                            38 C    0.104
    36  35 Br   1.195 --    35 C    1.023
    37  16 S    2.649 --    38 C    1.189    35 C    1.170
    38   6 C    3.947 --    39 C    1.634    37 S    1.189    61 H    0.968
                            35 C    0.104
    39   6 C    3.986 --    38 C    1.634    34 C    1.235    62 H    0.960
    40   8 O    2.037 --    33 C    1.691    32 N    0.198
    41   1 H    0.994 --     3 C    0.974
    42   1 H    0.998 --     3 C    0.976
    43   1 H    0.998 --     3 C    0.974
    44   1 H    0.998 --     4 C    0.965
    45   1 H    0.998 --     5 C    0.971
    46   1 H    0.998 --     6 C    0.970
    47   1 H    0.997 --     7 C    0.966
    48   1 H    0.995 --     9 C    0.953
    49   1 H    0.991 --    10 C    0.946
    50   1 H    0.997 --    12 C    0.964
    51   1 H    0.998 --    13 C    0.971
    52   1 H    0.998 --    14 C    0.971
    53   1 H    0.998 --    15 C    0.965
    54   1 H    0.998 --    18 C    0.976
    55   1 H    0.998 --    18 C    0.977
    56   1 H    0.996 --    18 C    0.979
    57   1 H    0.996 --    25 C    0.968
    58   1 H    0.996 --    26 C    0.960
    59   1 H    0.993 --    28 C    0.935
    60   1 H    0.882 --    30 O    0.856
    61   1 H    0.996 --    38 C    0.968
    62   1 H    0.996 --    39 C    0.960
 ---------------------------------------------------------------------------

molecular dipole:
                 x           y           z       tot (Debye)
 q only:       -0.196      -0.556      -0.112
   full:       -0.753      -0.696       0.773       3.263

           -------------------------------------------------
          | TOTAL ENERGY             -116.110493827879 Eh   |
          | GRADIENT NORM               0.000433999717 Eh/Î± |
          | HOMO-LUMO GAP               2.387498068471 eV   |
           -------------------------------------------------

 * finished run on 2022/03/16 at 21:24:25.338
