   * xtb version 6.3.3 (4ae9cef) compiled by 'conda@95abc7406d43' on 2020-10-14
          program call               : xtb acid_465.xyz --opt --chrg 0 --uhf 0 --gfn 2
          number of atoms            :                    82
          number of electrons        :                   218
          charge                     :                     0
          spin                       :                   0.0

   ID    Z sym.   atoms
    1    6 C      1-22, 24-29, 31, 32, 36-41
    2    7 N      23, 35
    3    8 O      30, 33, 34, 42
    4    1 H      43-82

          :  Hamiltonian                  GFN2-xTB          :
 * total energy  :  -119.6575092 Eh     change       -0.8089870E-08 Eh
 * total energy  :  -119.6698891 Eh     change       -0.1237996E-01 Eh
 * total energy  :  -119.6728298 Eh     change       -0.2940695E-02 Eh
 * total energy  :  -119.6738585 Eh     change       -0.1028739E-02 Eh
 * total energy  :  -119.6744582 Eh     change       -0.5996871E-03 Eh
 * total energy  :  -119.6746588 Eh     change       -0.2005747E-03 Eh
 * total energy  :  -119.6747916 Eh     change       -0.1327548E-03 Eh
 * total energy  :  -119.6748911 Eh     change       -0.9957544E-04 Eh
 * total energy  :  -119.6749677 Eh     change       -0.7654005E-04 Eh
 * total energy  :  -119.6750344 Eh     change       -0.6675895E-04 Eh
 * total energy  :  -119.6760162 Eh     change       -0.2844474E-04 Eh
 * total energy  :  -119.6760411 Eh     change       -0.2489891E-04 Eh
 * total energy  :  -119.6760604 Eh     change       -0.1926436E-04 Eh
 * total energy  :  -119.6760724 Eh     change       -0.1203625E-04 Eh
 * total energy  :  -119.6760832 Eh     change       -0.1077985E-04 Eh
 * total energy  :  -119.6760939 Eh     change       -0.1070528E-04 Eh
 * total energy  :  -119.6761033 Eh     change       -0.9350448E-05 Eh
 * total energy  :  -119.6761153 Eh     change       -0.1199857E-04 Eh
 * total energy  :  -119.6761196 Eh     change       -0.4322034E-05 Eh
   *** GEOMETRY OPTIMIZATION CONVERGED AFTER 44 ITERATIONS ***

 final structure:
================
82
 xtb: 6.3.3 (4ae9cef)
C        -1.04423293381910   -2.67024134194742   -1.66878997260973
C        -1.41571258858163   -3.92834942452083   -2.04430217109543
C        -2.18084644044528   -4.74339232069021   -1.18415168980953
C        -2.57223269283790   -6.05131738960956   -1.53651757808085
C        -3.30656283584891   -6.81601235401600   -0.67380042435949
C        -3.68281161620030   -6.30765455832219    0.57951848830074
C        -3.32049748668578   -5.04280985238739    0.94909616071518
C        -2.56378158620623   -4.22792664246317    0.08138692723059
C        -2.17587866325166   -2.91991091031518    0.43379101302735
C        -1.43464671073070   -2.14902706112353   -0.42029208256297
C        -0.96346788709855   -0.78525853448017    0.00533660216387
C         0.51089154785256   -0.83269421855230    0.44264634131411
C         0.64610781000046   -0.84058567018105    1.94127342401360
C         0.96306843185619   -2.00096025055786    2.59530640140777
C         1.03970072481235   -2.04485794346918    4.00157024294131
C         1.35531641917887   -3.23047326553722    4.69763662957681
C         1.42242959639635   -3.24138737246632    6.06253173484311
C         1.17803519782547   -2.06862427115482    6.79464077362189
C         0.86962197898576   -0.90407775008120    6.14922502086266
C         0.79051422029486   -0.86002027812696    4.74196216230975
C         0.46425014283398    0.32025027861600    4.04222655023573
C         0.38588838759332    0.33011908597517    2.67936718095986
N         1.11273285466798    0.33877721208683   -0.19002425223780
C         2.45917810741321    0.52757303953495   -0.06931720535913
C         3.02995262099529    1.73689712731816   -0.78849139719986
C         4.55049780380409    1.78414887679245   -0.65537724561933
C         5.14646842053036    2.99100992695972   -1.37344808195515
C         6.66647524160890    3.03742602024292   -1.23880854433085
C         7.26418315815765    4.23552248147776   -1.96613700187730
O         3.13070706757400   -0.23495598081894    0.58653562624446
C         0.19401514618316    1.02369159598539   -1.06683008081913
C        -0.15127129350661    2.42640962386572   -0.48942782551777
O         0.33202877690712    3.48036985518814   -1.16314770787671
O        -0.80238849947955    2.56489529314626    0.50021672580194
N        -0.97692436678577    0.18593840112620   -1.08265708431741
C        -2.13423355845219    0.41452542947793   -1.77362846041675
C        -2.05502458671775    1.51441856923588   -2.81919069179346
C        -3.41552111979379    1.78036937752575   -3.46333274983024
C        -4.41933157405069    2.42523081084990   -2.50731986850432
C        -4.03080946346951    3.83259246297601   -2.05620297732212
C        -5.16528152038315    4.49702887445485   -1.28545902089721
O        -3.11524578235650   -0.26408828300635   -1.58139235248513
H        -0.45304890467162   -2.05613668558777   -2.33363282757319
H        -1.12353023207158   -4.32087616288817   -3.00808200317379
H        -2.28009101255107   -6.43868198912029   -2.50243861370964
H        -3.60313377833199   -7.81755445944326   -0.94943855001768
H        -4.26235132137706   -6.92666860838890    1.24877735185307
H        -3.60806281288070   -4.64590822112044    1.91206722159689
H        -2.47348338239061   -2.52984256250990    1.39661779797261
H        -1.59351373872404   -0.41678702648205    0.82535759336745
H         1.00219620640572   -1.72832676337486    0.03802705852481
H         1.15899737949250   -2.90461520623769    2.03568668800638
H         1.54311354205587   -4.13026258470570    4.12940810508368
H         1.66382627037139   -4.15292866439591    6.58962073031617
H         1.23574624348548   -2.09626211180169    7.87307221118707
H         0.67970069428576    0.00141775457712    6.70804731713902
H         0.26992406440319    1.22192518462803    4.60499436149934
H         0.11737884031057    1.23706542930681    2.15911697997416
H         2.75827620634227    1.69233551747707   -1.84832561893905
H         2.59799339265974    2.64035125263836   -0.35106193218858
H         4.80895568844621    1.81452040549052    0.40360068987989
H         4.97093767479385    0.86370386525385   -1.06380188959706
H         4.72095059881727    3.90878994308040   -0.95939742669927
H         4.88328226405518    2.95272733068436   -2.43445989079026
H         7.09111101699979    2.11669036729183   -1.64445801359023
H         6.93112876315714    3.08452987871025   -0.18070454957439
H         8.34576854194843    4.24809203554736   -1.85680319941844
H         6.86803738810222    5.16468023093266   -1.56205465429098
H         7.02788939500128    4.19603931476251   -3.02757354834949
H         0.61411939300902    1.12448040226247   -2.08641919919217
H         0.85268987142402    3.24858358569899   -1.94470462656248
H        -1.33900072368738    1.19977980414239   -3.58538605255391
H        -1.68645090130813    2.43206240042364   -2.36108270156634
H        -3.82403241464211    0.82856421164906   -3.80641584592481
H        -3.27317168914271    2.42740874670910   -4.33255794859330
H        -4.54252932771402    1.78123106489585   -1.63629445553213
H        -5.38391959670236    2.47769491629486   -3.01755043296555
H        -3.15022335279990    3.79455672704705   -1.41168628557750
H        -3.78265965108874    4.44038468573182   -2.93088621544274
H        -6.05097457669174    4.58865656058444   -1.91076471034202
H        -4.87359343816076    5.49096517828776   -0.95400756596443
H        -5.42361202939700    3.90504858293241   -0.41062688696810

          :  Hamiltonian                  GFN2-xTB          :
         :: total energy            -119.676119595460 Eh    ::
         :: gradient norm              0.000398606354 Eh/a0 ::
         :: HOMO-LUMO gap              2.679752665226 eV    ::
         :: SCC energy              -121.494794626244 Eh    ::
         :: -> dispersion             -0.097196454008 Eh    ::
         :: repulsion energy           1.817316017134 Eh    ::

    * Orbital Energies and Occupations

         #    Occupation            Energy/Eh            Energy/eV
      -------------------------------------------------------------
         1        2.0000           -0.7836662             -21.3246
       ...           ...                  ...                  ...
        97        2.0000           -0.4213467             -11.4654
        98        2.0000           -0.4196904             -11.4204
        99        2.0000           -0.4190533             -11.4030
       100        2.0000           -0.4158726             -11.3165
       101        2.0000           -0.4128992             -11.2356
       102        2.0000           -0.4112889             -11.1917
       103        2.0000           -0.4090125             -11.1298
       104        2.0000           -0.4049339             -11.0188
       105        2.0000           -0.4030457             -10.9674
       106        2.0000           -0.3954567             -10.7609
       107        2.0000           -0.3939794             -10.7207
       108        2.0000           -0.3787394             -10.3060
       109        2.0000           -0.3755801             -10.2201 (HOMO)
       110                         -0.2771010              -7.5403 (LUMO)
       111                         -0.2603108              -7.0834
       112                         -0.2571476              -6.9973
       113                         -0.2311679              -6.2904
       114                         -0.2264955              -6.1633
       115                         -0.2241861              -6.1004
       116                         -0.2196840              -5.9779
       117                         -0.1890444              -5.1442
       118                         -0.1862306              -5.0676
       119                         -0.1500073              -4.0819
       120                         -0.1447252              -3.9382
       ...                                ...                  ...
       208                          0.6999047              19.0454
      -------------------------------------------------------------
                  HL-Gap            0.0984791 Eh            2.6798 eV

     #   Z          covCN         q      C6AA      Î±(0)
     1   6 C        2.919    -0.030    28.745     8.792
     2   6 C        2.917    -0.033    28.829     8.805
     3   6 C        2.988     0.014    27.688     8.632
     4   6 C        2.918    -0.034    28.844     8.807
     5   6 C        2.916    -0.029    28.734     8.790
     6   6 C        2.916    -0.029    28.718     8.788
     7   6 C        2.918    -0.033    28.824     8.804
     8   6 C        2.987     0.018    27.606     8.619
     9   6 C        2.923    -0.036    28.901     8.816
    10   6 C        2.971     0.013    27.726     8.637
    11   6 C        3.826     0.047    19.763     6.326
    12   6 C        3.827     0.047    19.760     6.325
    13   6 C        2.970     0.008    27.829     8.653
    14   6 C        2.923    -0.036    28.893     8.815
    15   6 C        2.987     0.017    27.633     8.623
    16   6 C        2.918    -0.033    28.834     8.805
    17   6 C        2.916    -0.029    28.734     8.790
    18   6 C        2.916    -0.030    28.742     8.791
    19   6 C        2.918    -0.034    28.847     8.807
    20   6 C        2.987     0.014    27.695     8.633
    21   6 C        2.918    -0.033    28.822     8.804
    22   6 C        2.918    -0.036    28.890     8.814
    23   7 N        2.760    -0.124    23.694     7.229
    24   6 C        2.758     0.268    22.477     7.764
    25   6 C        3.804    -0.083    22.087     6.691
    26   6 C        3.805    -0.056    21.574     6.612
    27   6 C        3.803    -0.060    21.649     6.624
    28   6 C        3.801    -0.055    21.555     6.610
    29   6 C        3.752    -0.103    22.534     6.769
    30   8 O        0.859    -0.410    21.890     6.273
    31   6 C        3.747     0.084    19.243     6.257
    32   6 C        2.686     0.344    21.151     7.526
    33   8 O        1.659    -0.361    20.116     6.055
    34   8 O        0.856    -0.333    20.386     6.053
    35   7 N        2.762    -0.124    23.686     7.228
    36   6 C        2.756     0.273    22.387     7.748
    37   6 C        3.804    -0.083    22.077     6.689
    38   6 C        3.802    -0.052    21.513     6.603
    39   6 C        3.803    -0.063    21.715     6.634
    40   6 C        3.800    -0.052    21.503     6.602
    41   6 C        3.753    -0.103    22.521     6.767
    42   8 O        0.859    -0.405    21.774     6.256
    43   1 H        0.926     0.024     2.669     2.555
    44   1 H        0.926     0.036     2.509     2.477
    45   1 H        0.926     0.033     2.551     2.498
    46   1 H        0.926     0.032     2.561     2.502
    47   1 H        0.926     0.033     2.551     2.497
    48   1 H        0.926     0.035     2.516     2.480
    49   1 H        0.926     0.037     2.487     2.466
    50   1 H        0.924     0.061     2.185     2.312
    51   1 H        0.923     0.057     2.234     2.337
    52   1 H        0.926     0.035     2.518     2.482
    53   1 H        0.926     0.033     2.539     2.492
    54   1 H        0.926     0.031     2.568     2.506
    55   1 H        0.926     0.031     2.570     2.507
    56   1 H        0.926     0.033     2.542     2.493
    57   1 H        0.926     0.039     2.465     2.455
    58   1 H        0.926     0.047     2.356     2.400
    59   1 H        0.924     0.029     2.596     2.519
    60   1 H        0.924     0.049     2.328     2.386
    61   1 H        0.924     0.054     2.276     2.359
    62   1 H        0.924     0.048     2.344     2.394
    63   1 H        0.924     0.032     2.563     2.504
    64   1 H        0.924     0.026     2.638     2.540
    65   1 H        0.924     0.033     2.547     2.496
    66   1 H        0.924     0.034     2.525     2.485
    67   1 H        0.925     0.036     2.497     2.471
    68   1 H        0.925     0.035     2.520     2.482
    69   1 H        0.925     0.033     2.543     2.494
    70   1 H        0.922     0.031     2.574     2.509
    71   1 H        0.805     0.327     0.644     1.261
    72   1 H        0.924     0.039     2.461     2.453
    73   1 H        0.925     0.042     2.427     2.436
    74   1 H        0.924     0.053     2.284     2.363
    75   1 H        0.924     0.032     2.561     2.503
    76   1 H        0.924     0.051     2.302     2.373
    77   1 H        0.924     0.036     2.499     2.472
    78   1 H        0.924     0.027     2.623     2.532
    79   1 H        0.924     0.025     2.654     2.548
    80   1 H        0.925     0.033     2.550     2.497
    81   1 H        0.925     0.034     2.532     2.488
    82   1 H        0.925     0.038     2.481     2.463

Wiberg/Mayer (AO) data.
largest (>0.10) Wiberg bond orders for each atom

     #   Z sym  total        # sym  WBO       # sym  WBO       # sym  WBO
 ---------------------------------------------------------------------------
     1   6 C    3.992 --     2 C    1.566    10 C    1.293    43 H    0.969
     2   6 C    3.992 --     1 C    1.566     3 C    1.275    44 H    0.968
                             9 C    0.114
     3   6 C    3.990 --     4 C    1.282     2 C    1.275     8 C    1.251
     4   6 C    3.992 --     5 C    1.556     3 C    1.282    45 H    0.968
                             7 C    0.118
     5   6 C    3.990 --     4 C    1.556     6 C    1.321    46 H    0.971
     6   6 C    3.992 --     7 C    1.558     5 C    1.321    47 H    0.971
     7   6 C    3.989 --     6 C    1.558     8 C    1.279    48 H    0.968
                             4 C    0.118
     8   6 C    3.990 --     9 C    1.282     7 C    1.279     3 C    1.251
     9   6 C    3.989 --    10 C    1.526     8 C    1.282    49 H    0.966
                             2 C    0.114
    10   6 C    3.985 --     9 C    1.526     1 C    1.293    11 C    0.990
    11   6 C    3.958 --    10 C    0.990    12 C    0.954    35 N    0.954
                            50 H    0.953
    12   6 C    3.956 --    13 C    0.989    11 C    0.954    51 H    0.953
                            23 N    0.950
    13   6 C    3.984 --    14 C    1.526    22 C    1.295    12 C    0.989
    14   6 C    3.989 --    13 C    1.526    15 C    1.282    52 H    0.965
                            21 C    0.115
    15   6 C    3.990 --    14 C    1.282    16 C    1.278    20 C    1.251
    16   6 C    3.990 --    17 C    1.558    15 C    1.278    53 H    0.968
                            19 C    0.118
    17   6 C    3.992 --    16 C    1.558    18 C    1.321    54 H    0.971
    18   6 C    3.990 --    19 C    1.556    17 C    1.321    55 H    0.971
    19   6 C    3.992 --    18 C    1.556    20 C    1.281    56 H    0.968
                            16 C    0.118
    20   6 C    3.990 --    19 C    1.281    21 C    1.277    15 C    1.251
    21   6 C    3.991 --    22 C    1.563    20 C    1.277    57 H    0.968
                            14 C    0.115
    22   6 C    3.990 --    21 C    1.563    13 C    1.295    58 H    0.963
    23   7 N    3.448 --    24 C    1.194    31 C    0.988    12 C    0.950
                            30 O    0.186
    24   6 C    3.946 --    30 O    1.713    23 N    1.194    25 C    0.967
    25   6 C    3.996 --    26 C    1.005    24 C    0.967    59 H    0.958
                            60 H    0.957
    26   6 C    3.991 --    27 C    1.008    25 C    1.005    62 H    0.976
                            61 H    0.975
    27   6 C    3.997 --    26 C    1.008    28 C    1.007    64 H    0.977
                            63 H    0.977
    28   6 C    3.997 --    29 C    1.019    27 C    1.007    66 H    0.978
                            65 H    0.978
    29   6 C    3.997 --    28 C    1.019    69 H    0.988    68 H    0.988
                            67 H    0.987
    30   8 O    2.033 --    24 C    1.713    23 N    0.186
    31   6 C    3.976 --    35 N    0.995    23 N    0.988    70 H    0.941
                            32 C    0.895
    32   6 C    3.920 --    34 O    1.817    33 O    1.126    31 C    0.895
    33   8 O    2.217 --    32 C    1.126    71 H    0.864    34 O    0.169
    34   8 O    2.109 --    32 C    1.817    33 O    0.169
    35   7 N    3.437 --    36 C    1.185    31 C    0.995    11 C    0.954
                            42 O    0.181
    36   6 C    3.944 --    42 O    1.721    35 N    1.185    37 C    0.966
    37   6 C    3.995 --    38 C    1.005    36 C    0.966    72 H    0.958
                            73 H    0.954
    38   6 C    3.993 --    39 C    1.008    37 C    1.005    75 H    0.977
                            74 H    0.975
    39   6 C    3.995 --    40 C    1.009    38 C    1.008    77 H    0.976
                            76 H    0.975
    40   6 C    3.999 --    41 C    1.019    39 C    1.009    79 H    0.978
                            78 H    0.976
    41   6 C    3.997 --    40 C    1.019    80 H    0.988    82 H    0.988
                            81 H    0.988
    42   8 O    2.040 --    36 C    1.721    35 N    0.181
    43   1 H    0.999 --     1 C    0.969
    44   1 H    0.998 --     2 C    0.968
    45   1 H    0.998 --     4 C    0.968
    46   1 H    0.999 --     5 C    0.971
    47   1 H    0.998 --     6 C    0.971
    48   1 H    0.998 --     7 C    0.968
    49   1 H    0.998 --     9 C    0.966
    50   1 H    0.996 --    11 C    0.953
    51   1 H    0.996 --    12 C    0.953
    52   1 H    0.998 --    14 C    0.965
    53   1 H    0.998 --    16 C    0.968
    54   1 H    0.999 --    17 C    0.971
    55   1 H    0.999 --    18 C    0.971
    56   1 H    0.998 --    19 C    0.968
    57   1 H    0.998 --    21 C    0.968
    58   1 H    0.997 --    22 C    0.963
    59   1 H    0.999 --    25 C    0.958
    60   1 H    0.998 --    25 C    0.957
    61   1 H    0.997 --    26 C    0.975
    62   1 H    0.998 --    26 C    0.976
    63   1 H    0.999 --    27 C    0.977
    64   1 H    0.999 --    27 C    0.977
    65   1 H    0.999 --    28 C    0.978
    66   1 H    0.999 --    28 C    0.978
    67   1 H    0.998 --    29 C    0.987
    68   1 H    0.999 --    29 C    0.988
    69   1 H    0.999 --    29 C    0.988
    70   1 H    0.998 --    31 C    0.941
    71   1 H    0.893 --    33 O    0.864
    72   1 H    0.998 --    37 C    0.958
    73   1 H    0.998 --    37 C    0.954
    74   1 H    0.997 --    38 C    0.975
    75   1 H    0.998 --    38 C    0.977
    76   1 H    0.997 --    39 C    0.975
    77   1 H    0.999 --    39 C    0.976
    78   1 H    0.999 --    40 C    0.976
    79   1 H    0.999 --    40 C    0.978
    80   1 H    0.999 --    41 C    0.988
    81   1 H    0.999 --    41 C    0.988
    82   1 H    0.999 --    41 C    0.988
 ---------------------------------------------------------------------------

molecular dipole:
                 x           y           z       tot (Debye)
 q only:        0.661       0.152      -1.042
   full:        0.962       0.459      -1.638       4.967

           -------------------------------------------------
          | TOTAL ENERGY             -119.676119595460 Eh   |
          | GRADIENT NORM               0.000398606354 Eh/Î± |
          | HOMO-LUMO GAP               2.679752665226 eV   |
           -------------------------------------------------

 * finished run on 2022/03/17 at 01:31:06.216
