   * xtb version 6.3.3 (4ae9cef) compiled by 'conda@95abc7406d43' on 2020-10-14
          program call               : xtb acid_173.xyz --opt --chrg 0 --uhf 0 --gfn 2
          number of atoms            :                    92
          number of electrons        :                   274
          charge                     :                     0
          spin                       :                   0.0

   ID    Z sym.   atoms
    1    6 C      1-22, 24-32, 34-36, 38, 39, 43-51, 53-55
    2    7 N      23, 42
    3    8 O      33, 37, 40, 41, 52, 56
    4    1 H      57-92

          :  Hamiltonian                  GFN2-xTB          :
 * total energy  :  -151.4313708 Eh     change       -0.4419832E-08 Eh
 * total energy  :  -151.4493120 Eh     change       -0.1794114E-01 Eh
 * total energy  :  -151.4551912 Eh     change       -0.5879250E-02 Eh
 * total energy  :  -151.4572024 Eh     change       -0.2011137E-02 Eh
 * total energy  :  -151.4589748 Eh     change       -0.1772461E-02 Eh
 * total energy  :  -151.4601738 Eh     change       -0.1198987E-02 Eh
 * total energy  :  -151.4612398 Eh     change       -0.1065947E-02 Eh
 * total energy  :  -151.4622199 Eh     change       -0.9801834E-03 Eh
 * total energy  :  -151.4631704 Eh     change       -0.9504253E-03 Eh
 * total energy  :  -151.4640624 Eh     change       -0.8920213E-03 Eh
 * total energy  :  -151.4799190 Eh     change       -0.3208875E-04 Eh
 * total energy  :  -151.4799475 Eh     change       -0.2843987E-04 Eh
 * total energy  :  -151.4799674 Eh     change       -0.1997477E-04 Eh
 * total energy  :  -151.4799794 Eh     change       -0.1194988E-04 Eh
 * total energy  :  -151.4799872 Eh     change       -0.7777589E-05 Eh
 * total energy  :  -151.4799939 Eh     change       -0.6696799E-05 Eh
 * total energy  :  -151.4800005 Eh     change       -0.6615270E-05 Eh
 * total energy  :  -151.4800061 Eh     change       -0.5645898E-05 Eh
 * total energy  :  -151.4800109 Eh     change       -0.4755266E-05 Eh
   *** GEOMETRY OPTIMIZATION CONVERGED AFTER 92 ITERATIONS ***

 final structure:
================
92
 xtb: 6.3.3 (4ae9cef)
C        -3.26607385313463    1.06260914455775    3.38341448809246
C        -3.68667390639497    2.22419360604288    2.80257475027246
C        -3.21889291829859    2.57171399842481    1.52779367089987
C        -2.36676016052095    1.74686624675738    0.84816376210236
C        -1.93634714857594    0.52040752586183    1.40145776865602
C        -2.38241235090422    0.19155558536356    2.71258334465280
C        -1.93973129218462   -0.99685371049407    3.32809131582195
C        -1.09698038511613   -1.84606279870402    2.67270467381041
C        -0.68833982368880   -1.54965203976461    1.36832224829894
C        -1.09144061104565   -0.40267199300780    0.72975254534781
C        -0.60495285343494   -0.18005275992353   -0.68381483322880
C         0.93284122178781   -0.02297682862764   -0.73166517855982
C         1.36354612423376    1.31053364111037   -1.29649044543651
C         1.24561144058243    1.51766303095766   -2.64946286697626
C         1.72614233196660    2.68949117250269   -3.24677951535983
C         2.34704675024583    3.63945027983038   -2.48766986848434
C         2.45364079424725    3.48354385392166   -1.09052362349173
C         1.91947136597777    2.32138992218196   -0.46758991560513
C         1.97860830913776    2.23868983535378    0.94099672326778
C         2.58415090026181    3.21556176274607    1.68134134781582
C         3.15795584459983    4.33322054737633    1.05932711277583
C         3.08099340817588    4.46734401053485   -0.29738747829614
N         1.38453052292613   -1.12072714670455   -1.57000054470635
C         2.64094600618764   -1.29660847323939   -2.05612516939006
C         3.65104160909199   -0.38101530301475   -1.47947923722725
C         4.02176382216498   -0.25305365903913   -0.15805231669943
C         3.59527629568466   -0.97699967402403    1.02397830443732
C         3.71448983561662   -0.39042105646160    2.28540331094479
C         3.25499783640558   -1.05096148770670    3.40787999489306
C         2.67785823630629   -2.30533148355748    3.29312164770940
C         2.58151072402638   -2.90683033281163    2.04844966053802
C         3.03962356632117   -2.25413918575410    0.92022710680298
O         4.92627947645613    0.74623352640393   -0.03824679899505
C         5.15092993646998    1.25378083953057   -1.26740609854810
C         6.09972335278504    2.38829362765500   -1.39904670809527
C         4.40284169479695    0.58822829884683   -2.19261824343165
O         2.88100112174186   -2.15228021554080   -2.88503459472169
C         0.31729166133805   -1.99530696625469   -1.98814425524884
C         0.30228694099890   -2.16189023283897   -3.52253552491524
O         0.41007718280119   -3.42423541984220   -3.88072622808965
O         0.21470557240002   -1.22911977929626   -4.27374326455794
N        -0.87662715908458   -1.32894224356974   -1.53121309968383
C        -2.08039840601160   -1.65208635593018   -2.06341927548731
C        -3.21226209694308   -0.85784596618678   -1.52689422416563
C        -3.97308784842365   -1.08484844626279   -0.40135027643269
C        -3.93151463299378   -2.12659969235744    0.60452045409380
C        -4.65776727608405   -1.97440100256075    1.78692258730800
C        -4.61683174559842   -2.94979721314796    2.76288135700253
C        -3.85243484441999   -4.09000642236490    2.57801747740466
C        -3.13541098628929   -4.25270077253767    1.40392870342526
C        -3.17230780523737   -3.28246330540854    0.42154808477062
O        -4.89023645525257   -0.09532427691598   -0.27573003164335
C        -4.73286055010239    0.75776868392107   -1.30551683775257
C        -5.63932407174309    1.93097257591186   -1.39705725180349
C        -3.71308569815073    0.33618259500186   -2.10773738839879
O        -2.18645928648565   -2.52236707966887   -2.90513742241487
H        -3.60523408650451    0.78706199602289    4.37169126577343
H        -4.36918280039708    2.88269651204596    3.31921813435223
H        -3.53419791914638    3.50387132126460    1.08190062263655
H        -2.02054984982417    2.05397044906448   -0.12642061927139
H        -2.28200428836172   -1.22059515533959    4.32771375064301
H        -0.75060557911989   -2.75373674195485    3.14186071857723
H        -0.03923713353406   -2.24348617839103    0.85590203119311
H        -1.08001052948973    0.69718394983012   -1.13037000480077
H         1.34028761134311   -0.16342588629074    0.27431427198414
H         0.80922254033857    0.75324933090664   -3.27633074388662
H         1.62309928759913    2.81584082088540   -4.31381565555002
H         2.75936989560091    4.52884661934419   -2.94212335581514
H         1.52638538556781    1.40305190316448    1.45348870204957
H         2.61896303032133    3.13079417401071    2.75763834033784
H         3.64472869542601    5.08749060856756    1.65998404752361
H         3.49555805641824    5.33614741105810   -0.78934386387035
H         4.15942066030560    0.58969094983026    2.36562736839274
H         3.34462225017542   -0.58510749928690    4.37825522913847
H         2.31546434730160   -2.81707267625830    4.17206467850355
H         2.15413806362858   -3.89491153742133    1.95866746902802
H         2.98734325780477   -2.73499251037564   -0.04472577621226
H         7.08109278240808    2.11152787691134   -1.01623139272815
H         5.74097202841005    3.24204097180543   -0.82451461624899
H         6.18813904404244    2.67071864675369   -2.44318043078110
H         4.36339848537773    0.76551015087230   -3.24699243389739
H         0.42096092071771   -3.00100444819983   -1.54533004052417
H         0.40199526937029   -3.51047364757017   -4.84702873006152
H        -5.24794012895325   -1.08199125768741    1.92915958466063
H        -5.18387578966433   -2.82107823332436    3.67337829602271
H        -3.82088862837658   -4.85208565614012    3.34265510108110
H        -2.54754043485315   -5.14571301543601    1.25032560555595
H        -2.63071876754211   -3.42759437672650   -0.49914908837167
H        -5.65891483890808    2.46258524124515   -0.44701846194480
H        -5.29875200359927    2.59969028899964   -2.18164370781482
H        -6.65571433710361    1.60890992107709   -1.62318561731279
H        -3.35776621678535    0.80126869006247   -3.00472360190337

          :  Hamiltonian                  GFN2-xTB          :
         :: total energy            -151.480010880674 Eh    ::
         :: gradient norm              0.000329803876 Eh/a0 ::
         :: HOMO-LUMO gap              2.702404314194 eV    ::
         :: SCC energy              -153.906772105760 Eh    ::
         :: -> dispersion             -0.155973698430 Eh    ::
         :: repulsion energy           2.416636925702 Eh    ::

    * Orbital Energies and Occupations

         #    Occupation            Energy/Eh            Energy/eV
      -------------------------------------------------------------
         1        2.0000           -0.7428656             -20.2144
       ...           ...                  ...                  ...
       125        2.0000           -0.4213102             -11.4644
       126        2.0000           -0.4148041             -11.2874
       127        2.0000           -0.4140161             -11.2660
       128        2.0000           -0.4089174             -11.1272
       129        2.0000           -0.4052468             -11.0273
       130        2.0000           -0.4022699             -10.9463
       131        2.0000           -0.4008295             -10.9071
       132        2.0000           -0.3981373             -10.8339
       133        2.0000           -0.3936347             -10.7113
       134        2.0000           -0.3856730             -10.4947
       135        2.0000           -0.3833674             -10.4320
       136        2.0000           -0.3762549             -10.2384
       137        2.0000           -0.3735973             -10.1661 (HOMO)
       138                         -0.2742858              -7.4637 (LUMO)
       139                         -0.2692541              -7.3268
       140                         -0.2591731              -7.0525
       141                         -0.2536457              -6.9020
       142                         -0.2399773              -6.5301
       143                         -0.2369243              -6.4470
       144                         -0.2319963              -6.3129
       145                         -0.2316327              -6.3030
       146                         -0.2250124              -6.1229
       147                         -0.2190419              -5.9604
       148                         -0.2144493              -5.8355
       ...                                ...                  ...
       260                          0.7070943              19.2410
      -------------------------------------------------------------
                  HL-Gap            0.0993115 Eh            2.7024 eV

     #   Z          covCN         q      C6AA      Î±(0)
     1   6 C        2.921    -0.032    28.792     8.799
     2   6 C        2.915    -0.028    28.708     8.786
     3   6 C        2.917    -0.028    28.689     8.783
     4   6 C        2.917    -0.034    28.846     8.807
     5   6 C        2.983     0.008    27.829     8.653
     6   6 C        2.989     0.016    27.641     8.624
     7   6 C        2.921    -0.034    28.847     8.808
     8   6 C        2.914    -0.028    28.712     8.787
     9   6 C        2.925    -0.035    28.860     8.810
    10   6 C        2.968    -0.012    28.319     8.729
    11   6 C        3.816     0.041    19.868     6.344
    12   6 C        3.816     0.040    19.898     6.349
    13   6 C        2.968    -0.011    28.295     8.725
    14   6 C        2.922    -0.037    28.929     8.820
    15   6 C        2.914    -0.028    28.692     8.784
    16   6 C        2.920    -0.037    28.927     8.820
    17   6 C        2.988     0.014    27.696     8.633
    18   6 C        2.983     0.006    27.888     8.663
    19   6 C        2.916    -0.034    28.846     8.807
    20   6 C        2.917    -0.027    28.683     8.782
    21   6 C        2.915    -0.030    28.746     8.792
    22   6 C        2.921    -0.035    28.879     8.813
    23   7 N        2.767    -0.120    23.611     7.217
    24   6 C        2.761     0.277    22.312     7.735
    25   6 C        3.069    -0.052    29.216     8.863
    26   6 C        3.091     0.102    25.635     8.299
    27   6 C        2.971     0.003    27.954     8.673
    28   6 C        2.925    -0.031    28.766     8.796
    29   6 C        2.918    -0.028    28.710     8.787
    30   6 C        2.919    -0.030    28.749     8.793
    31   6 C        2.918    -0.026    28.653     8.778
    32   6 C        2.924    -0.037    28.914     8.818
    33   8 O        1.730    -0.194    17.235     5.606
    34   6 C        3.082     0.119    25.311     8.248
    35   6 C        3.753    -0.117    22.795     6.808
    36   6 C        3.005    -0.069    29.712     8.942
    37   8 O        0.859    -0.430    22.296     6.331
    38   6 C        3.763     0.108    18.851     6.189
    39   6 C        2.688     0.381    20.554     7.420
    40   8 O        1.660    -0.336    19.650     5.984
    41   8 O        0.856    -0.403    21.740     6.251
    42   7 N        2.768    -0.115    23.509     7.201
    43   6 C        2.762     0.279    22.283     7.730
    44   6 C        3.068    -0.053    29.251     8.868
    45   6 C        3.086     0.106    25.566     8.289
    46   6 C        2.971     0.004    27.923     8.668
    47   6 C        2.926    -0.030    28.741     8.792
    48   6 C        2.919    -0.029    28.718     8.788
    49   6 C        2.920    -0.031    28.771     8.796
    50   6 C        2.919    -0.027    28.672     8.781
    51   6 C        2.924    -0.035    28.872     8.812
    52   8 O        1.731    -0.195    17.248     5.608
    53   6 C        3.077     0.119    25.311     8.248
    54   6 C        3.753    -0.117    22.798     6.809
    55   6 C        3.004    -0.075    29.852     8.963
    56   8 O        0.859    -0.429    22.276     6.328
    57   1 H        0.926     0.037     2.493     2.469
    58   1 H        0.926     0.035     2.518     2.482
    59   1 H        0.926     0.032     2.552     2.498
    60   1 H        0.926     0.027     2.632     2.537
    61   1 H        0.926     0.039     2.467     2.456
    62   1 H        0.926     0.038     2.482     2.464
    63   1 H        0.926     0.035     2.522     2.483
    64   1 H        0.924     0.056     2.244     2.342
    65   1 H        0.924     0.051     2.314     2.379
    66   1 H        0.926     0.065     2.142     2.289
    67   1 H        0.926     0.042     2.421     2.433
    68   1 H        0.926     0.036     2.498     2.471
    69   1 H        0.926     0.023     2.683     2.561
    70   1 H        0.926     0.032     2.560     2.502
    71   1 H        0.926     0.033     2.546     2.495
    72   1 H        0.926     0.034     2.535     2.490
    73   1 H        0.926     0.044     2.400     2.423
    74   1 H        0.926     0.034     2.528     2.486
    75   1 H        0.926     0.034     2.529     2.487
    76   1 H        0.926     0.036     2.505     2.475
    77   1 H        0.926     0.037     2.493     2.469
    78   1 H        0.925     0.067     2.124     2.279
    79   1 H        0.925     0.063     2.162     2.299
    80   1 H        0.925     0.059     2.208     2.324
    81   1 H        0.927     0.047     2.360     2.402
    82   1 H        0.923     0.062     2.175     2.306
    83   1 H        0.804     0.346     0.597     1.214
    84   1 H        0.926     0.041     2.429     2.437
    85   1 H        0.926     0.033     2.547     2.495
    86   1 H        0.926     0.034     2.532     2.489
    87   1 H        0.926     0.036     2.497     2.471
    88   1 H        0.926     0.040     2.453     2.449
    89   1 H        0.925     0.064     2.158     2.297
    90   1 H        0.925     0.058     2.217     2.328
    91   1 H        0.925     0.066     2.126     2.280
    92   1 H        0.926     0.043     2.407     2.426

Wiberg/Mayer (AO) data.
largest (>0.10) Wiberg bond orders for each atom

     #   Z sym  total        # sym  WBO       # sym  WBO       # sym  WBO
 ---------------------------------------------------------------------------
     1   6 C    3.991 --     2 C    1.556     6 C    1.280    57 H    0.968
                             4 C    0.118
     2   6 C    3.992 --     1 C    1.556     3 C    1.322    58 H    0.971
     3   6 C    3.990 --     4 C    1.554     2 C    1.322    59 H    0.971
     4   6 C    3.992 --     3 C    1.554     5 C    1.283    60 H    0.961
                             1 C    0.118
     5   6 C    3.989 --     4 C    1.283    10 C    1.255     6 C    1.250
     6   6 C    3.990 --     1 C    1.280     7 C    1.279     5 C    1.250
     7   6 C    3.989 --     8 C    1.552     6 C    1.279    61 H    0.968
                            10 C    0.114
     8   6 C    3.991 --     7 C    1.552     9 C    1.328    62 H    0.970
     9   6 C    3.990 --    10 C    1.521     8 C    1.328    63 H    0.966
    10   6 C    3.984 --     9 C    1.521     5 C    1.255    11 C    0.986
                             7 C    0.114
    11   6 C    3.965 --    10 C    0.986    42 N    0.962    12 C    0.952
                            64 H    0.949
    12   6 C    3.964 --    13 C    0.987    23 N    0.963    11 C    0.952
                            65 H    0.943
    13   6 C    3.983 --    14 C    1.522    18 C    1.253    12 C    0.987
                            16 C    0.114
    14   6 C    3.986 --    13 C    1.522    15 C    1.327    66 H    0.959
    15   6 C    3.991 --    16 C    1.552    14 C    1.327    67 H    0.970
    16   6 C    3.989 --    15 C    1.552    17 C    1.279    68 H    0.968
                            13 C    0.114
    17   6 C    3.990 --    22 C    1.279    16 C    1.279    18 C    1.252
    18   6 C    3.989 --    19 C    1.284    13 C    1.253    17 C    1.252
    19   6 C    3.992 --    20 C    1.553    18 C    1.284    69 H    0.962
                            22 C    0.118
    20   6 C    3.991 --    19 C    1.553    21 C    1.322    70 H    0.971
    21   6 C    3.992 --    22 C    1.556    20 C    1.322    71 H    0.971
    22   6 C    3.991 --    21 C    1.556    17 C    1.279    72 H    0.968
                            19 C    0.118
    23   7 N    3.458 --    24 C    1.204    38 C    0.980    12 C    0.963
                            37 O    0.188
    24   6 C    3.946 --    37 O    1.671    23 N    1.204    25 C    0.982
    25   6 C    3.979 --    26 C    1.477    36 C    1.268    24 C    0.982
    26   6 C    3.909 --    25 C    1.477    33 O    1.101    27 C    1.084
                            34 C    0.120
    27   6 C    3.989 --    28 C    1.368    32 C    1.367    26 C    1.084
    28   6 C    3.988 --    29 C    1.458    27 C    1.368    73 H    0.968
                            31 C    0.105
    29   6 C    3.992 --    28 C    1.458    30 C    1.430    74 H    0.971
                            32 C    0.105
    30   6 C    3.978 --    29 C    1.430    31 C    1.429    75 H    0.971
    31   6 C    3.992 --    32 C    1.459    30 C    1.429    76 H    0.970
                            28 C    0.105
    32   6 C    3.989 --    31 C    1.459    27 C    1.367    77 H    0.966
                            29 C    0.105
    33   8 O    2.428 --    34 C    1.118    26 C    1.101
    34   6 C    3.903 --    36 C    1.566    33 O    1.118    35 C    1.030
                            26 C    0.120
    35   6 C    3.992 --    34 C    1.030    80 H    0.984    78 H    0.969
                            79 H    0.967
    36   6 C    3.977 --    34 C    1.566    25 C    1.268    81 H    0.974
    37   8 O    2.016 --    24 C    1.671    23 N    0.188
    38   6 C    3.961 --    23 N    0.980    42 N    0.979    82 H    0.943
                            39 C    0.907
    39   6 C    3.923 --    41 O    1.751    40 O    1.183    38 C    0.907
    40   8 O    2.248 --    39 C    1.183    83 H    0.854    41 O    0.180
    41   8 O    2.047 --    39 C    1.751    40 O    0.180
    42   7 N    3.467 --    43 C    1.215    38 C    0.979    11 C    0.962
                            56 O    0.190
    43   6 C    3.945 --    56 O    1.670    42 N    1.215    44 C    0.970
    44   6 C    3.978 --    45 C    1.484    55 C    1.270    43 C    0.970
    45   6 C    3.909 --    44 C    1.484    52 O    1.097    46 C    1.089
                            53 C    0.120
    46   6 C    3.988 --    51 C    1.369    47 C    1.368    45 C    1.089
    47   6 C    3.989 --    48 C    1.458    46 C    1.368    84 H    0.969
                            50 C    0.105
    48   6 C    3.992 --    47 C    1.458    49 C    1.430    85 H    0.971
                            51 C    0.105
    49   6 C    3.978 --    48 C    1.430    50 C    1.430    86 H    0.971
    50   6 C    3.991 --    51 C    1.458    49 C    1.430    87 H    0.971
                            47 C    0.105
    51   6 C    3.990 --    50 C    1.458    46 C    1.369    88 H    0.964
                            48 C    0.105
    52   8 O    2.427 --    53 C    1.122    45 C    1.097
    53   6 C    3.902 --    55 C    1.557    52 O    1.122    54 C    1.029
                            45 C    0.120
    54   6 C    3.992 --    53 C    1.029    90 H    0.983    89 H    0.971
                            91 H    0.966
    55   6 C    3.975 --    53 C    1.557    44 C    1.270    92 H    0.974
    56   8 O    2.021 --    43 C    1.670    42 N    0.190
    57   1 H    0.998 --     1 C    0.968
    58   1 H    0.998 --     2 C    0.971
    59   1 H    0.998 --     3 C    0.971
    60   1 H    0.999 --     4 C    0.961
    61   1 H    0.997 --     7 C    0.968
    62   1 H    0.997 --     8 C    0.970
    63   1 H    0.998 --     9 C    0.966
    64   1 H    0.996 --    11 C    0.949
    65   1 H    0.997 --    12 C    0.943
    66   1 H    0.995 --    14 C    0.959
    67   1 H    0.997 --    15 C    0.970
    68   1 H    0.998 --    16 C    0.968
    69   1 H    0.999 --    19 C    0.962
    70   1 H    0.998 --    20 C    0.971
    71   1 H    0.998 --    21 C    0.971
    72   1 H    0.998 --    22 C    0.968
    73   1 H    0.998 --    28 C    0.968
    74   1 H    0.998 --    29 C    0.971
    75   1 H    0.998 --    30 C    0.971
    76   1 H    0.998 --    31 C    0.970
    77   1 H    0.999 --    32 C    0.966
    78   1 H    0.994 --    35 C    0.969
    79   1 H    0.995 --    35 C    0.967
    80   1 H    0.996 --    35 C    0.984
    81   1 H    0.997 --    36 C    0.974
    82   1 H    0.995 --    38 C    0.943
    83   1 H    0.879 --    40 O    0.854
    84   1 H    0.998 --    47 C    0.969
    85   1 H    0.998 --    48 C    0.971
    86   1 H    0.998 --    49 C    0.971
    87   1 H    0.998 --    50 C    0.971
    88   1 H    0.998 --    51 C    0.964
    89   1 H    0.995 --    54 C    0.971
    90   1 H    0.996 --    54 C    0.983
    91   1 H    0.994 --    54 C    0.966
    92   1 H    0.998 --    55 C    0.974
 ---------------------------------------------------------------------------

molecular dipole:
                 x           y           z       tot (Debye)
 q only:       -0.167       2.075       2.219
   full:       -0.148       2.142       2.205       7.822

           -------------------------------------------------
          | TOTAL ENERGY             -151.480010880674 Eh   |
          | GRADIENT NORM               0.000329803876 Eh/Î± |
          | HOMO-LUMO GAP               2.702404314194 eV   |
           -------------------------------------------------

 * finished run on 2022/03/16 at 22:04:58.715
