   * xtb version 6.3.3 (4ae9cef) compiled by 'conda@95abc7406d43' on 2020-10-14
          program call               : xtb acid_183.xyz --opt --chrg 0 --uhf 0 --gfn 2
          number of atoms            :                    84
          number of electrons        :                   226
          charge                     :                     0
          spin                       :                   0.0

   ID    Z sym.   atoms
    1    6 C      1-14, 16-26, 28, 29, 33-43
    2    7 N      15, 32
    3    8 O      27, 30, 31, 44
    4    1 H      45-84

          :  Hamiltonian                  GFN2-xTB          :
 * total energy  :  -123.9199794 Eh     change       -0.1533039E-08 Eh
 * total energy  :  -123.9350628 Eh     change       -0.1508336E-01 Eh
 * total energy  :  -123.9398584 Eh     change       -0.4795660E-02 Eh
 * total energy  :  -123.9416563 Eh     change       -0.1797824E-02 Eh
 * total energy  :  -123.9426324 Eh     change       -0.9761055E-03 Eh
 * total energy  :  -123.9430829 Eh     change       -0.4505642E-03 Eh
 * total energy  :  -123.9434297 Eh     change       -0.3467910E-03 Eh
 * total energy  :  -123.9438178 Eh     change       -0.3881013E-03 Eh
 * total energy  :  -123.9441914 Eh     change       -0.3735433E-03 Eh
 * total energy  :  -123.9444699 Eh     change       -0.2785197E-03 Eh
 * total energy  :  -123.9545670 Eh     change       -0.1397389E-04 Eh
 * total energy  :  -123.9545773 Eh     change       -0.1035319E-04 Eh
 * total energy  :  -123.9545850 Eh     change       -0.7708038E-05 Eh
 * total energy  :  -123.9545860 Eh     change       -0.9620999E-06 Eh
 * total energy  :  -123.9545919 Eh     change       -0.5926228E-05 Eh
 * total energy  :  -123.9545984 Eh     change       -0.6488234E-05 Eh
 * total energy  :  -123.9546047 Eh     change       -0.6302836E-05 Eh
 * total energy  :  -123.9546102 Eh     change       -0.5462923E-05 Eh
 * total energy  :  -123.9546139 Eh     change       -0.3772413E-05 Eh
   *** GEOMETRY OPTIMIZATION CONVERGED AFTER 122 ITERATIONS ***

 final structure:
================
84
 xtb: 6.3.3 (4ae9cef)
C         0.23652585574693   -3.51818254004019    2.26343816807884
C         0.36548568214784   -3.80212267838822    3.61172148685865
C         0.75730472227618   -2.81242127373757    4.49667681093387
C         1.01614630227958   -1.53511027276648    4.02912814529312
C         0.88191280824059   -1.24988719134163    2.68249207132057
C         0.49491556689246   -2.24056892268509    1.78857779855903
C         0.34342013159752   -1.92876988010347    0.32016806213188
C        -0.91401085277039   -1.07927518116175    0.02894112124281
C        -1.84394044386518   -1.76860759632403   -0.93718567208671
C        -1.46422052037080   -1.94685516098078   -2.26238344881120
C        -2.32390913583680   -2.56833007016986   -3.14929613773455
C        -3.56109830434262   -3.02045590670716   -2.72162346744592
C        -3.93364523536070   -2.86000881959534   -1.39857586342100
C        -3.07609833549068   -2.23939932501063   -0.50827167376816
N        -0.38367767198184    0.16183657277165   -0.51257678629743
C        -1.04492620976445    1.04703712583545   -1.29587213374385
C        -2.52838410083932    0.97684642462525   -1.27497131817124
C        -3.21372047577325    0.84451061945951   -2.47577616280546
C        -4.59171036409661    0.77610030696629   -2.45532854988843
C        -5.28484759445193    0.87331643271822   -1.25975327668230
C        -4.61823305859608    1.04953697152327   -0.05302050466999
C        -5.33825924752704    1.19622362708203    1.27916479684385
C        -6.86178390527865    1.16916974307990    1.13146823664637
C        -4.92666556449422    0.04041721212772    2.20183783776454
C        -4.94493492121061    2.53658540938289    1.91610284647869
C        -3.22791837027627    1.09026858522580   -0.08305609279034
O        -0.41945386719931    1.86708588910575   -1.94925345664467
C         1.06652910817658    0.19978286756619   -0.54229426778144
C         1.54093693087255    0.58348314374040   -1.96272037233914
O         2.31203270405829    1.66385610324198   -1.95391084883966
O         1.32502486633367   -0.09610335406099   -2.92946033973141
N         1.45933255422141   -1.13192225569157   -0.16788851367400
C         2.63937730024533   -1.75434634596442   -0.45081322295274
C         3.72749716532966   -0.85130728226201   -0.91833281355180
C         4.14568934124443    0.20166284779677   -0.11223767035992
C         5.15354120967936    1.06233463256145   -0.52086726028475
C         5.60317265204659    2.25327787879014    0.30978262946065
C         5.31095270079450    3.53415278864557   -0.48516549062621
C         4.87026349009367    2.34741256278577    1.65060063063323
C         7.10708668449266    2.13940058629055    0.59283184256666
C         5.74211101942143    0.82538826427640   -1.76173213051175
C         5.35505340445894   -0.24030359327227   -2.55276379652395
C         4.34853704070775   -1.09173520492421   -2.13465384892862
O         2.77633292491338   -2.94869844397740   -0.28838448292786
H        -0.05843393310601   -4.29288058144140    1.57156921077948
H         0.16619891532298   -4.80064914694528    3.97121015167268
H         0.86482473499135   -3.03567186462094    5.54772414915352
H         1.32521319910752   -0.75955868230544    4.71468750610932
H         1.08486592956466   -0.25153348179220    2.32238671798545
H         0.31944918417781   -2.86997908457046   -0.24244814134657
H        -1.44398894570418   -0.87775975208845    0.96933682458366
H        -0.50589795693299   -1.58374784639203   -2.60514980956588
H        -2.02631289037971   -2.69749701304366   -4.17896195252933
H        -4.23296946398790   -3.49952820273102   -3.41815400789515
H        -4.89503575121253   -3.21579889290996   -1.05878961249890
H        -3.36502198706274   -2.11326124344451    0.52485455805196
H        -2.66163931886717    0.78051941547616   -3.40021417633740
H        -5.13724680238112    0.65233322368353   -3.37893466386099
H        -6.36065314200864    0.81980838638495   -1.28791886703961
H        -7.20707547159222    1.98447082681546    0.50021128164775
H        -7.32206529130516    1.28422615348246    2.11068663414957
H        -7.19929438893475    0.22427954012249    0.71223145149013
H        -5.42768799258699    0.13275987459415    3.16309043693986
H        -3.85419655340930    0.03462504098282    2.37835322130186
H        -5.20885717397480   -0.91188291665741    1.75750453890649
H        -3.87863881953023    2.58565953208342    2.11730298383246
H        -5.20399018733041    3.35818666674287    1.25187299249014
H        -5.47417508202121    2.67280946495439    2.85678843857769
H        -2.66917287307951    1.23151059458949    0.83021209425753
H         1.43927993424731    0.97080583946581    0.15357306741835
H         2.55923613703841    1.90678555217972   -2.85969338719998
H         3.67098989952397    0.32446502925579    0.84765423263145
H         4.25149565805791    3.58845876756977   -0.72667978453943
H         5.58026066862277    4.40929528350187    0.10238785029701
H         5.87518992163770    3.56102971279753   -1.41323097065483
H         3.80263247098716    2.49104326845266    1.50081861877591
H         5.24720347760157    3.20176848586104    2.20937589054988
H         5.03368928213019    1.45530221166240    2.25110769422434
H         7.43884839726320    2.98151751251698    1.19653224147878
H         7.68608500280661    2.13251622026110   -0.32619843864171
H         7.31838218835732    1.22049158516350    1.13563243400192
H         6.52232465379238    1.47899794736189   -2.12175871909417
H         5.83907947995310   -0.40601619211226   -3.50410228336838
H         4.02935790343141   -1.92317353151208   -2.74331828759851

          :  Hamiltonian                  GFN2-xTB          :
         :: total energy            -123.954613940987 Eh    ::
         :: gradient norm              0.000280586765 Eh/a0 ::
         :: HOMO-LUMO gap              3.633662596849 eV    ::
         :: SCC energy              -125.894796127483 Eh    ::
         :: -> dispersion             -0.115408687881 Eh    ::
         :: repulsion energy           1.936298889407 Eh    ::

    * Orbital Energies and Occupations

         #    Occupation            Energy/Eh            Energy/eV
      -------------------------------------------------------------
         1        2.0000           -0.7478159             -20.3491
       ...           ...                  ...                  ...
       101        2.0000           -0.4192931             -11.4095
       102        2.0000           -0.4176708             -11.3654
       103        2.0000           -0.4121808             -11.2160
       104        2.0000           -0.4120248             -11.2118
       105        2.0000           -0.4112732             -11.1913
       106        2.0000           -0.4067655             -11.0687
       107        2.0000           -0.4061126             -11.0509
       108        2.0000           -0.4049028             -11.0180
       109        2.0000           -0.4013802             -10.9221
       110        2.0000           -0.3998765             -10.8812
       111        2.0000           -0.3974300             -10.8146
       112        2.0000           -0.3897533             -10.6057
       113        2.0000           -0.3869439             -10.5293 (HOMO)
       114                         -0.2534093              -6.8956 (LUMO)
       115                         -0.2453762              -6.6770
       116                         -0.2376091              -6.4657
       117                         -0.2323862              -6.3235
       118                         -0.2315851              -6.3018
       119                         -0.2303430              -6.2680
       120                         -0.2293220              -6.2402
       121                         -0.2282434              -6.2108
       122                         -0.2228954              -6.0653
       123                         -0.2031811              -5.5288
       124                         -0.1931875              -5.2569
       ...                                ...                  ...
       216                          0.6738815              18.3372
      -------------------------------------------------------------
                  HL-Gap            0.1335346 Eh            3.6337 eV

     #   Z          covCN         q      C6AA      Î±(0)
     1   6 C        2.924    -0.029    28.735     8.791
     2   6 C        2.920    -0.026    28.641     8.776
     3   6 C        2.920    -0.029    28.726     8.789
     4   6 C        2.919    -0.029    28.715     8.787
     5   6 C        2.924    -0.033    28.816     8.803
     6   6 C        2.973     0.006    27.890     8.663
     7   6 C        3.826     0.045    19.805     6.333
     8   6 C        3.812     0.041    19.882     6.347
     9   6 C        2.975    -0.003    28.097     8.695
    10   6 C        2.923    -0.035    28.862     8.810
    11   6 C        2.920    -0.025    28.640     8.776
    12   6 C        2.920    -0.029    28.735     8.791
    13   6 C        2.920    -0.028    28.706     8.786
    14   6 C        2.923    -0.036    28.903     8.816
    15   7 N        2.764    -0.115    23.501     7.200
    16   6 C        2.774     0.274    22.363     7.745
    17   6 C        2.976    -0.014    28.350     8.734
    18   6 C        2.924    -0.023    28.583     8.767
    19   6 C        2.919    -0.029    28.713     8.787
    20   6 C        2.926    -0.037    28.914     8.818
    21   6 C        2.973     0.013    27.720     8.636
    22   6 C        3.903     0.026    20.082     6.370
    23   6 C        3.761    -0.110    22.644     6.783
    24   6 C        3.762    -0.103    22.520     6.765
    25   6 C        3.762    -0.107    22.587     6.775
    26   6 C        2.931    -0.035    28.863     8.811
    27   8 O        0.862    -0.429    22.266     6.327
    28   6 C        3.760     0.101    18.958     6.207
    29   6 C        2.689     0.372    20.697     7.445
    30   8 O        1.659    -0.362    20.120     6.055
    31   8 O        0.856    -0.408    21.841     6.266
    32   7 N        2.761    -0.119    23.595     7.214
    33   6 C        2.767     0.272    22.406     7.752
    34   6 C        2.977    -0.022    28.559     8.766
    35   6 C        2.929    -0.038    28.952     8.824
    36   6 C        2.973     0.015    27.681     8.630
    37   6 C        3.903     0.026    20.079     6.369
    38   6 C        3.762    -0.109    22.638     6.782
    39   6 C        3.761    -0.107    22.596     6.776
    40   6 C        3.761    -0.107    22.589     6.775
    41   6 C        2.928    -0.034    28.858     8.810
    42   6 C        2.919    -0.031    28.771     8.796
    43   6 C        2.923    -0.023    28.587     8.768
    44   8 O        0.859    -0.422    22.118     6.306
    45   1 H        0.926     0.040     2.447     2.446
    46   1 H        0.926     0.039     2.462     2.454
    47   1 H        0.926     0.036     2.498     2.471
    48   1 H        0.926     0.035     2.516     2.481
    49   1 H        0.926     0.028     2.619     2.531
    50   1 H        0.924     0.072     2.066     2.248
    51   1 H        0.923     0.047     2.360     2.402
    52   1 H        0.926     0.059     2.206     2.322
    53   1 H        0.926     0.042     2.419     2.432
    54   1 H        0.926     0.037     2.491     2.468
    55   1 H        0.926     0.034     2.525     2.485
    56   1 H        0.926     0.030     2.588     2.516
    57   1 H        0.926     0.046     2.365     2.405
    58   1 H        0.926     0.039     2.461     2.453
    59   1 H        0.926     0.045     2.379     2.412
    60   1 H        0.925     0.039     2.464     2.455
    61   1 H        0.925     0.040     2.451     2.448
    62   1 H        0.925     0.037     2.483     2.464
    63   1 H        0.925     0.041     2.435     2.440
    64   1 H        0.925     0.031     2.566     2.505
    65   1 H        0.925     0.034     2.529     2.487
    66   1 H        0.925     0.037     2.489     2.467
    67   1 H        0.925     0.037     2.486     2.466
    68   1 H        0.925     0.041     2.442     2.444
    69   1 H        0.926     0.031     2.568     2.506
    70   1 H        0.923     0.057     2.239     2.340
    71   1 H        0.804     0.345     0.601     1.218
    72   1 H        0.926     0.035     2.514     2.479
    73   1 H        0.925     0.041     2.437     2.441
    74   1 H        0.925     0.040     2.447     2.446
    75   1 H        0.925     0.037     2.490     2.468
    76   1 H        0.925     0.034     2.526     2.486
    77   1 H        0.925     0.039     2.468     2.457
    78   1 H        0.925     0.036     2.496     2.471
    79   1 H        0.925     0.039     2.460     2.453
    80   1 H        0.925     0.038     2.478     2.462
    81   1 H        0.925     0.036     2.503     2.474
    82   1 H        0.926     0.036     2.504     2.475
    83   1 H        0.926     0.037     2.488     2.467
    84   1 H        0.926     0.048     2.350     2.397

Wiberg/Mayer (AO) data.
largest (>0.10) Wiberg bond orders for each atom

     #   Z sym  total        # sym  WBO       # sym  WBO       # sym  WBO
 ---------------------------------------------------------------------------
     1   6 C    3.990 --     2 C    1.443     6 C    1.415    45 H    0.968
                             4 C    0.111
     2   6 C    3.992 --     1 C    1.443     3 C    1.441    46 H    0.971
                             5 C    0.112
     3   6 C    3.991 --     2 C    1.441     4 C    1.437    47 H    0.971
                             6 C    0.110
     4   6 C    3.992 --     5 C    1.447     3 C    1.437    48 H    0.971
                             1 C    0.111
     5   6 C    3.992 --     4 C    1.447     6 C    1.411    49 H    0.968
                             2 C    0.112
     6   6 C    3.985 --     1 C    1.415     5 C    1.411     7 C    0.987
                             3 C    0.110
     7   6 C    3.963 --     6 C    0.987    32 N    0.961    50 H    0.952
                             8 C    0.952
     8   6 C    3.964 --     9 C    0.988    15 N    0.960    51 H    0.954
                             7 C    0.952
     9   6 C    3.985 --    14 C    1.415    10 C    1.408     8 C    0.988
                            12 C    0.109
    10   6 C    3.989 --    11 C    1.448     9 C    1.408    52 H    0.962
                            13 C    0.112
    11   6 C    3.992 --    10 C    1.448    12 C    1.436    53 H    0.970
                            14 C    0.110
    12   6 C    3.990 --    13 C    1.441    11 C    1.436    54 H    0.971
                             9 C    0.109
    13   6 C    3.992 --    14 C    1.441    12 C    1.441    55 H    0.971
                            10 C    0.112
    14   6 C    3.990 --    13 C    1.441     9 C    1.415    56 H    0.967
                            11 C    0.110
    15   7 N    3.463 --    16 C    1.225    28 C    0.973     8 C    0.960
                            27 O    0.182
    16   6 C    3.940 --    27 O    1.643    15 N    1.225    17 C    0.979
    17   6 C    3.987 --    26 C    1.410    18 C    1.390    16 C    0.979
                            20 C    0.105
    18   6 C    3.989 --    19 C    1.449    17 C    1.390    57 H    0.969
                            21 C    0.108
    19   6 C    3.991 --    18 C    1.449    20 C    1.434    58 H    0.970
                            26 C    0.108
    20   6 C    3.991 --    19 C    1.434    21 C    1.415    59 H    0.965
                            17 C    0.105
    21   6 C    3.986 --    20 C    1.415    26 C    1.410    22 C    0.984
                            18 C    0.108
    22   6 C    3.991 --    23 C    1.000    25 C    0.987    24 C    0.987
                            21 C    0.984
    23   6 C    3.996 --    22 C    1.000    60 H    0.985    62 H    0.984
                            61 H    0.984
    24   6 C    3.996 --    22 C    0.987    65 H    0.985    63 H    0.984
                            64 H    0.984
    25   6 C    3.995 --    22 C    0.987    67 H    0.987    68 H    0.984
                            66 H    0.983
    26   6 C    3.990 --    21 C    1.410    17 C    1.410    69 H    0.963
                            19 C    0.108
    27   8 O    2.050 --    16 C    1.643    15 N    0.182
    28   6 C    3.966 --    32 N    0.990    15 N    0.973    70 H    0.943
                            29 C    0.908
    29   6 C    3.923 --    31 O    1.744    30 O    1.151    28 C    0.908
    30   8 O    2.211 --    29 C    1.151    71 H    0.856    31 O    0.168
    31   8 O    2.043 --    29 C    1.744    30 O    0.168
    32   7 N    3.452 --    33 C    1.192    28 C    0.990     7 C    0.961
                            44 O    0.186
    33   6 C    3.943 --    44 O    1.695    32 N    1.192    34 C    0.972
    34   6 C    3.987 --    43 C    1.407    35 C    1.394    33 C    0.972
                            41 C    0.107
    35   6 C    3.991 --    36 C    1.427    34 C    1.394    72 H    0.963
                            42 C    0.106
    36   6 C    3.986 --    35 C    1.427    41 C    1.399    37 C    0.984
                            43 C    0.108
    37   6 C    3.991 --    39 C    1.000    40 C    0.988    38 C    0.986
                            36 C    0.984
    38   6 C    3.995 --    73 H    0.986    37 C    0.986    74 H    0.984
                            75 H    0.984
    39   6 C    3.996 --    37 C    1.000    76 H    0.985    78 H    0.985
                            77 H    0.984
    40   6 C    3.996 --    37 C    0.988    81 H    0.987    79 H    0.984
                            80 H    0.983
    41   6 C    3.991 --    42 C    1.452    36 C    1.399    82 H    0.965
                            34 C    0.107
    42   6 C    3.991 --    41 C    1.452    43 C    1.434    83 H    0.970
                            35 C    0.106
    43   6 C    3.989 --    42 C    1.434    34 C    1.407    84 H    0.969
                            36 C    0.108
    44   8 O    2.019 --    33 C    1.695    32 N    0.186
    45   1 H    0.998 --     1 C    0.968
    46   1 H    0.998 --     2 C    0.971
    47   1 H    0.998 --     3 C    0.971
    48   1 H    0.998 --     4 C    0.971
    49   1 H    0.999 --     5 C    0.968
    50   1 H    0.994 --     7 C    0.952
    51   1 H    0.997 --     8 C    0.954
    52   1 H    0.996 --    10 C    0.962
    53   1 H    0.998 --    11 C    0.970
    54   1 H    0.998 --    12 C    0.971
    55   1 H    0.998 --    13 C    0.971
    56   1 H    0.999 --    14 C    0.967
    57   1 H    0.997 --    18 C    0.969
    58   1 H    0.998 --    19 C    0.970
    59   1 H    0.998 --    20 C    0.965
    60   1 H    0.998 --    23 C    0.985
    61   1 H    0.998 --    23 C    0.984
    62   1 H    0.999 --    23 C    0.984
    63   1 H    0.997 --    24 C    0.984
    64   1 H    0.999 --    24 C    0.984
    65   1 H    0.999 --    24 C    0.985
    66   1 H    0.999 --    25 C    0.983
    67   1 H    0.999 --    25 C    0.987
    68   1 H    0.997 --    25 C    0.984
    69   1 H    0.999 --    26 C    0.963
    70   1 H    0.996 --    28 C    0.943
    71   1 H    0.880 --    30 O    0.856
    72   1 H    0.999 --    35 C    0.963
    73   1 H    0.998 --    38 C    0.986
    74   1 H    0.997 --    38 C    0.984
    75   1 H    0.999 --    38 C    0.984
    76   1 H    0.999 --    39 C    0.985
    77   1 H    0.998 --    39 C    0.984
    78   1 H    0.999 --    39 C    0.985
    79   1 H    0.998 --    40 C    0.984
    80   1 H    0.999 --    40 C    0.983
    81   1 H    0.999 --    40 C    0.987
    82   1 H    0.998 --    41 C    0.965
    83   1 H    0.998 --    42 C    0.970
    84   1 H    0.997 --    43 C    0.969
 ---------------------------------------------------------------------------

molecular dipole:
                 x           y           z       tot (Debye)
 q only:       -1.224       0.647       1.229
   full:       -1.190       0.845       1.151       4.725

           -------------------------------------------------
          | TOTAL ENERGY             -123.954613940987 Eh   |
          | GRADIENT NORM               0.000280586765 Eh/Î± |
          | HOMO-LUMO GAP               3.633662596849 eV   |
           -------------------------------------------------

 * finished run on 2022/03/16 at 22:13:46.315
