   * xtb version 6.3.3 (4ae9cef) compiled by 'conda@95abc7406d43' on 2020-10-14
          program call               : xtb acid_191.xyz --opt --chrg 0 --uhf 0 --gfn 2
          number of atoms            :                    70
          number of electrons        :                   218
          charge                     :                     0
          spin                       :                   0.0

   ID    Z sym.   atoms
    1    6 C      1, 3-16, 18, 20-26, 28, 30, 31, 35-39, 41-43
    2    8 O      2, 17, 29, 32, 33, 44
    3    7 N      19, 27, 34, 40
    4    1 H      45-70

          :  Hamiltonian                  GFN2-xTB          :
 * total energy  :  -122.0385321 Eh     change       -0.1444903E-08 Eh
 * total energy  :  -122.0632195 Eh     change       -0.2468734E-01 Eh
 * total energy  :  -122.0705927 Eh     change       -0.7373265E-02 Eh
 * total energy  :  -122.0733353 Eh     change       -0.2742525E-02 Eh
 * total energy  :  -122.0755445 Eh     change       -0.2209253E-02 Eh
 * total energy  :  -122.0772219 Eh     change       -0.1677415E-02 Eh
 * total energy  :  -122.0789105 Eh     change       -0.1688621E-02 Eh
 * total energy  :  -122.0806898 Eh     change       -0.1779301E-02 Eh
 * total energy  :  -122.0822243 Eh     change       -0.1534459E-02 Eh
 * total energy  :  -122.0836472 Eh     change       -0.1422876E-02 Eh
 * total energy  :  -122.1085462 Eh     change       -0.1570132E-04 Eh
 * total energy  :  -122.1085630 Eh     change       -0.1676853E-04 Eh
 * total energy  :  -122.1085773 Eh     change       -0.1427723E-04 Eh
 * total energy  :  -122.1085971 Eh     change       -0.1982726E-04 Eh
 * total energy  :  -122.1086010 Eh     change       -0.3865466E-05 Eh
 * total energy  :  -122.1085803 Eh     change        0.2070634E-04 Eh
 * total energy  :  -122.1086046 Eh     change       -0.2429874E-04 Eh
 * total energy  :  -122.1086113 Eh     change       -0.6698150E-05 Eh
 * total energy  :  -122.1086151 Eh     change       -0.3863284E-05 Eh
   *** GEOMETRY OPTIMIZATION CONVERGED AFTER 72 ITERATIONS ***

 final structure:
================
70
 xtb: 6.3.3 (4ae9cef)
C        -2.43402095862711   -1.44124747816037    2.47661179760157
O        -1.45085353591954   -0.99826954654183    3.30880974099551
C        -1.72196968359868   -0.90519433870217    4.68618613741960
C        -3.66463786746927   -1.92347031480117    2.89760925318308
C        -4.59508157925066   -2.35597049982126    1.96739685290909
C        -4.30773854355685   -2.30964416352231    0.61837695383396
C        -3.08180736632941   -1.82526876246586    0.19099132129716
C        -2.13731891451933   -1.39306505959677    1.10263993964635
C        -0.77743115842007   -0.87835401054452    0.73019345594077
C        -0.22128986362094   -1.21429649933443   -0.66897533663675
C         0.35887961855092   -2.59667322935409   -0.77068330121555
C         1.53314934975892   -2.91961562242659   -0.11267462695410
C         2.07521484649886   -4.18982459884391   -0.19752747734878
C         1.43109415980937   -5.15150039599939   -0.95132821956520
C         0.25906685522107   -4.84831867005333   -1.62185601678161
C        -0.28736555725333   -3.57256593476672   -1.54380649802305
O        -1.43209735898830   -3.19270058125338   -2.17508004767840
C        -2.09184241909356   -4.12295349842061   -3.00001574962576
N         0.78473788940303   -0.16168500287318   -0.84433679666588
C         1.51168948781723   -0.04636143584910   -1.98290075334406
C         2.38868414732124    1.17375069656999   -2.02470392070314
C         1.85124186980772    2.42400413006815   -2.31866805507836
C         2.66538086684317    3.54483468898622   -2.34984803316815
C         4.01828534317300    3.43087284700950   -2.08999872065940
C         4.56183309532371    2.17537059388300   -1.81820577968946
C         5.94561209212648    2.04339082764449   -1.55218239267671
N         7.06323329860988    1.93699079632515   -1.32367644888183
C         3.74749045197438    1.04356349808067   -1.79274792721357
O         1.46626337954583   -0.85908558489062   -2.87801039365981
C         0.66731046791406    0.82833730678964    0.20389709268044
C         1.74921403146503    0.70335406656433    1.30003635062585
O         2.84386017896378    0.08418916748988    0.87481123773703
O         1.62273384473567    1.15764023006392    2.40080714172003
N        -0.63309840569342    0.58386805903361    0.76508413131286
C        -1.63977271772162    1.49140812287110    0.87338126833023
C        -1.24003263802325    2.91500772862615    0.60637182657656
C        -0.22910604564320    3.55097042387298    1.31329342845950
C         0.08166971044613    4.87822005688374    1.01848091859881
C         1.13888195286008    5.52141534918706    1.70509974520413
N         2.00642321385041    6.04793323342592    2.23734531497508
C        -0.62490387338832    5.57070084503102    0.03399132839967
C        -1.65026810561960    4.93623495129683   -0.64188235840621
C        -1.96104824536283    3.61713971225708   -0.35593548743184
O        -2.78345729273255    1.20742639770139    1.14784127132074
H        -2.58197228338175   -0.25762157046318    4.87975458247168
H        -1.89678208288077   -1.89078724202674    5.13059091499071
H        -0.83073057805610   -0.46270475408202    5.12892852623053
H        -3.91146070495465   -1.96225901940310    3.94667400623909
H        -5.55016614858597   -2.72690280693701    2.30875416836807
H        -5.03593676484022   -2.64221463556065   -0.10543674613383
H        -2.86921063051477   -1.79315653474872   -0.86436867312439
H        -0.06915184148603   -1.26819948755119    1.47727161764983
H        -0.98442386751156   -1.09138094310230   -1.44387773517442
H         2.04208696471952   -2.15861471801728    0.45863627029052
H         2.99425366132609   -4.42346029529079    0.31746458801669
H         1.84146915526965   -6.14724856926990   -1.02818517065455
H        -0.21904013248980   -5.61473124583014   -2.21053173874172
H        -1.44876613794682   -4.46157017368982   -3.81756633063510
H        -2.44605326995511   -4.98567143498226   -2.42687582780344
H        -2.94827542280263   -3.59216871296262   -3.41363180712279
H         0.79580993055219    2.51809396107721   -2.53485436019955
H         2.24098191568023    4.51140992001714   -2.57578796659412
H         4.65781713859811    4.30052640953262   -2.10148460333602
H         4.17056951952479    0.07176556873700   -1.58915717188724
H         0.75624752171877    1.84931396398087   -0.19111783894334
H         3.52092778824904    0.05227153204867    1.57265998342504
H         0.31140250010309    3.02901986033802    2.08892397395605
H        -0.37019091109736    6.59744014756231   -0.18335945191023
H        -2.21074253518854    5.47116401214624   -1.39355236990810
H        -2.76546880521311    3.11712926698900   -0.87407600688769

          :  Hamiltonian                  GFN2-xTB          :
         :: total energy            -122.108615125372 Eh    ::
         :: gradient norm              0.000845083332 Eh/a0 ::
         :: HOMO-LUMO gap              2.417370044317 eV    ::
         :: SCC energy              -123.981096543689 Eh    ::
         :: -> dispersion             -0.098655360579 Eh    ::
         :: repulsion energy           1.868844650285 Eh    ::

    * Orbital Energies and Occupations

         #    Occupation            Energy/Eh            Energy/eV
      -------------------------------------------------------------
         1        2.0000           -0.7883874             -21.4531
       ...           ...                  ...                  ...
        97        2.0000           -0.4361379             -11.8679
        98        2.0000           -0.4334381             -11.7945
        99        2.0000           -0.4326150             -11.7721
       100        2.0000           -0.4319714             -11.7545
       101        2.0000           -0.4245135             -11.5516
       102        2.0000           -0.4223747             -11.4934
       103        2.0000           -0.4170719             -11.3491
       104        2.0000           -0.4108583             -11.1800
       105        2.0000           -0.4100676             -11.1585
       106        2.0000           -0.4037205             -10.9858
       107        2.0000           -0.3974369             -10.8148
       108        2.0000           -0.3855575             -10.4916
       109        2.0000           -0.3778000             -10.2805 (HOMO)
       110                         -0.2889633              -7.8631 (LUMO)
       111                         -0.2879646              -7.8359
       112                         -0.2754039              -7.4941
       113                         -0.2684081              -7.3038
       114                         -0.2624173              -7.1407
       115                         -0.2348245              -6.3899
       116                         -0.2295124              -6.2453
       117                         -0.2280607              -6.2058
       118                         -0.2219197              -6.0387
       119                         -0.2203780              -5.9968
       120                         -0.2161631              -5.8821
       ...                                ...                  ...
       202                          1.1616095              31.6090
      -------------------------------------------------------------
                  HL-Gap            0.0888367 Eh            2.4174 eV

     #   Z          covCN         q      C6AA      Î±(0)
     1   6 C        2.872     0.147    24.794     8.163
     2   8 O        1.705    -0.272    18.514     5.809
     3   6 C        3.644     0.038    20.273     6.472
     4   6 C        2.917    -0.062    29.552     8.914
     5   6 C        2.921    -0.029    28.722     8.789
     6   6 C        2.919    -0.039    28.958     8.824
     7   6 C        2.922    -0.032    28.794     8.800
     8   6 C        2.969    -0.006    28.173     8.706
     9   6 C        3.865     0.046    19.756     6.321
    10   6 C        3.828     0.042    19.855     6.340
    11   6 C        2.971    -0.011    28.290     8.725
    12   6 C        2.925    -0.034    28.854     8.809
    13   6 C        2.917    -0.040    28.999     8.831
    14   6 C        2.921    -0.030    28.745     8.792
    15   6 C        2.918    -0.064    29.586     8.920
    16   6 C        2.868     0.145    24.841     8.170
    17   8 O        1.705    -0.268    18.442     5.798
    18   6 C        3.643     0.037    20.295     6.476
    19   7 N        2.769    -0.119    23.596     7.214
    20   6 C        2.760     0.274    22.375     7.746
    21   6 C        2.975    -0.012    28.305     8.727
    22   6 C        2.921    -0.026    28.663     8.780
    23   6 C        2.918    -0.025    28.624     8.773
    24   6 C        2.926    -0.019    28.476     8.751
    25   6 C        2.974     0.024    27.454     8.595
    26   6 C        1.912     0.114    28.299     8.591
    27   7 N        0.911    -0.220    25.803     7.347
    28   6 C        2.930    -0.014    28.374     8.736
    29   8 O        0.859    -0.407    21.829     6.264
    30   6 C        3.796     0.087    19.143     6.230
    31   6 C        2.687     0.350    21.055     7.509
    32   8 O        1.659    -0.359    20.063     6.047
    33   8 O        0.856    -0.378    21.240     6.179
    34   7 N        2.767    -0.110    23.391     7.183
    35   6 C        2.757     0.277    22.322     7.737
    36   6 C        2.974    -0.014    28.365     8.736
    37   6 C        2.927    -0.029    28.729     8.790
    38   6 C        2.973     0.022    27.514     8.604
    39   6 C        1.912     0.112    28.341     8.597
    40   7 N        0.911    -0.222    25.859     7.355
    41   6 C        2.926    -0.020    28.497     8.754
    42   6 C        2.917    -0.024    28.606     8.771
    43   6 C        2.924    -0.016    28.417     8.742
    44   8 O        0.858    -0.406    21.793     6.259
    45   1 H        0.924     0.047     2.362     2.404
    46   1 H        0.924     0.040     2.455     2.450
    47   1 H        0.925     0.064     2.150     2.293
    48   1 H        0.926     0.040     2.442     2.444
    49   1 H        0.926     0.039     2.465     2.455
    50   1 H        0.926     0.038     2.478     2.462
    51   1 H        0.926     0.053     2.288     2.365
    52   1 H        0.923     0.063     2.169     2.303
    53   1 H        0.924     0.073     2.056     2.243
    54   1 H        0.926     0.037     2.494     2.469
    55   1 H        0.926     0.038     2.478     2.462
    56   1 H        0.926     0.040     2.444     2.445
    57   1 H        0.926     0.042     2.417     2.431
    58   1 H        0.924     0.047     2.355     2.400
    59   1 H        0.924     0.042     2.421     2.433
    60   1 H        0.925     0.063     2.161     2.299
    61   1 H        0.925     0.036     2.503     2.474
    62   1 H        0.926     0.046     2.369     2.407
    63   1 H        0.926     0.053     2.278     2.360
    64   1 H        0.926     0.058     2.217     2.329
    65   1 H        0.923     0.066     2.127     2.281
    66   1 H        0.804     0.348     0.592     1.208
    67   1 H        0.926     0.065     2.141     2.288
    68   1 H        0.926     0.049     2.332     2.388
    69   1 H        0.926     0.049     2.329     2.386
    70   1 H        0.926     0.056     2.245     2.343

Wiberg/Mayer (AO) data.
largest (>0.10) Wiberg bond orders for each atom

     #   Z sym  total        # sym  WBO       # sym  WBO       # sym  WBO
 ---------------------------------------------------------------------------
     1   6 C    3.935 --     4 C    1.389     8 C    1.313     2 O    1.064
     2   8 O    2.234 --     1 C    1.064     3 C    0.982
     3   6 C    3.943 --     2 O    0.982    47 H    0.979    45 H    0.977
                            46 H    0.977
     4   6 C    3.987 --     5 C    1.429     1 C    1.389    48 H    0.965
                             7 C    0.101
     5   6 C    3.991 --     6 C    1.449     4 C    1.429    49 H    0.971
                             8 C    0.106
     6   6 C    3.991 --     5 C    1.449     7 C    1.418    50 H    0.971
     7   6 C    3.989 --     8 C    1.445     6 C    1.418    51 H    0.961
                             4 C    0.101
     8   6 C    3.980 --     7 C    1.445     1 C    1.313     9 C    0.999
                             5 C    0.106
     9   6 C    3.958 --     8 C    0.999    10 C    0.958    52 H    0.944
                            34 N    0.940
    10   6 C    3.958 --    11 C    0.996     9 C    0.958    53 H    0.947
                            19 N    0.945
    11   6 C    3.982 --    12 C    1.436    16 C    1.324    10 C    0.996
                            14 C    0.106
    12   6 C    3.990 --    11 C    1.436    13 C    1.428    54 H    0.965
                            15 C    0.102
    13   6 C    3.991 --    14 C    1.441    12 C    1.428    55 H    0.971
    14   6 C    3.990 --    13 C    1.441    15 C    1.438    56 H    0.971
                            11 C    0.106
    15   6 C    3.987 --    14 C    1.438    16 C    1.379    57 H    0.965
                            12 C    0.102
    16   6 C    3.936 --    15 C    1.379    11 C    1.324    17 O    1.064
    17   8 O    2.238 --    16 C    1.064    18 C    0.981
    18   6 C    3.943 --    17 O    0.981    60 H    0.979    59 H    0.976
                            58 H    0.976
    19   7 N    3.465 --    20 C    1.216    30 C    0.983    10 C    0.945
                            29 O    0.197
    20   6 C    3.949 --    29 O    1.705    19 N    1.216    21 C    0.948
    21   6 C    3.987 --    28 C    1.426    22 C    1.397    20 C    0.948
                            24 C    0.105
    22   6 C    3.967 --    23 C    1.435    21 C    1.397    61 H    0.969
                            25 C    0.100
    23   6 C    3.991 --    24 C    1.450    22 C    1.435    62 H    0.968
                            28 C    0.106
    24   6 C    3.990 --    23 C    1.450    25 C    1.365    63 H    0.969
                            21 C    0.105
    25   6 C    3.990 --    24 C    1.365    28 C    1.363    26 C    1.090
                            22 C    0.100
    26   6 C    3.947 --    27 N    2.812    25 C    1.090
    27   7 N    2.983 --    26 C    2.812
    28   6 C    3.989 --    21 C    1.426    25 C    1.363    64 H    0.967
                            23 C    0.106
    29   8 O    2.033 --    20 C    1.705    19 N    0.197
    30   6 C    3.976 --    34 N    0.997    19 N    0.983    65 H    0.920
                            31 C    0.911
    31   6 C    3.921 --    33 O    1.782    32 O    1.158    30 C    0.911
    32   8 O    2.226 --    31 C    1.158    66 H    0.852    33 O    0.183
    33   8 O    2.070 --    31 C    1.782    32 O    0.183
    34   7 N    3.464 --    35 C    1.205    30 C    0.997     9 C    0.940
                            44 O    0.192
    35   6 C    3.945 --    44 O    1.703    34 N    1.205    36 C    0.958
    36   6 C    3.987 --    37 C    1.414    43 C    1.396    35 C    0.958
                            41 C    0.103
    37   6 C    3.988 --    36 C    1.414    38 C    1.367    67 H    0.962
                            42 C    0.104
    38   6 C    3.990 --    37 C    1.367    41 C    1.361    39 C    1.090
    39   6 C    3.947 --    40 N    2.811    38 C    1.090
    40   7 N    2.982 --    39 C    2.811
    41   6 C    3.990 --    42 C    1.452    38 C    1.361    68 H    0.970
                            36 C    0.103
    42   6 C    3.991 --    41 C    1.452    43 C    1.436    69 H    0.968
                            37 C    0.104
    43   6 C    3.964 --    42 C    1.436    36 C    1.396    70 H    0.968
    44   8 O    2.038 --    35 C    1.703    34 N    0.192
    45   1 H    0.998 --     3 C    0.977
    46   1 H    0.998 --     3 C    0.977
    47   1 H    0.995 --     3 C    0.979
    48   1 H    0.998 --     4 C    0.965
    49   1 H    0.998 --     5 C    0.971
    50   1 H    0.998 --     6 C    0.971
    51   1 H    0.997 --     7 C    0.961
    52   1 H    0.995 --     9 C    0.944
    53   1 H    0.994 --    10 C    0.947
    54   1 H    0.998 --    12 C    0.965
    55   1 H    0.998 --    13 C    0.971
    56   1 H    0.998 --    14 C    0.971
    57   1 H    0.998 --    15 C    0.965
    58   1 H    0.998 --    18 C    0.976
    59   1 H    0.998 --    18 C    0.976
    60   1 H    0.996 --    18 C    0.979
    61   1 H    0.999 --    22 C    0.969
    62   1 H    0.996 --    23 C    0.968
    63   1 H    0.997 --    24 C    0.969
    64   1 H    0.997 --    28 C    0.967
    65   1 H    0.995 --    30 C    0.920
    66   1 H    0.878 --    32 O    0.852
    67   1 H    0.996 --    37 C    0.962
    68   1 H    0.997 --    41 C    0.970
    69   1 H    0.996 --    42 C    0.968
    70   1 H    0.997 --    43 C    0.968
 ---------------------------------------------------------------------------

molecular dipole:
                 x           y           z       tot (Debye)
 q only:       -1.169      -1.035      -0.207
   full:       -1.748      -1.003      -0.416       5.229

           -------------------------------------------------
          | TOTAL ENERGY             -122.108615125372 Eh   |
          | GRADIENT NORM               0.000845083332 Eh/Î± |
          | HOMO-LUMO GAP               2.417370044317 eV   |
           -------------------------------------------------

 * finished run on 2022/03/16 at 22:20:10.762
