   * xtb version 6.3.3 (4ae9cef) compiled by 'conda@95abc7406d43' on 2020-10-14
          program call               : xtb acid_234.xyz --opt --chrg 0 --uhf 0 --gfn 2
          number of atoms            :                    70
          number of electrons        :                   182
          charge                     :                     0
          spin                       :                   0.0

   ID    Z sym.   atoms
    1    6 C      1-14, 16-21, 23, 24, 28-33
    2    7 N      15, 27
    3    8 O      22, 25, 26, 34
    4    1 H      35-70

          :  Hamiltonian                  GFN2-xTB          :
 * total energy  :  -100.4846345 Eh     change       -0.6221370E-09 Eh
 * total energy  :  -100.4942309 Eh     change       -0.9596400E-02 Eh
 * total energy  :  -100.4974096 Eh     change       -0.3178767E-02 Eh
 * total energy  :  -100.4986582 Eh     change       -0.1248532E-02 Eh
 * total energy  :  -100.4993299 Eh     change       -0.6716914E-03 Eh
 * total energy  :  -100.4997724 Eh     change       -0.4425603E-03 Eh
 * total energy  :  -100.5001918 Eh     change       -0.4193427E-03 Eh
 * total energy  :  -100.5005808 Eh     change       -0.3890075E-03 Eh
 * total energy  :  -100.5009607 Eh     change       -0.3799730E-03 Eh
 * total energy  :  -100.5012191 Eh     change       -0.2583645E-03 Eh
 * total energy  :  -100.5032129 Eh     change       -0.1677546E-04 Eh
 * total energy  :  -100.5032094 Eh     change        0.3581779E-05 Eh
 * total energy  :  -100.5032254 Eh     change       -0.1608977E-04 Eh
 * total energy  :  -100.5032465 Eh     change       -0.2110640E-04 Eh
 * total energy  :  -100.5032630 Eh     change       -0.1647134E-04 Eh
 * total energy  :  -100.5032808 Eh     change       -0.1773219E-04 Eh
 * total energy  :  -100.5033012 Eh     change       -0.2044318E-04 Eh
 * total energy  :  -100.5033180 Eh     change       -0.1681164E-04 Eh
 * total energy  :  -100.5033183 Eh     change       -0.2863752E-06 Eh
   *** GEOMETRY OPTIMIZATION CONVERGED AFTER 44 ITERATIONS ***

 final structure:
================
70
 xtb: 6.3.3 (4ae9cef)
C        -0.65602660119675   -2.82602800016140    1.82545408270412
C        -1.15253964178251   -4.11486372637724    1.77080456869868
C        -2.29746250076886   -4.38764973082109    1.04085453915160
C        -2.94604895513254   -3.36214415067711    0.37739168418104
C        -2.44873000470913   -2.07136860470864    0.43159683179962
C        -1.29407311978809   -1.79392616886531    1.14696512912530
C        -0.71917101781533   -0.39779051538128    1.23642535372984
C         0.74669995390199   -0.32061954274684    0.72726583603485
C         1.66296512842196    0.24690465493490    1.78195611346030
C         2.62453251492698   -0.54960419805115    2.38859199234939
C         3.44540970486858   -0.02884955008637    3.37374421431554
C         3.31223594856816    1.29380099648668    3.75961407404526
C         2.35354665822339    2.09366524467977    3.15939280836717
C         1.53079397947218    1.57279920206013    2.17764499084781
N         0.65663773132973    0.53696096348767   -0.44194340365409
C         1.62344276988859    0.82158876533793   -1.35937252815983
C         3.02081103066254    0.37500666049852   -1.00085055528668
C         4.01441145429573    0.72226810246242   -2.10644046336996
C         5.46602446355940    0.49799267109606   -1.68918372906401
C         5.80956028321375   -0.97189733181570   -1.45495241724609
C         7.29256905255471   -1.16042352702678   -1.15813665625806
O         1.33649421390121    1.42896836218617   -2.37100734026494
C        -0.72112333805958    0.77814108809413   -0.80548221202477
C        -1.12862799802487   -0.24360493587251   -1.89058423116508
O        -2.22812513926201    0.13438096937692   -2.53913044318325
O        -0.53664261193201   -1.25988254727887   -2.11178103483214
N        -1.43573088604376    0.56485785391568    0.41898336929067
C        -2.51369258651651    1.23871900496338    0.91403198015733
C        -3.18949205032903    2.19551381687328   -0.04714179341066
C        -4.65190478589661    2.41858272064274    0.34240230244933
C        -5.50562271810833    1.15449009643001    0.22360438227648
C        -5.60541166739723    0.56404172949889   -1.18418267274347
C        -6.25818828723366    1.50822875609657   -2.18750603283345
O        -2.88273374655470    1.05071666724787    2.05277056249497
H         0.22870605944830   -2.61201053964393    2.40808819061306
H        -0.64756553101171   -4.90784798669035    2.30248159530198
H        -2.68591843854612   -5.39412187473993    0.99686139933791
H        -3.84650575961799   -3.56378932277154   -0.18399582473618
H        -2.97712322233622   -1.27785522385031   -0.07565828980166
H        -0.78956159152661   -0.06521404483688    2.28034472746162
H         1.08722286863352   -1.32184972112723    0.43192794368093
H         2.73473651172588   -1.58103734786294    2.08452587870083
H         4.19128381463010   -0.65654949930048    3.83825341037357
H         3.95369638796317    1.70090741083191    4.52671697572691
H         2.24562628916262    3.12539121135045    3.45887169477688
H         0.78283963409970    2.19553459594344    1.70919891886631
H         2.99915547392860   -0.70193908924412   -0.82504328669251
H         3.31365915379678    0.86183462732772   -0.06763088952121
H         3.78597450522367    0.12664273569990   -2.99180195239824
H         3.87274209823675    1.77023792114778   -2.37667618714046
H         5.67328026560375    1.06611877948401   -0.77859978319373
H         6.11692739038437    0.88735173369030   -2.47539163282620
H         5.54131089593754   -1.54899148807441   -2.34272295867662
H         5.22772933506266   -1.35805507923893   -0.61596138865128
H         7.52111932980185   -2.21096982397863   -0.99353189972318
H         7.57639576216145   -0.60350595947701   -0.26754658074944
H         7.89688311596711   -0.80453061281121   -1.98973259765918
H        -0.84469757633387    1.78906854413907   -1.20908365929107
H        -2.45756847547603   -0.50544660035629   -3.23400572788700
H        -3.12236246809330    1.82191441625746   -1.06690667184122
H        -2.65291259712260    3.14788211884521    0.00262879073441
H        -5.06892652789026    3.21194379611410   -0.27913922137971
H        -4.68407494256326    2.74942747740411    1.38184650170726
H        -6.51341045182302    1.39224216800522    0.57245673654364
H        -5.09737580303671    0.39853617877019    0.89744491397675
H        -4.61475395879449    0.28342830451193   -1.54634992619693
H        -6.19943154661538   -0.35149177619658   -1.12276120543739
H        -6.41134745066161    1.00309812532034   -3.13886979172148
H        -5.63531421141150    2.38067946097611   -2.36656418994679
H        -7.22522657014270    1.84399358787229   -1.81932131430936

          :  Hamiltonian                  GFN2-xTB          :
         :: total energy            -100.503318293020 Eh    ::
         :: gradient norm              0.000462434868 Eh/a0 ::
         :: HOMO-LUMO gap              3.606632076822 eV    ::
         :: SCC energy              -101.941804576075 Eh    ::
         :: -> dispersion             -0.081233200028 Eh    ::
         :: repulsion energy           1.436232548318 Eh    ::

    * Orbital Energies and Occupations

         #    Occupation            Energy/Eh            Energy/eV
      -------------------------------------------------------------
         1        2.0000           -0.7696876             -20.9443
       ...           ...                  ...                  ...
        79        2.0000           -0.4259949             -11.5919
        80        2.0000           -0.4249027             -11.5622
        81        2.0000           -0.4237543             -11.5309
        82        2.0000           -0.4224541             -11.4956
        83        2.0000           -0.4210988             -11.4587
        84        2.0000           -0.4195222             -11.4158
        85        2.0000           -0.4171253             -11.3506
        86        2.0000           -0.4112374             -11.1903
        87        2.0000           -0.4085782             -11.1180
        88        2.0000           -0.4043474             -11.0029
        89        2.0000           -0.4003185             -10.8932
        90        2.0000           -0.3959080             -10.7732
        91        2.0000           -0.3925200             -10.6810 (HOMO)
        92                         -0.2599787              -7.0744 (LUMO)
        93                         -0.2420993              -6.5879
        94                         -0.2376403              -6.4665
        95                         -0.2298909              -6.2557
        96                         -0.2285057              -6.2180
        97                         -0.2155756              -5.8661
        98                         -0.2121578              -5.7731
        99                         -0.1129153              -3.0726
       100                         -0.1001463              -2.7251
       101                         -0.0292401              -0.7957
       102                         -0.0160451              -0.4366
       ...                                ...                  ...
       172                          0.6589868              17.9319
      -------------------------------------------------------------
                  HL-Gap            0.1325413 Eh            3.6066 eV

     #   Z          covCN         q      C6AA      Î±(0)
     1   6 C        2.926    -0.036    28.897     8.816
     2   6 C        2.920    -0.026    28.659     8.779
     3   6 C        2.920    -0.029    28.720     8.788
     4   6 C        2.920    -0.026    28.642     8.776
     5   6 C        2.923    -0.027    28.679     8.782
     6   6 C        2.971     0.006    27.885     8.662
     7   6 C        3.835     0.041    19.859     6.340
     8   6 C        3.817     0.036    19.962     6.359
     9   6 C        2.973     0.000    28.016     8.682
    10   6 C        2.923    -0.036    28.889     8.814
    11   6 C        2.919    -0.027    28.683     8.783
    12   6 C        2.920    -0.029    28.720     8.788
    13   6 C        2.919    -0.026    28.658     8.779
    14   6 C        2.924    -0.031    28.782     8.798
    15   7 N        2.768    -0.122    23.653     7.223
    16   6 C        2.762     0.272    22.397     7.750
    17   6 C        3.806    -0.083    22.079     6.689
    18   6 C        3.804    -0.056    21.572     6.612
    19   6 C        3.803    -0.061    21.676     6.628
    20   6 C        3.800    -0.054    21.542     6.608
    21   6 C        3.752    -0.103    22.526     6.768
    22   8 O        0.860    -0.440    22.488     6.358
    23   6 C        3.779     0.094    19.054     6.219
    24   6 C        2.689     0.359    20.909     7.484
    25   8 O        1.659    -0.365    20.190     6.066
    26   8 O        0.856    -0.380    21.294     6.187
    27   7 N        2.764    -0.119    23.592     7.214
    28   6 C        2.756     0.273    22.381     7.747
    29   6 C        3.805    -0.090    22.209     6.709
    30   6 C        3.803    -0.053    21.524     6.605
    31   6 C        3.801    -0.060    21.652     6.625
    32   6 C        3.799    -0.053    21.525     6.606
    33   6 C        3.751    -0.103    22.526     6.768
    34   8 O        0.859    -0.423    22.147     6.310
    35   1 H        0.926     0.031     2.572     2.508
    36   1 H        0.926     0.037     2.491     2.468
    37   1 H        0.926     0.037     2.492     2.469
    38   1 H        0.926     0.036     2.504     2.474
    39   1 H        0.926     0.028     2.615     2.529
    40   1 H        0.924     0.080     1.982     2.202
    41   1 H        0.923     0.055     2.264     2.353
    42   1 H        0.926     0.032     2.556     2.500
    43   1 H        0.926     0.039     2.464     2.455
    44   1 H        0.926     0.038     2.470     2.458
    45   1 H        0.926     0.040     2.453     2.449
    46   1 H        0.926     0.037     2.492     2.468
    47   1 H        0.924     0.053     2.281     2.362
    48   1 H        0.924     0.054     2.269     2.356
    49   1 H        0.924     0.046     2.372     2.408
    50   1 H        0.924     0.051     2.305     2.374
    51   1 H        0.924     0.030     2.587     2.515
    52   1 H        0.924     0.036     2.503     2.474
    53   1 H        0.924     0.032     2.556     2.500
    54   1 H        0.924     0.027     2.624     2.533
    55   1 H        0.925     0.033     2.540     2.492
    56   1 H        0.925     0.033     2.548     2.496
    57   1 H        0.925     0.034     2.526     2.486
    58   1 H        0.924     0.086     1.914     2.164
    59   1 H        0.804     0.343     0.606     1.223
    60   1 H        0.925     0.059     2.211     2.326
    61   1 H        0.924     0.052     2.296     2.370
    62   1 H        0.924     0.038     2.481     2.463
    63   1 H        0.924     0.053     2.288     2.365
    64   1 H        0.924     0.034     2.530     2.487
    65   1 H        0.924     0.040     2.445     2.445
    66   1 H        0.924     0.027     2.629     2.536
    67   1 H        0.924     0.027     2.632     2.537
    68   1 H        0.925     0.030     2.593     2.518
    69   1 H        0.925     0.035     2.511     2.478
    70   1 H        0.925     0.035     2.518     2.482

Wiberg/Mayer (AO) data.
largest (>0.10) Wiberg bond orders for each atom

     #   Z sym  total        # sym  WBO       # sym  WBO       # sym  WBO
 ---------------------------------------------------------------------------
     1   6 C    3.991 --     2 C    1.452     6 C    1.404    35 H    0.969
                             4 C    0.113
     2   6 C    3.992 --     1 C    1.452     3 C    1.432    36 H    0.971
                             5 C    0.110
     3   6 C    3.992 --     4 C    1.445     2 C    1.432    37 H    0.971
                             6 C    0.110
     4   6 C    3.992 --     3 C    1.445     5 C    1.437    38 H    0.971
                             1 C    0.113
     5   6 C    3.991 --     4 C    1.437     6 C    1.422    39 H    0.965
                             2 C    0.110
     6   6 C    3.986 --     5 C    1.422     1 C    1.404     7 C    0.986
                             3 C    0.110
     7   6 C    3.964 --     6 C    0.986    27 N    0.970     8 C    0.950
                            40 H    0.943
     8   6 C    3.967 --     9 C    0.990    15 N    0.967    41 H    0.952
                             7 C    0.950
     9   6 C    3.986 --    10 C    1.414    14 C    1.407     8 C    0.990
                            12 C    0.110
    10   6 C    3.990 --    11 C    1.442     9 C    1.414    42 H    0.968
                            13 C    0.110
    11   6 C    3.992 --    10 C    1.442    12 C    1.441    43 H    0.971
                            14 C    0.112
    12   6 C    3.990 --    11 C    1.441    13 C    1.435    44 H    0.971
                             9 C    0.110
    13   6 C    3.992 --    14 C    1.449    12 C    1.435    45 H    0.971
                            10 C    0.110
    14   6 C    3.992 --    13 C    1.449     9 C    1.407    46 H    0.969
                            11 C    0.112
    15   7 N    3.444 --    16 C    1.198    23 C    0.981     8 C    0.967
                            22 O    0.178
    16   6 C    3.942 --    22 O    1.690    15 N    1.198    17 C    0.978
    17   6 C    3.995 --    18 C    1.007    16 C    0.978    47 H    0.954
                            48 H    0.952
    18   6 C    3.993 --    19 C    1.008    17 C    1.007    49 H    0.976
                            50 H    0.974
    19   6 C    3.996 --    20 C    1.008    18 C    1.008    51 H    0.977
                            52 H    0.976
    20   6 C    3.998 --    21 C    1.019    19 C    1.008    53 H    0.978
                            54 H    0.977
    21   6 C    3.997 --    20 C    1.019    56 H    0.988    57 H    0.988
                            55 H    0.988
    22   8 O    2.000 --    16 C    1.690    15 N    0.178
    23   6 C    3.970 --    27 N    0.990    15 N    0.981    58 H    0.943
                            24 C    0.904
    24   6 C    3.916 --    26 O    1.794    25 O    1.147    23 C    0.904
    25   8 O    2.215 --    24 C    1.147    59 H    0.855    26 O    0.180
    26   8 O    2.068 --    24 C    1.794    25 O    0.180
    27   7 N    3.458 --    28 C    1.190    23 C    0.990     7 C    0.970
                            34 O    0.180
    28   6 C    3.941 --    34 O    1.703    27 N    1.190    29 C    0.972
    29   6 C    3.995 --    30 C    1.002    28 C    0.972    60 H    0.962
                            61 H    0.951
    30   6 C    3.994 --    31 C    1.008    29 C    1.002    62 H    0.975
                            63 H    0.975
    31   6 C    3.996 --    30 C    1.008    32 C    1.008    64 H    0.977
                            65 H    0.976
    32   6 C    3.998 --    33 C    1.020    31 C    1.008    67 H    0.978
                            66 H    0.973
    33   6 C    3.997 --    32 C    1.020    68 H    0.988    70 H    0.988
                            69 H    0.986
    34   8 O    2.018 --    28 C    1.703    27 N    0.180
    35   1 H    0.999 --     1 C    0.969
    36   1 H    0.998 --     2 C    0.971
    37   1 H    0.998 --     3 C    0.971
    38   1 H    0.998 --     4 C    0.971
    39   1 H    0.999 --     5 C    0.965
    40   1 H    0.993 --     7 C    0.943
    41   1 H    0.996 --     8 C    0.952
    42   1 H    0.999 --    10 C    0.968
    43   1 H    0.998 --    11 C    0.971
    44   1 H    0.998 --    12 C    0.971
    45   1 H    0.998 --    13 C    0.971
    46   1 H    0.999 --    14 C    0.969
    47   1 H    0.997 --    17 C    0.954
    48   1 H    0.997 --    17 C    0.952
    49   1 H    0.998 --    18 C    0.976
    50   1 H    0.997 --    18 C    0.974
    51   1 H    0.999 --    19 C    0.977
    52   1 H    0.998 --    19 C    0.976
    53   1 H    0.999 --    20 C    0.978
    54   1 H    0.999 --    20 C    0.977
    55   1 H    0.999 --    21 C    0.988
    56   1 H    0.999 --    21 C    0.988
    57   1 H    0.999 --    21 C    0.988
    58   1 H    0.992 --    23 C    0.943
    59   1 H    0.882 --    25 O    0.855
    60   1 H    0.996 --    29 C    0.962
    61   1 H    0.997 --    29 C    0.951
    62   1 H    0.998 --    30 C    0.975
    63   1 H    0.997 --    30 C    0.975
    64   1 H    0.999 --    31 C    0.977
    65   1 H    0.998 --    31 C    0.976
    66   1 H    0.999 --    32 C    0.973
    67   1 H    0.999 --    32 C    0.978
    68   1 H    0.999 --    33 C    0.988
    69   1 H    0.999 --    33 C    0.986
    70   1 H    0.999 --    33 C    0.988
 ---------------------------------------------------------------------------

molecular dipole:
                 x           y           z       tot (Debye)
 q only:        0.286      -0.389       0.326
   full:        0.299      -0.423       0.135       1.362

           -------------------------------------------------
          | TOTAL ENERGY             -100.503318293020 Eh   |
          | GRADIENT NORM               0.000462434868 Eh/Î± |
          | HOMO-LUMO GAP               3.606632076822 eV   |
           -------------------------------------------------

 * finished run on 2022/03/16 at 22:47:22.093
