   * xtb version 6.3.3 (4ae9cef) compiled by 'conda@95abc7406d43' on 2020-10-14
          program call               : xtb acid_6.xyz --opt --chrg 0 --uhf 0 --gfn 2
          number of atoms            :                    54
          number of electrons        :                   182
          charge                     :                     0
          spin                       :                   0.0

   ID    Z sym.   atoms
    1    6 C      1-14, 16-18, 21, 22, 24, 25, 29-31, 34, 35
    2    7 N      15, 28
    3   35 Br     19, 32
    4   16 S      20, 33
    5    8 O      23, 26, 27, 36
    6    1 H      37-54

          :  Hamiltonian                  GFN2-xTB          :
 * total energy  :  -101.6253551 Eh     change       -0.1830927E-08 Eh
 * total energy  :  -101.6383016 Eh     change       -0.1294654E-01 Eh
 * total energy  :  -101.6424736 Eh     change       -0.4172037E-02 Eh
 * total energy  :  -101.6438469 Eh     change       -0.1373249E-02 Eh
 * total energy  :  -101.6448163 Eh     change       -0.9693884E-03 Eh
 * total energy  :  -101.6455696 Eh     change       -0.7533584E-03 Eh
 * total energy  :  -101.6463550 Eh     change       -0.7853754E-03 Eh
 * total energy  :  -101.6470828 Eh     change       -0.7277547E-03 Eh
 * total energy  :  -101.6477076 Eh     change       -0.6247826E-03 Eh
 * total energy  :  -101.6481920 Eh     change       -0.4844407E-03 Eh
 * total energy  :  -101.6509779 Eh     change       -0.3788153E-04 Eh
 * total energy  :  -101.6509424 Eh     change        0.3552357E-04 Eh
 * total energy  :  -101.6509855 Eh     change       -0.4310932E-04 Eh
 * total energy  :  -101.6510036 Eh     change       -0.1809827E-04 Eh
 * total energy  :  -101.6510146 Eh     change       -0.1099287E-04 Eh
 * total energy  :  -101.6510257 Eh     change       -0.1105703E-04 Eh
 * total energy  :  -101.6510345 Eh     change       -0.8868898E-05 Eh
 * total energy  :  -101.6510413 Eh     change       -0.6721941E-05 Eh
 * total energy  :  -101.6510459 Eh     change       -0.4610880E-05 Eh
   *** GEOMETRY OPTIMIZATION CONVERGED AFTER 41 ITERATIONS ***

 final structure:
================
54
 xtb: 6.3.3 (4ae9cef)
C         1.31561227773427    2.04065343623933   -1.70237622513151
C         1.78614781334905    3.30635616398048   -2.00069808130946
C         2.19920960757957    4.15018175705879   -0.98337881568254
C         2.12807469261070    3.72979024093194    0.33390760377359
C         1.65762217667079    2.46337309402833    0.63436095769741
C         1.26090663502544    1.60695720072972   -0.38318236002638
C         0.76639390138616    0.21719846808360   -0.06934433108470
C        -0.74914950392490    0.06914357713365   -0.34816907797994
C        -1.53275689328303   -0.05596795147907    0.93377536340935
C        -1.38960643581652   -1.19122567922614    1.72471084611603
C        -2.11563630420746   -1.31408481405086    2.89517687526223
C        -2.98150221212350   -0.30641129671231    3.28748613760419
C        -3.11318080006500    0.83160843077411    2.51062025615135
C        -2.38843720696350    0.95874367556294    1.33827260190724
N        -0.85212279703518   -1.12255545880046   -1.17642279703508
C        -1.91805798038825   -1.94953586124173   -1.29001338199578
C        -3.23135290104855   -1.40242077150453   -0.85812950844519
C        -3.84386056166898   -0.29133375374324   -1.36082076530412
Br       -3.20905711944185    0.85053282018033   -2.70489673798520
S        -5.39609554479833   -0.00529932877258   -0.65218617788039
C        -5.22302880752961   -1.40945270999892    0.32204459622875
C        -4.05192267789357   -2.05266730210290    0.10051220883859
O        -1.80379537923744   -3.07127268517716   -1.74468838163578
C         0.43455370270906   -1.62486994801110   -1.59947430256291
C         0.61536992483475   -3.09551372827914   -1.15734082830091
O         0.89327707652038   -3.88807805492081   -2.16642574321067
O         0.56768281210014   -3.42079295829122   -0.00014954103358
N         1.38727097231530   -0.78186026586848   -0.91967487765280
C         2.71254825865949   -1.03080965646973   -1.03756619237057
C         3.58718432659494   -0.11917470027298   -0.24141124227092
C         4.41638412230065    0.81137679363756   -0.79464965349242
Br        4.58696265846112    1.22573702971598   -2.60937365438405
S         5.32798440306867    1.68090999224667    0.39110115155326
C         4.61013026112659    0.74858580916770    1.64295968053691
C         3.71819514973558   -0.15727006141961    1.17034178432133
O         3.14459042074411   -1.91771353007827   -1.74073582493602
H         1.00447218700733    1.37961708215640   -2.49794948910040
H         1.83986854098505    3.62773384905634   -3.02921520228651
H         2.57749891957008    5.13342946344430   -1.21765902207100
H         2.44561834458401    4.38585067212985    1.13042431494738
H         1.60626215668269    2.13283042974406    1.66213227061419
H         0.96548905967666   -0.01420111887261    0.98561884753386
H        -1.09291335421089    0.94556008962967   -0.91332261882963
H        -0.72549555379543   -1.98564678066306    1.41349571935018
H        -2.00623139529004   -2.20087397366746    3.50114873897753
H        -3.55169178635321   -0.40771181351678    4.19868292427430
H        -3.78389671823599    1.62149401565277    2.81381901438323
H        -2.49188311225410    1.84646937149963    0.73029436690474
H        -6.00939569571141   -1.67763483990190    0.99827168780260
H        -3.75155543630833   -2.95689074085326    0.59601837530215
H         0.55627773213335   -1.57667761339525   -2.69272443351782
H         1.01697500019710   -4.80521602993067   -1.87382981231942
H         4.90116652351203    0.92202720114646    2.65958337428619
H         3.18289951971685   -0.85299623670444    1.79105038206059

          :  Hamiltonian                  GFN2-xTB          :
         :: total energy            -101.651045882667 Eh    ::
         :: gradient norm              0.000841349285 Eh/a0 ::
         :: HOMO-LUMO gap              3.192722867595 eV    ::
         :: SCC energy              -102.987517550630 Eh    ::
         :: -> dispersion             -0.096560829625 Eh    ::
         :: repulsion energy           1.333256008033 Eh    ::

    * Orbital Energies and Occupations

         #    Occupation            Energy/Eh            Energy/eV
      -------------------------------------------------------------
         1        2.0000           -0.8610541             -23.4305
       ...           ...                  ...                  ...
        79        2.0000           -0.4348688             -11.8334
        80        2.0000           -0.4315130             -11.7421
        81        2.0000           -0.4284765             -11.6594
        82        2.0000           -0.4252278             -11.5710
        83        2.0000           -0.4232810             -11.5181
        84        2.0000           -0.4223549             -11.4929
        85        2.0000           -0.4216703             -11.4742
        86        2.0000           -0.4201490             -11.4328
        87        2.0000           -0.4167859             -11.3413
        88        2.0000           -0.4135466             -11.2532
        89        2.0000           -0.4104172             -11.1680
        90        2.0000           -0.4031649             -10.9707
        91        2.0000           -0.4021809             -10.9439 (HOMO)
        92                         -0.2848505              -7.7512 (LUMO)
        93                         -0.2769523              -7.5363
        94                         -0.2557922              -6.9605
        95                         -0.2536051              -6.9009
        96                         -0.2480864              -6.7508
        97                         -0.2454420              -6.6788
        98                         -0.2452294              -6.6730
        99                         -0.2431768              -6.6172
       100                         -0.2427515              -6.6056
       101                         -0.2350064              -6.3949
       102                         -0.2262358              -6.1562
       ...                                ...                  ...
       182                          0.6650236              18.0962
      -------------------------------------------------------------
                  HL-Gap            0.1173304 Eh            3.1927 eV

     #   Z          covCN         q      C6AA      Î±(0)
     1   6 C        2.924    -0.031    28.772     8.796
     2   6 C        2.919    -0.023    28.568     8.765
     3   6 C        2.920    -0.026    28.654     8.778
     4   6 C        2.920    -0.027    28.672     8.781
     5   6 C        2.923    -0.037    28.921     8.819
     6   6 C        2.974    -0.007    28.179     8.707
     7   6 C        3.815     0.042    19.859     6.343
     8   6 C        3.815     0.039    19.912     6.351
     9   6 C        2.974    -0.005    28.147     8.703
    10   6 C        2.922    -0.038    28.939     8.822
    11   6 C        2.920    -0.027    28.674     8.781
    12   6 C        2.920    -0.030    28.743     8.792
    13   6 C        2.920    -0.028    28.710     8.787
    14   6 C        2.922    -0.037    28.930     8.820
    15   7 N        2.761    -0.109    23.382     7.182
    16   6 C        2.768     0.281    22.242     7.724
    17   6 C        3.188    -0.030    28.267     8.674
    18   6 C        2.940     0.070    26.428     8.431
    19  35 Br       1.139    -0.121   188.395    22.131
    20  16 S        2.454     0.034   139.657    19.890
    21   6 C        2.937    -0.026    28.663     8.780
    22   6 C        3.122    -0.036    28.720     8.777
    23   8 O        0.860    -0.419    22.072     6.299
    24   6 C        3.770     0.104    18.906     6.196
    25   6 C        2.689     0.378    20.599     7.428
    26   8 O        1.660    -0.329    19.520     5.964
    27   8 O        0.856    -0.412    21.924     6.278
    28   7 N        2.765    -0.110    23.401     7.185
    29   6 C        2.763     0.280    22.268     7.728
    30   6 C        3.197    -0.035    28.305     8.672
    31   6 C        2.940     0.078    26.258     8.404
    32  35 Br       1.140    -0.110   188.075    22.112
    33  16 S        2.449     0.031   139.808    19.901
    34   6 C        2.938    -0.027    28.684     8.784
    35   6 C        3.117    -0.045    28.931     8.810
    36   8 O        0.859    -0.416    21.993     6.288
    37   1 H        0.926     0.042     2.421     2.433
    38   1 H        0.926     0.050     2.318     2.381
    39   1 H        0.926     0.044     2.398     2.422
    40   1 H        0.926     0.039     2.456     2.451
    41   1 H        0.926     0.027     2.623     2.533
    42   1 H        0.923     0.052     2.298     2.371
    43   1 H        0.923     0.062     2.176     2.307
    44   1 H        0.926     0.060     2.203     2.321
    45   1 H        0.926     0.043     2.414     2.429
    46   1 H        0.926     0.039     2.460     2.453
    47   1 H        0.926     0.040     2.452     2.449
    48   1 H        0.926     0.034     2.529     2.487
    49   1 H        0.926     0.063     2.160     2.298
    50   1 H        0.926     0.065     2.137     2.286
    51   1 H        0.923     0.080     1.980     2.200
    52   1 H        0.804     0.348     0.594     1.210
    53   1 H        0.926     0.063     2.167     2.302
    54   1 H        0.926     0.054     2.269     2.355

Wiberg/Mayer (AO) data.
largest (>0.10) Wiberg bond orders for each atom

     #   Z sym  total        # sym  WBO       # sym  WBO       # sym  WBO
 ---------------------------------------------------------------------------
     1   6 C    3.991 --     2 C    1.446     6 C    1.410    37 H    0.968
                             4 C    0.111
     2   6 C    3.991 --     1 C    1.446     3 C    1.437    38 H    0.969
                             5 C    0.110
     3   6 C    3.990 --     4 C    1.440     2 C    1.437    39 H    0.971
                             6 C    0.109
     4   6 C    3.992 --     5 C    1.442     3 C    1.440    40 H    0.970
                             1 C    0.111
     5   6 C    3.991 --     4 C    1.442     6 C    1.414    41 H    0.969
                             2 C    0.110
     6   6 C    3.984 --     5 C    1.414     1 C    1.410     7 C    0.987
                             3 C    0.109
     7   6 C    3.964 --     6 C    0.987    28 N    0.963    42 H    0.952
                             8 C    0.951
     8   6 C    3.962 --     9 C    0.990    15 N    0.960     7 C    0.951
                            43 H    0.948
     9   6 C    3.985 --    14 C    1.417    10 C    1.406     8 C    0.990
                            12 C    0.109
    10   6 C    3.989 --    11 C    1.449     9 C    1.406    44 H    0.962
                            13 C    0.112
    11   6 C    3.992 --    10 C    1.449    12 C    1.435    45 H    0.970
                            14 C    0.109
    12   6 C    3.990 --    13 C    1.441    11 C    1.435    46 H    0.971
                             9 C    0.109
    13   6 C    3.992 --    12 C    1.441    14 C    1.440    47 H    0.970
                            10 C    0.112
    14   6 C    3.990 --    13 C    1.440     9 C    1.417    48 H    0.968
                            11 C    0.109
    15   7 N    3.473 --    16 C    1.224    24 C    0.979     8 C    0.960
                            23 O    0.191
    16   6 C    3.952 --    23 O    1.664    15 N    1.224    17 C    0.970
    17   6 C    3.981 --    18 C    1.533    22 C    1.231    16 C    0.970
    18   6 C    3.906 --    17 C    1.533    20 S    1.172    19 Br   1.018
                            21 C    0.102
    19  35 Br   1.184 --    18 C    1.018
    20  16 S    2.647 --    21 C    1.187    18 C    1.172
    21   6 C    3.949 --    22 C    1.641    20 S    1.187    49 H    0.968
                            18 C    0.102
    22   6 C    3.985 --    21 C    1.641    17 C    1.231    50 H    0.960
    23   8 O    2.044 --    16 C    1.664    15 N    0.191
    24   6 C    3.957 --    15 N    0.979    28 N    0.978    51 H    0.944
                            25 C    0.903
    25   6 C    3.923 --    27 O    1.741    26 O    1.194    24 C    0.903
    26   8 O    2.259 --    25 C    1.194    52 H    0.853    27 O    0.182
    27   8 O    2.035 --    25 C    1.741    26 O    0.182
    28   7 N    3.476 --    29 C    1.219    24 C    0.978     7 C    0.963
                            36 O    0.197
    29   6 C    3.952 --    36 O    1.689    28 N    1.219    30 C    0.954
    30   6 C    3.981 --    31 C    1.542    35 C    1.236    29 C    0.954
    31   6 C    3.911 --    30 C    1.542    33 S    1.169    32 Br   1.026
                            34 C    0.103
    32  35 Br   1.187 --    31 C    1.026
    33  16 S    2.645 --    34 C    1.192    31 C    1.169
    34   6 C    3.948 --    35 C    1.631    33 S    1.192    53 H    0.968
                            31 C    0.103
    35   6 C    3.985 --    34 C    1.631    30 C    1.236    54 H    0.961
    36   8 O    2.032 --    29 C    1.689    28 N    0.197
    37   1 H    0.998 --     1 C    0.968
    38   1 H    0.997 --     2 C    0.969
    39   1 H    0.998 --     3 C    0.971
    40   1 H    0.998 --     4 C    0.970
    41   1 H    0.999 --     5 C    0.969
    42   1 H    0.997 --     7 C    0.952
    43   1 H    0.996 --     8 C    0.948
    44   1 H    0.996 --    10 C    0.962
    45   1 H    0.998 --    11 C    0.970
    46   1 H    0.998 --    12 C    0.971
    47   1 H    0.998 --    13 C    0.970
    48   1 H    0.999 --    14 C    0.968
    49   1 H    0.995 --    21 C    0.968
    50   1 H    0.996 --    22 C    0.960
    51   1 H    0.993 --    24 C    0.944
    52   1 H    0.878 --    26 O    0.853
    53   1 H    0.995 --    34 C    0.968
    54   1 H    0.997 --    35 C    0.961
 ---------------------------------------------------------------------------

molecular dipole:
                 x           y           z       tot (Debye)
 q only:       -0.935       1.836       1.950
   full:       -1.291       0.933       2.818       8.229

           -------------------------------------------------
          | TOTAL ENERGY             -101.651045882667 Eh   |
          | GRADIENT NORM               0.000841349285 Eh/Î± |
          | HOMO-LUMO GAP               3.192722867595 eV   |
           -------------------------------------------------

 * finished run on 2022/03/17 at 01:53:07.921
