   * xtb version 6.3.3 (4ae9cef) compiled by 'conda@95abc7406d43' on 2020-10-14
          program call               : xtb acid_419.xyz --opt --chrg 0 --uhf 0 --gfn 2
          number of atoms            :                    62
          number of electrons        :                   206
          charge                     :                     0
          spin                       :                   0.0

   ID    Z sym.   atoms
    1    6 C      1, 3-16, 18, 20-22, 25, 26, 28, 29, 33-35, 38, 39
    2    8 O      2, 17, 24, 27, 30, 31, 37, 40
    3    7 N      19, 32
    4   35 Br     23, 36
    5    1 H      41-62

          :  Hamiltonian                  GFN2-xTB          :
 * total energy  :  -117.7115641 Eh     change       -0.2644015E-08 Eh
 * total energy  :  -117.7289879 Eh     change       -0.1742376E-01 Eh
 * total energy  :  -117.7342100 Eh     change       -0.5222121E-02 Eh
 * total energy  :  -117.7359342 Eh     change       -0.1724158E-02 Eh
 * total energy  :  -117.7372140 Eh     change       -0.1279821E-02 Eh
 * total energy  :  -117.7382219 Eh     change       -0.1007882E-02 Eh
 * total energy  :  -117.7390068 Eh     change       -0.7848954E-03 Eh
 * total energy  :  -117.7398156 Eh     change       -0.8088881E-03 Eh
 * total energy  :  -117.7406068 Eh     change       -0.7911586E-03 Eh
 * total energy  :  -117.7415240 Eh     change       -0.9171870E-03 Eh
 * total energy  :  -117.7610844 Eh     change       -0.5613251E-05 Eh
 * total energy  :  -117.7610907 Eh     change       -0.6300397E-05 Eh
 * total energy  :  -117.7610973 Eh     change       -0.6540393E-05 Eh
 * total energy  :  -117.7611053 Eh     change       -0.8039175E-05 Eh
 * total energy  :  -117.7611148 Eh     change       -0.9544598E-05 Eh
 * total energy  :  -117.7611238 Eh     change       -0.8905452E-05 Eh
 * total energy  :  -117.7611318 Eh     change       -0.8039214E-05 Eh
 * total energy  :  -117.7611376 Eh     change       -0.5798494E-05 Eh
 * total energy  :  -117.7611422 Eh     change       -0.4612827E-05 Eh
   *** GEOMETRY OPTIMIZATION CONVERGED AFTER 111 ITERATIONS ***

 final structure:
================
62
 xtb: 6.3.3 (4ae9cef)
C        -2.82109673871560   -0.20897433886247   -1.24539209053526
O        -2.02621148642107    0.87328578319203   -1.49261861361784
C        -2.40455557715369    1.76710995755924   -2.51665744584571
C        -4.03434333950196   -0.45172565637431   -1.87517856578442
C        -4.76603143854827   -1.58552480590608   -1.56629952619618
C        -4.30036863115647   -2.48956424387222   -0.63147343840976
C        -3.09761529657325   -2.24672919080114    0.00836451258073
C        -2.35307812096499   -1.11790464701554   -0.28306336910423
C        -1.02363638646920   -0.89564814614017    0.38711330414177
C         0.13713555984074   -1.05401233761603   -0.62047580110190
C         0.87111428795645   -2.35742246843730   -0.43005970676072
C         0.47146315582990   -3.44726143851835   -1.18745106068647
C         1.07940128396847   -4.68142975002876   -1.04808274554836
C         2.11264638666002   -4.82724102352138   -0.14257879574564
C         2.52639373986775   -3.75324364400525    0.62490236773260
C         1.90861932879013   -2.51356867651797    0.49930444121771
O         2.25029104847958   -1.42028415188765    1.24719260309643
C         3.41242492882271   -1.49049992673837    2.04389924092450
N         0.95016564744191    0.13739398741789   -0.44253105432247
C         2.05228591385892    0.30546264502288   -1.21129209066563
C         2.87613004356123    1.51710764025884   -0.96380735533410
C         2.60105076213369    2.84594070680385   -1.11895675356278
Br        1.05821272874393    3.74576862649117   -1.64704111754599
O         3.67195928701178    3.61221291012249   -0.87416024751480
C         4.67306656006176    2.77474689549938   -0.55238430293046
C         4.25393350785274    1.48476800854369   -0.60299340054592
O         2.37384023637617   -0.51117681151174   -2.04965719227482
C         0.43415349931235    1.00068976512699    0.59041249670861
C         1.36390207573103    1.01533498103620    1.84305983499115
O         0.87589025039455    0.41877377987661    2.92044058648636
O         2.42125879572894    1.57879815359327    1.84279414232514
N        -0.85685712534484    0.45914224529291    0.91726388652287
C        -1.93709193558958    1.18117042568992    1.34261509471741
C        -1.76365343610282    2.64438896112383    1.48216135142147
C        -2.74906080262332    3.53279280227584    1.12968847352143
Br       -4.40102793516804    3.25398989157511    0.34175254483956
O        -2.39144438934699    4.79409536851248    1.37915277085304
C        -1.16630044802746    4.74555077189323    1.93099226742330
C        -0.72681943418352    3.46261711195393    2.02080331664561
O        -2.99383694220069    0.64996668572559    1.61057124282065
H        -2.45408638303553    1.25946765589902   -3.48447258526515
H        -3.36543073476025    2.24166611776834   -2.30200536399555
H        -1.62435747853632    2.52659774524697   -2.54615074116118
H        -4.42213413428286    0.24295606143117   -2.60208824862688
H        -5.70875754980787   -1.75508807749906   -2.06398451291699
H        -4.87033616112959   -3.37392419916348   -0.39362350059932
H        -2.72831654159140   -2.94304693755076    0.74682873448935
H        -0.91240277798846   -1.62676872553057    1.20008511522780
H        -0.25215824108240   -1.03879002948579   -1.64580926840387
H        -0.33025977073921   -3.31844893106076   -1.89935451919930
H         0.75427145596055   -5.51676533249090   -1.64796811333703
H         2.60675088589606   -5.78009266924706   -0.02671269210921
H         3.33286346639679   -3.89218514947357    1.32668054277204
H         3.27845190171489   -2.17917444760237    2.88364145896781
H         4.28028600823097   -1.79387680597425    1.45223984741842
H         3.57082365535946   -0.48306087114979    2.42523189806891
H         5.61834147455627    3.21719793903552   -0.31183312233217
H         4.82269486454179    0.60166998555292   -0.40383995754769
H         0.34713933889133    2.03397486722662    0.23038585186752
H         0.01197063391685    0.00802056193476    2.74071466936542
H        -0.71871140141499    5.67668056230102    2.21334456029839
H         0.20105192455589    3.14409483296329    2.44835814208399

          :  Hamiltonian                  GFN2-xTB          :
         :: total energy            -117.761142204862 Eh    ::
         :: gradient norm              0.000229102207 Eh/a0 ::
         :: HOMO-LUMO gap              3.114865825094 eV    ::
         :: SCC energy              -119.185167531703 Eh    ::
         :: -> dispersion             -0.099469868454 Eh    ::
         :: repulsion energy           1.420091794563 Eh    ::

    * Orbital Energies and Occupations

         #    Occupation            Energy/Eh            Energy/eV
      -------------------------------------------------------------
         1        2.0000           -0.8636629             -23.5015
       ...           ...                  ...                  ...
        91        2.0000           -0.4394707             -11.9586
        92        2.0000           -0.4352363             -11.8434
        93        2.0000           -0.4331787             -11.7874
        94        2.0000           -0.4270675             -11.6211
        95        2.0000           -0.4198315             -11.4242
        96        2.0000           -0.4158445             -11.3157
        97        2.0000           -0.4116919             -11.2027
        98        2.0000           -0.4104574             -11.1691
        99        2.0000           -0.4087931             -11.1238
       100        2.0000           -0.4068023             -11.0697
       101        2.0000           -0.4012063             -10.9174
       102        2.0000           -0.3921804             -10.6718
       103        2.0000           -0.3851859             -10.4814 (HOMO)
       104                         -0.2707167              -7.3666 (LUMO)
       105                         -0.2669922              -7.2652
       106                         -0.2536762              -6.9029
       107                         -0.2400029              -6.5308
       108                         -0.2393330              -6.5126
       109                         -0.2339357              -6.3657
       110                         -0.2308305              -6.2812
       111                         -0.2260472              -6.1511
       112                         -0.2214076              -6.0248
       113                         -0.2194568              -5.9717
       114                         -0.2164536              -5.8900
       ...                                ...                  ...
       192                          0.6818375              18.5537
      -------------------------------------------------------------
                  HL-Gap            0.1144692 Eh            3.1149 eV

     #   Z          covCN         q      C6AA      Î±(0)
     1   6 C        2.866     0.145    24.842     8.170
     2   8 O        1.704    -0.282    18.679     5.835
     3   6 C        3.643     0.030    20.418     6.496
     4   6 C        2.918    -0.062    29.539     8.912
     5   6 C        2.922    -0.027    28.687     8.783
     6   6 C        2.918    -0.037    28.921     8.819
     7   6 C        2.924    -0.031    28.763     8.795
     8   6 C        2.973    -0.012    28.319     8.729
     9   6 C        3.821     0.052    19.689     6.315
    10   6 C        3.828     0.050    19.718     6.318
    11   6 C        2.970    -0.015    28.371     8.737
    12   6 C        2.927    -0.032    28.796     8.800
    13   6 C        2.917    -0.037    28.925     8.819
    14   6 C        2.921    -0.030    28.739     8.791
    15   6 C        2.918    -0.063    29.578     8.918
    16   6 C        2.865     0.144    24.865     8.174
    17   8 O        1.704    -0.290    18.811     5.856
    18   6 C        3.643     0.039    20.263     6.472
    19   7 N        2.758    -0.096    23.116     7.141
    20   6 C        2.760     0.280    22.255     7.726
    21   6 C        3.090    -0.044    28.975     8.823
    22   6 C        3.103     0.175    24.133     8.050
    23  35 Br       0.994    -0.121   188.335    22.127
    24   8 O        1.773    -0.167    16.814     5.537
    25   6 C        3.079     0.075    26.249     8.400
    26   6 C        3.039    -0.044    29.058     8.842
    27   8 O        0.860    -0.416    22.007     6.290
    28   6 C        3.751     0.071    19.448     6.289
    29   6 C        2.685     0.355    20.970     7.494
    30   8 O        1.659    -0.344    19.787     6.005
    31   8 O        0.856    -0.376    21.199     6.173
    32   7 N        2.757    -0.126    23.743     7.237
    33   6 C        2.759     0.278    22.302     7.734
    34   6 C        3.098    -0.060    29.352     8.879
    35   6 C        3.098     0.194    23.776     7.991
    36  35 Br       0.998    -0.080   187.182    22.059
    37   8 O        1.769    -0.159    16.684     5.516
    38   6 C        3.081     0.072    26.297     8.407
    39   6 C        3.027    -0.066    29.624     8.928
    40   8 O        0.860    -0.410    21.888     6.273
    41   1 H        0.924     0.045     2.384     2.414
    42   1 H        0.924     0.054     2.272     2.357
    43   1 H        0.925     0.067     2.121     2.278
    44   1 H        0.926     0.048     2.349     2.397
    45   1 H        0.926     0.044     2.397     2.421
    46   1 H        0.926     0.043     2.412     2.429
    47   1 H        0.926     0.038     2.472     2.459
    48   1 H        0.923     0.045     2.388     2.416
    49   1 H        0.924     0.072     2.059     2.244
    50   1 H        0.926     0.042     2.429     2.437
    51   1 H        0.926     0.043     2.404     2.425
    52   1 H        0.926     0.042     2.420     2.433
    53   1 H        0.926     0.043     2.406     2.426
    54   1 H        0.924     0.042     2.427     2.436
    55   1 H        0.924     0.041     2.433     2.439
    56   1 H        0.925     0.074     2.038     2.233
    57   1 H        0.926     0.071     2.079     2.255
    58   1 H        0.927     0.065     2.143     2.289
    59   1 H        0.924     0.079     1.987     2.205
    60   1 H        0.804     0.340     0.613     1.230
    61   1 H        0.926     0.076     2.026     2.226
    62   1 H        0.927     0.053     2.277     2.360

Wiberg/Mayer (AO) data.
largest (>0.10) Wiberg bond orders for each atom

     #   Z sym  total        # sym  WBO       # sym  WBO       # sym  WBO
 ---------------------------------------------------------------------------
     1   6 C    3.935 --     4 C    1.384     8 C    1.321     2 O    1.059
     2   8 O    2.225 --     1 C    1.059     3 C    0.978
     3   6 C    3.939 --     2 O    0.978    41 H    0.977    43 H    0.976
                            42 H    0.973
     4   6 C    3.988 --     5 C    1.435     1 C    1.384    44 H    0.965
                             7 C    0.103
     5   6 C    3.990 --     6 C    1.443     4 C    1.435    45 H    0.970
                             8 C    0.105
     6   6 C    3.991 --     5 C    1.443     7 C    1.426    46 H    0.970
     7   6 C    3.989 --     8 C    1.435     6 C    1.426    47 H    0.968
                             4 C    0.103
     8   6 C    3.980 --     7 C    1.435     1 C    1.321     9 C    0.995
                             5 C    0.105
     9   6 C    3.963 --     8 C    0.995    48 H    0.956    10 C    0.951
                            32 N    0.948
    10   6 C    3.962 --    11 C    0.990    19 N    0.960     9 C    0.951
                            49 H    0.949
    11   6 C    3.982 --    12 C    1.428    16 C    1.334    10 C    0.990
                            14 C    0.106
    12   6 C    3.989 --    13 C    1.433    11 C    1.428    50 H    0.968
                            15 C    0.104
    13   6 C    3.991 --    14 C    1.439    12 C    1.433    51 H    0.970
    14   6 C    3.990 --    15 C    1.440    13 C    1.439    52 H    0.970
                            11 C    0.106
    15   6 C    3.987 --    14 C    1.440    16 C    1.378    53 H    0.965
                            12 C    0.104
    16   6 C    3.933 --    15 C    1.378    11 C    1.334    17 O    1.050
    17   8 O    2.219 --    16 C    1.050    18 C    0.977
    18   6 C    3.939 --    55 H    0.978    17 O    0.977    54 H    0.977
                            56 H    0.974
    19   7 N    3.483 --    20 C    1.218    28 C    0.983    10 C    0.960
                            27 O    0.196
    20   6 C    3.954 --    27 O    1.681    19 N    1.218    21 C    0.975
    21   6 C    3.977 --    22 C    1.524    26 C    1.247    20 C    0.975
    22   6 C    3.872 --    21 C    1.524    24 O    1.131    23 Br   0.998
                            25 C    0.136
    23  35 Br   1.173 --    22 C    0.998
    24   8 O    2.455 --    22 C    1.131    25 C    1.120
    25   6 C    3.901 --    26 C    1.623    24 O    1.120    57 H    0.963
                            22 C    0.136
    26   6 C    3.982 --    25 C    1.623    21 C    1.247    58 H    0.971
    27   8 O    2.023 --    20 C    1.681    19 N    0.196
    28   6 C    3.965 --    32 N    0.997    19 N    0.983    59 H    0.927
                            29 C    0.894
    29   6 C    3.921 --    31 O    1.774    30 O    1.174    28 C    0.894
    30   8 O    2.246 --    29 C    1.174    60 H    0.842    31 O    0.171
    31   8 O    2.066 --    29 C    1.774    30 O    0.171
    32   7 N    3.457 --    33 C    1.179    28 C    0.997     9 C    0.948
                            40 O    0.181
    33   6 C    3.953 --    40 O    1.689    32 N    1.179    34 C    0.998
    34   6 C    3.972 --    35 C    1.495    39 C    1.245    33 C    0.998
    35   6 C    3.889 --    34 C    1.495    37 O    1.148    36 Br   1.027
                            38 C    0.128
    36  35 Br   1.201 --    35 C    1.027
    37   8 O    2.467 --    35 C    1.148    38 C    1.120
    38   6 C    3.900 --    39 C    1.621    37 O    1.120    61 H    0.963
                            35 C    0.128
    39   6 C    3.982 --    38 C    1.621    34 C    1.245    62 H    0.967
    40   8 O    2.032 --    33 C    1.689    32 N    0.181
    41   1 H    0.998 --     3 C    0.977
    42   1 H    0.997 --     3 C    0.973
    43   1 H    0.995 --     3 C    0.976
    44   1 H    0.997 --     4 C    0.965
    45   1 H    0.998 --     5 C    0.970
    46   1 H    0.998 --     6 C    0.970
    47   1 H    0.998 --     7 C    0.968
    48   1 H    0.997 --     9 C    0.956
    49   1 H    0.994 --    10 C    0.949
    50   1 H    0.998 --    12 C    0.968
    51   1 H    0.998 --    13 C    0.970
    52   1 H    0.998 --    14 C    0.970
    53   1 H    0.998 --    15 C    0.965
    54   1 H    0.998 --    18 C    0.977
    55   1 H    0.998 --    18 C    0.978
    56   1 H    0.994 --    18 C    0.974
    57   1 H    0.995 --    25 C    0.963
    58   1 H    0.996 --    26 C    0.971
    59   1 H    0.993 --    28 C    0.927
    60   1 H    0.885 --    30 O    0.842
    61   1 H    0.993 --    38 C    0.963
    62   1 H    0.997 --    39 C    0.967
 ---------------------------------------------------------------------------

molecular dipole:
                 x           y           z       tot (Debye)
 q only:        0.193      -0.667       0.270
   full:        1.320      -0.629       0.722       4.145

           -------------------------------------------------
          | TOTAL ENERGY             -117.761142204862 Eh   |
          | GRADIENT NORM               0.000229102207 Eh/Î± |
          | HOMO-LUMO GAP               3.114865825094 eV   |
           -------------------------------------------------

 * finished run on 2022/03/17 at 00:59:41.944
