   * xtb version 6.3.3 (4ae9cef) compiled by 'conda@95abc7406d43' on 2020-10-14
          program call               : xtb acid_269.xyz --opt --chrg 0 --uhf 0 --gfn 2
          number of atoms            :                    60
          number of electrons        :                   190
          charge                     :                     0
          spin                       :                   0.0

   ID    Z sym.   atoms
    1    6 C      1-14, 16-21, 23, 25, 26, 30-33, 35-37
    2    7 N      15, 29
    3    9 F      22, 34
    4    8 O      24, 27, 28, 38
    5    1 H      39-60

          :  Hamiltonian                  GFN2-xTB          :
 * total energy  :  -107.0508150 Eh     change       -0.7787548E-09 Eh
 * total energy  :  -107.0622013 Eh     change       -0.1138627E-01 Eh
 * total energy  :  -107.0655635 Eh     change       -0.3362188E-02 Eh
 * total energy  :  -107.0663156 Eh     change       -0.7521794E-03 Eh
 * total energy  :  -107.0666990 Eh     change       -0.3833394E-03 Eh
 * total energy  :  -107.0669505 Eh     change       -0.2515728E-03 Eh
 * total energy  :  -107.0672242 Eh     change       -0.2737036E-03 Eh
 * total energy  :  -107.0675013 Eh     change       -0.2770172E-03 Eh
 * total energy  :  -107.0677363 Eh     change       -0.2350631E-03 Eh
 * total energy  :  -107.0678812 Eh     change       -0.1448393E-03 Eh
 * total energy  :  -107.0704090 Eh     change       -0.6423730E-05 Eh
 * total energy  :  -107.0704157 Eh     change       -0.6646783E-05 Eh
 * total energy  :  -107.0704221 Eh     change       -0.6410982E-05 Eh
 * total energy  :  -107.0704286 Eh     change       -0.6479700E-05 Eh
 * total energy  :  -107.0704352 Eh     change       -0.6583516E-05 Eh
 * total energy  :  -107.0704419 Eh     change       -0.6762149E-05 Eh
 * total energy  :  -107.0704486 Eh     change       -0.6698768E-05 Eh
 * total energy  :  -107.0704543 Eh     change       -0.5675314E-05 Eh
 * total energy  :  -107.0704566 Eh     change       -0.2298040E-05 Eh
   *** GEOMETRY OPTIMIZATION CONVERGED AFTER 94 ITERATIONS ***

 final structure:
================
60
 xtb: 6.3.3 (4ae9cef)
C         2.97545787699572   -1.68833888786334    2.09109892456755
C         3.80409672307401   -1.44264663045577    3.16902586234513
C         3.28231388320034   -0.90522568606850    4.33501583548909
C         1.93199078009754   -0.61547035100470    4.41177528896446
C         1.09935760857240   -0.85741695042645    3.33039455844569
C         1.61502921967791   -1.40012722444137    2.16161441098413
C         0.79847674273940   -1.64579359143792    0.91493990451371
C        -0.73056269862782   -1.51189500068516    1.04485160060903
C        -1.42209051149335   -2.41513693391941    0.05111832714577
C        -1.61291445611728   -2.02417206171262   -1.26689690123262
C        -2.20886775342382   -2.88341883053725   -2.17267413822467
C        -2.61679709149141   -4.14306338544122   -1.77114279395867
C        -2.42806242867204   -4.53974153994559   -0.45816333335606
C        -1.83370142843773   -3.68051023066529    0.44766559143175
N        -0.95954379217937   -0.10429356717220    0.73562432141023
C        -2.11665800589187    0.51942368261861    1.08312730739549
C        -2.25233948486325    1.92335046664740    0.58166688199425
C        -2.24669150089390    2.18391896088209   -0.78528794406044
C        -2.41719239918352    3.47623950603277   -1.25024775733109
C        -2.59178015231005    4.52158345054261   -0.35996371569585
C        -2.61299823287129    4.24060209449241    0.99469624783175
F        -2.79322369702635    5.25366309287295    1.86360490160331
C        -2.45732251047991    2.95705117805106    1.48371115270857
O        -2.98611501323183   -0.04896034668708    1.70564536868308
C         0.25593922065345    0.51125062888356    0.24657174620556
C         0.88056120713507    1.40418528063854    1.34303159651817
O         2.18169454768300    1.58827853301133    1.14544169742862
O         0.25781291462167    1.90404351745449    2.23410024381218
N         1.10183705510212   -0.60412976531991   -0.06805858163133
C         1.61617935912350   -0.93289329652449   -1.28782067548409
C         1.57518247646081    0.13872827432277   -2.32801277789792
C         2.09841915551488    1.40611394589898   -2.10050458482137
C         2.04272923580001    2.33603750199815   -3.12218376529502
F         2.54370077673563    3.56815504569356   -2.90217392931924
C         1.48345823995892    2.04774164199737   -4.35429420860701
C         0.97897103639440    0.77642230918556   -4.57095311909862
C         1.03002578436644   -0.17665231788200   -3.56894908952603
O         2.08124727805665   -2.03017885453099   -1.50722298460893
H         3.37635398835689   -2.10463483741351    1.17870343474250
H         4.85685655980966   -1.67268404321337    3.10140681756590
H         3.92653039156209   -0.71488648896362    5.18045180846008
H         1.51787997760976   -0.19428387364440    5.31543083021948
H         0.05307241197989   -0.60793460192754    3.41627696591400
H         1.08057706950766   -2.60731604974773    0.47393170580640
H        -1.09423610464796   -1.74074897947671    2.04957364828672
H        -1.30272200137037   -1.04088303793789   -1.59135397769229
H        -2.35589228308873   -2.56671465772635   -3.19495697803220
H        -3.08279776427939   -4.81244084195201   -2.47853603782246
H        -2.74720806165015   -5.52023647641943   -0.13792813065023
H        -1.68867729657157   -3.98996188759818    1.47240415423796
H        -2.13692818060425    1.37077079785953   -1.48898649504913
H        -2.41520862625537    3.67147021849453   -2.31192183742137
H        -2.71927383461909    5.53691932839316   -0.70017240068561
H        -2.47939471794278    2.76661158898588    2.54390687196051
H         0.08157564716541    1.15340388425684   -0.62673480661143
H         2.56386887831139    2.14538593092285    1.84405445921209
H         2.55965887549504    1.66139675302555   -1.15986574791393
H         1.45839046112067    2.80490490625907   -5.12170175595485
H         0.54898795390250    0.52857843128076   -5.52908383072138
H         0.65096669144482   -1.17343772197004   -3.73506916778505

          :  Hamiltonian                  GFN2-xTB          :
         :: total energy            -107.070456602802 Eh    ::
         :: gradient norm              0.000247478117 Eh/a0 ::
         :: HOMO-LUMO gap              3.452833706497 eV    ::
         :: SCC energy              -108.617418926217 Eh    ::
         :: -> dispersion             -0.085386192165 Eh    ::
         :: repulsion energy           1.543879976267 Eh    ::

    * Orbital Energies and Occupations

         #    Occupation            Energy/Eh            Energy/eV
      -------------------------------------------------------------
         1        2.0000           -0.8328868             -22.6640
       ...           ...                  ...                  ...
        83        2.0000           -0.4354858             -11.8502
        84        2.0000           -0.4338784             -11.8064
        85        2.0000           -0.4323115             -11.7638
        86        2.0000           -0.4297597             -11.6944
        87        2.0000           -0.4255975             -11.5811
        88        2.0000           -0.4219026             -11.4806
        89        2.0000           -0.4206874             -11.4475
        90        2.0000           -0.4193487             -11.4111
        91        2.0000           -0.4149085             -11.2902
        92        2.0000           -0.4118365             -11.2066
        93        2.0000           -0.4086403             -11.1197
        94        2.0000           -0.4043398             -11.0026
        95        2.0000           -0.4032012             -10.9717 (HOMO)
        96                         -0.2763119              -7.5188 (LUMO)
        97                         -0.2733629              -7.4386
        98                         -0.2599209              -7.0728
        99                         -0.2566934              -6.9850
       100                         -0.2462415              -6.7006
       101                         -0.2420077              -6.5854
       102                         -0.2370937              -6.4516
       103                         -0.2345904              -6.3835
       104                         -0.2329523              -6.3390
       105                         -0.2209520              -6.0124
       106                         -0.2129496              -5.7947
       ...                                ...                  ...
       174                          0.6571305              17.8814
      -------------------------------------------------------------
                  HL-Gap            0.1268893 Eh            3.4528 eV

     #   Z          covCN         q      C6AA      Î±(0)
     1   6 C        2.927    -0.033    28.829     8.805
     2   6 C        2.919    -0.028    28.700     8.785
     3   6 C        2.920    -0.030    28.759     8.794
     4   6 C        2.920    -0.028    28.707     8.786
     5   6 C        2.921    -0.037    28.911     8.817
     6   6 C        2.972    -0.002    28.078     8.692
     7   6 C        3.856     0.033    19.982     6.358
     8   6 C        3.832     0.038    19.913     6.349
     9   6 C        2.974     0.006    27.876     8.661
    10   6 C        2.924    -0.028    28.708     8.787
    11   6 C        2.920    -0.026    28.659     8.779
    12   6 C        2.920    -0.027    28.688     8.783
    13   6 C        2.920    -0.024    28.614     8.772
    14   6 C        2.925    -0.032    28.794     8.800
    15   7 N        2.769    -0.119    23.595     7.214
    16   6 C        2.761     0.278    22.302     7.734
    17   6 C        2.980    -0.012    28.304     8.727
    18   6 C        2.921    -0.041    29.011     8.833
    19   6 C        2.923    -0.029    28.720     8.788
    20   6 C        2.917    -0.047    29.175     8.857
    21   6 C        2.787     0.175    24.228     8.063
    22   9 F        0.787    -0.217    11.410     3.990
    23   6 C        2.920    -0.035    28.861     8.810
    24   8 O        0.859    -0.409    21.868     6.270
    25   6 C        3.782     0.088    19.137     6.232
    26   6 C        2.688     0.351    21.036     7.506
    27   8 O        1.659    -0.359    20.079     6.049
    28   8 O        0.856    -0.380    21.282     6.185
    29   7 N        2.773    -0.110    23.399     7.184
    30   6 C        2.762     0.274    22.364     7.744
    31   6 C        2.979    -0.014    28.367     8.736
    32   6 C        2.918    -0.057    29.406     8.892
    33   6 C        2.787     0.173    24.280     8.071
    34   9 F        0.787    -0.222    11.460     3.999
    35   6 C        2.916    -0.046    29.136     8.851
    36   6 C        2.923    -0.025    28.638     8.776
    37   6 C        2.923    -0.027    28.672     8.781
    38   8 O        0.859    -0.410    21.890     6.273
    39   1 H        0.926     0.047     2.351     2.398
    40   1 H        0.926     0.039     2.455     2.450
    41   1 H        0.926     0.038     2.479     2.462
    42   1 H        0.926     0.042     2.427     2.436
    43   1 H        0.926     0.043     2.406     2.426
    44   1 H        0.924     0.085     1.924     2.169
    45   1 H        0.924     0.076     2.025     2.226
    46   1 H        0.926     0.016     2.790     2.612
    47   1 H        0.926     0.034     2.533     2.489
    48   1 H        0.926     0.038     2.469     2.457
    49   1 H        0.926     0.041     2.441     2.443
    50   1 H        0.926     0.037     2.483     2.464
    51   1 H        0.926     0.035     2.518     2.481
    52   1 H        0.926     0.049     2.334     2.389
    53   1 H        0.926     0.065     2.146     2.291
    54   1 H        0.926     0.083     1.950     2.184
    55   1 H        0.923     0.070     2.088     2.260
    56   1 H        0.804     0.347     0.596     1.213
    57   1 H        0.926     0.070     2.085     2.258
    58   1 H        0.926     0.066     2.127     2.281
    59   1 H        0.926     0.056     2.244     2.342
    60   1 H        0.926     0.062     2.173     2.305

Wiberg/Mayer (AO) data.
largest (>0.10) Wiberg bond orders for each atom

     #   Z sym  total        # sym  WBO       # sym  WBO       # sym  WBO
 ---------------------------------------------------------------------------
     1   6 C    3.990 --     2 C    1.455     6 C    1.402    39 H    0.968
                             4 C    0.113
     2   6 C    3.992 --     1 C    1.455     3 C    1.430    40 H    0.970
                             5 C    0.109
     3   6 C    3.991 --     4 C    1.448     2 C    1.430    41 H    0.971
                             6 C    0.109
     4   6 C    3.991 --     3 C    1.448     5 C    1.433    42 H    0.970
                             1 C    0.113
     5   6 C    3.990 --     4 C    1.433     6 C    1.422    43 H    0.964
                             2 C    0.109
     6   6 C    3.984 --     5 C    1.422     1 C    1.402     7 C    0.985
                             3 C    0.109
     7   6 C    3.957 --     6 C    0.985     8 C    0.960    44 H    0.948
                            29 N    0.947
     8   6 C    3.962 --     9 C    0.986     7 C    0.960    15 N    0.959
                            45 H    0.948
     9   6 C    3.986 --    10 C    1.416    14 C    1.410     8 C    0.986
                            12 C    0.109
    10   6 C    3.992 --    11 C    1.442     9 C    1.416    46 H    0.967
                            13 C    0.111
    11   6 C    3.992 --    10 C    1.442    12 C    1.441    47 H    0.971
                            14 C    0.112
    12   6 C    3.990 --    11 C    1.441    13 C    1.436    48 H    0.971
                             9 C    0.109
    13   6 C    3.991 --    14 C    1.448    12 C    1.436    49 H    0.970
                            10 C    0.111
    14   6 C    3.990 --    13 C    1.448     9 C    1.410    50 H    0.969
                            11 C    0.112
    15   7 N    3.455 --    16 C    1.201    25 C    0.981     8 C    0.959
                            24 O    0.190
    16   6 C    3.948 --    24 O    1.702    15 N    1.201    17 C    0.963
    17   6 C    3.988 --    23 C    1.411    18 C    1.399    16 C    0.963
                            20 C    0.108
    18   6 C    3.991 --    19 C    1.444    17 C    1.399    51 H    0.967
    19   6 C    3.991 --    18 C    1.444    20 C    1.438    52 H    0.969
                            23 C    0.110
    20   6 C    3.989 --    19 C    1.438    21 C    1.395    53 H    0.967
                            17 C    0.108
    21   6 C    3.891 --    23 C    1.398    20 C    1.395    22 F    0.966
    22   9 F    1.099 --    21 C    0.966
    23   6 C    3.987 --    17 C    1.411    21 C    1.398    54 H    0.963
                            19 C    0.110
    24   8 O    2.028 --    16 C    1.702    15 N    0.190
    25   6 C    3.976 --    29 N    1.000    15 N    0.981    55 H    0.925
                            26 C    0.910
    26   6 C    3.921 --    28 O    1.785    27 O    1.154    25 C    0.910
    27   8 O    2.222 --    26 C    1.154    56 H    0.853    28 O    0.181
    28   8 O    2.070 --    26 C    1.785    27 O    0.181
    29   7 N    3.460 --    30 C    1.193    25 C    1.000     7 C    0.947
                            38 O    0.187
    30   6 C    3.947 --    38 O    1.699    29 N    1.193    31 C    0.973
    31   6 C    3.987 --    37 C    1.400    32 C    1.399    30 C    0.973
                            35 C    0.107
    32   6 C    3.988 --    33 C    1.401    31 C    1.399    57 H    0.960
                            36 C    0.109
    33   6 C    3.889 --    32 C    1.401    35 C    1.395    34 F    0.962
    34   9 F    1.094 --    33 C    0.962
    35   6 C    3.988 --    36 C    1.438    33 C    1.395    58 H    0.966
                            31 C    0.107
    36   6 C    3.990 --    37 C    1.444    35 C    1.438    59 H    0.969
                            32 C    0.109
    37   6 C    3.988 --    36 C    1.444    31 C    1.400    60 H    0.967
    38   8 O    2.030 --    30 C    1.699    29 N    0.187
    39   1 H    0.998 --     1 C    0.968
    40   1 H    0.998 --     2 C    0.970
    41   1 H    0.998 --     3 C    0.971
    42   1 H    0.998 --     4 C    0.970
    43   1 H    0.998 --     5 C    0.964
    44   1 H    0.992 --     7 C    0.948
    45   1 H    0.994 --     8 C    0.948
    46   1 H    1.000 --    10 C    0.967
    47   1 H    0.999 --    11 C    0.971
    48   1 H    0.998 --    12 C    0.971
    49   1 H    0.998 --    13 C    0.970
    50   1 H    0.999 --    14 C    0.969
    51   1 H    0.999 --    18 C    0.967
    52   1 H    0.997 --    19 C    0.969
    53   1 H    0.995 --    20 C    0.967
    54   1 H    0.993 --    23 C    0.963
    55   1 H    0.995 --    25 C    0.925
    56   1 H    0.879 --    27 O    0.853
    57   1 H    0.995 --    32 C    0.960
    58   1 H    0.995 --    35 C    0.966
    59   1 H    0.996 --    36 C    0.969
    60   1 H    0.996 --    37 C    0.967
 ---------------------------------------------------------------------------

molecular dipole:
                 x           y           z       tot (Debye)
 q only:        0.881      -0.491      -0.860
   full:        1.024      -0.127      -1.002       3.656

           -------------------------------------------------
          | TOTAL ENERGY             -107.070456602802 Eh   |
          | GRADIENT NORM               0.000247478117 Eh/Î± |
          | HOMO-LUMO GAP               3.452833706497 eV   |
           -------------------------------------------------

 * finished run on 2022/03/16 at 23:11:27.673
