   * xtb version 6.3.3 (4ae9cef) compiled by 'conda@95abc7406d43' on 2020-10-14
          program call               : xtb acid_42.xyz --opt --chrg 0 --uhf 0 --gfn 2
          number of atoms            :                    72
          number of electrons        :                   218
          charge                     :                     0
          spin                       :                   0.0

   ID    Z sym.   atoms
    1    6 C      1-22, 24-29, 32, 33, 37-42
    2    7 N      23, 36
    3   16 S      30, 43
    4    8 O      31, 34, 35, 44
    5    1 H      45-72

          :  Hamiltonian                  GFN2-xTB          :
 * total energy  :  -119.9905835 Eh     change       -0.5206502E-08 Eh
 * total energy  :  -120.0072630 Eh     change       -0.1667956E-01 Eh
 * total energy  :  -120.0123805 Eh     change       -0.5117523E-02 Eh
 * total energy  :  -120.0136235 Eh     change       -0.1242930E-02 Eh
 * total energy  :  -120.0143300 Eh     change       -0.7065236E-03 Eh
 * total energy  :  -120.0146663 Eh     change       -0.3362760E-03 Eh
 * total energy  :  -120.0149722 Eh     change       -0.3058952E-03 Eh
 * total energy  :  -120.0152707 Eh     change       -0.2985525E-03 Eh
 * total energy  :  -120.0155974 Eh     change       -0.3267284E-03 Eh
 * total energy  :  -120.0159158 Eh     change       -0.3183443E-03 Eh
 * total energy  :  -120.0208218 Eh     change       -0.2452857E-04 Eh
 * total energy  :  -120.0208516 Eh     change       -0.2982018E-04 Eh
 * total energy  :  -120.0208724 Eh     change       -0.2081661E-04 Eh
 * total energy  :  -120.0208849 Eh     change       -0.1243350E-04 Eh
 * total energy  :  -120.0208921 Eh     change       -0.7181537E-05 Eh
 * total energy  :  -120.0209046 Eh     change       -0.1249083E-04 Eh
 * total energy  :  -120.0209116 Eh     change       -0.7024969E-05 Eh
 * total energy  :  -120.0209174 Eh     change       -0.5805297E-05 Eh
 * total energy  :  -120.0209219 Eh     change       -0.4506698E-05 Eh
   *** GEOMETRY OPTIMIZATION CONVERGED AFTER 95 ITERATIONS ***

 final structure:
================
72
 xtb: 6.3.3 (4ae9cef)
C         0.59074867409201   -2.91288112892204    5.02140499895411
C        -0.11557432569838   -3.95685699246364    4.49479965380991
C        -0.27804731497302   -4.05961566748320    3.10618220524766
C         0.23553548591467   -3.10480719811682    2.27277049674220
C         0.93634052002529   -1.99111594310534    2.78451570282286
C         1.14336548583192   -1.91726224536849    4.18883093173534
C         1.91003070147588   -0.86114302847749    4.72406381450886
C         2.47403895734259    0.06840328811175    3.89986300572777
C         2.24724443417275    0.01650456205706    2.51678903276873
C         1.46410457653232   -0.96014740342446    1.95895963350071
C         1.15246660836170   -0.96384013815702    0.48021969340455
C        -0.35918213728045   -0.79632202171628    0.18477988876433
C        -0.86906016279883   -1.79266487114543   -0.83181053808492
C        -0.28953209199017   -1.78029919183677   -2.07776653609122
C        -0.66475456215998   -2.69036208477577   -3.07199102481852
C        -1.62517424372320   -3.62415263266830   -2.80952553361036
C        -2.26151672833119   -3.66395314955869   -1.55256825167556
C        -1.89975288440824   -2.72746152083106   -0.54273497276520
C        -2.59301253871609   -2.78670993508829    0.68681152759041
C        -3.55852050309842   -3.72697063916419    0.91257330495877
C        -3.89174856595229   -4.66434759576194   -0.07540946322831
C        -3.25900607571940   -4.62557677184797   -1.28407038215266
N        -0.46315616831792    0.55977432418725   -0.35336878013082
C        -1.70164570970128    1.12152835319424   -0.42005902426741
C        -1.85590755084451    2.51762747074288   -0.85661634410838
C        -3.06770176594307    3.15354798196744   -0.80520328346213
C        -3.04495824926533    4.48497983386598   -1.27762070495733
C        -4.24312872789061    5.37317179416541   -1.30741618385125
C        -1.79810296087176    4.84324390440836   -1.69265509441146
S        -0.64617777062340    3.58360588895512   -1.50823373769379
O        -2.69025054780687    0.46790497370936   -0.13608449159525
C         0.81836664517936    1.21531097408839   -0.37888836771550
C         0.95644632584015    2.22031749530390    0.79090122516958
O         0.01701822900198    2.04986412824860    1.71112859986842
O         1.81807702987592    3.05268331167377    0.86501465414573
N         1.76790732465599    0.14302661237699   -0.23797798788216
C         2.81634681482209   -0.13107078374299   -1.08462925243621
C         3.27884538762591    0.94469996946868   -1.96632529460868
C         3.38754830150674    2.29729559470306   -1.79358145160512
C         3.97668155663534    2.95285006268921   -2.89991024591635
C         4.19947694049903    4.42741885447963   -2.95219159790456
C         4.30340692074364    2.07468267203292   -3.89018751477973
S         3.93326259688465    0.44788800445743   -3.49530248777136
O         3.33655776739373   -1.22976594769376   -1.09077029042911
H         0.74634888227079   -2.83591645853503    6.08816264828561
H        -0.53657448939466   -4.71443082921439    5.13921696920913
H        -0.81183118269020   -4.90193324255188    2.69165828539751
H         0.11684786540545   -3.21845622107409    1.20792379949343
H         2.05728766652226   -0.81493374862873    5.79342891170497
H         3.09091096525543    0.85919256967534    4.30080145115363
H         2.71254474459360    0.76130828158871    1.88869877404999
H         1.54615389717773   -1.88635549999225    0.03528198423945
H        -0.94127368377875   -0.84005773013721    1.10766679127174
H         0.48335760123555   -1.05964513072408   -2.30417585706747
H        -0.18023850580344   -2.64968575415522   -4.03601412150100
H        -1.91595720805038   -4.34387097549753   -3.56129359668862
H        -2.37828185514912   -2.07270196833735    1.46461630820677
H        -4.07540643167408   -3.74936248190164    1.86082480879206
H        -4.65349545113505   -5.40404078543367    0.12342026424060
H        -3.51354934654502   -5.33166661782082   -2.06194062905821
H        -3.94761616090399    2.65857558139626   -0.43428911472073
H        -4.59664873920510    5.55974106154464   -0.29390972627363
H        -4.00623008445257    6.32416000822062   -1.77686523398539
H        -5.04982644285239    4.89505339439610   -1.86051510029650
H        -1.47907255000197    5.78160009676050   -2.10239404746634
H         1.00279732565515    1.75355106190180   -1.31848957544070
H         0.13838253900369    2.66451026772471    2.45324437286719
H         3.09287829955811    2.81603502672829   -0.89963197699589
H         3.25341689883194    4.95399178511332   -2.83500107277436
H         4.65071076713738    4.71532311179708   -3.89787352527957
H         4.85593324984552    4.73527567448857   -2.13977234416403
H         4.75052573084205    2.29573735912168   -4.83948997896567

          :  Hamiltonian                  GFN2-xTB          :
         :: total energy            -120.020921888359 Eh    ::
         :: gradient norm              0.000653454710 Eh/a0 ::
         :: HOMO-LUMO gap              2.582560959310 eV    ::
         :: SCC energy              -121.849526230353 Eh    ::
         :: -> dispersion             -0.109745677807 Eh    ::
         :: repulsion energy           1.825672501618 Eh    ::

    * Orbital Energies and Occupations

         #    Occupation            Energy/Eh            Energy/eV
      -------------------------------------------------------------
         1        2.0000           -0.7775626             -21.1586
       ...           ...                  ...                  ...
        97        2.0000           -0.4147133             -11.2849
        98        2.0000           -0.4098430             -11.1524
        99        2.0000           -0.4093746             -11.1397
       100        2.0000           -0.4048756             -11.0172
       101        2.0000           -0.4039906             -10.9931
       102        2.0000           -0.4018558             -10.9351
       103        2.0000           -0.4017272             -10.9316
       104        2.0000           -0.4006864             -10.9032
       105        2.0000           -0.3974980             -10.8165
       106        2.0000           -0.3936082             -10.7106
       107        2.0000           -0.3899488             -10.6110
       108        2.0000           -0.3808434             -10.3633
       109        2.0000           -0.3744227             -10.1886 (HOMO)
       110                         -0.2795153              -7.6060 (LUMO)
       111                         -0.2703575              -7.3568
       112                         -0.2665085              -7.2521
       113                         -0.2641679              -7.1884
       114                         -0.2583782              -7.0308
       115                         -0.2324521              -6.3253
       116                         -0.2259426              -6.1482
       117                         -0.2168072              -5.8996
       118                         -0.2101639              -5.7189
       119                         -0.2050198              -5.5789
       120                         -0.1963698              -5.3435
       ...                                ...                  ...
       214                          0.6990257              19.0215
      -------------------------------------------------------------
                  HL-Gap            0.0949074 Eh            2.5826 eV

     #   Z          covCN         q      C6AA      Î±(0)
     1   6 C        2.920    -0.034    28.857     8.809
     2   6 C        2.915    -0.028    28.705     8.786
     3   6 C        2.917    -0.027    28.677     8.781
     4   6 C        2.917    -0.037    28.924     8.819
     5   6 C        2.987     0.007    27.863     8.659
     6   6 C        2.988     0.015    27.673     8.629
     7   6 C        2.919    -0.037    28.930     8.820
     8   6 C        2.914    -0.032    28.788     8.798
     9   6 C        2.920    -0.036    28.898     8.815
    10   6 C        2.966    -0.003    28.095     8.694
    11   6 C        3.833     0.038    19.908     6.348
    12   6 C        3.830     0.044    19.815     6.334
    13   6 C        2.967     0.001    28.002     8.680
    14   6 C        2.924    -0.032    28.792     8.799
    15   6 C        2.913    -0.029    28.736     8.790
    16   6 C        2.921    -0.035    28.870     8.811
    17   6 C        2.989     0.015    27.664     8.628
    18   6 C        2.982     0.016    27.648     8.625
    19   6 C        2.917    -0.027    28.667     8.780
    20   6 C        2.917    -0.028    28.697     8.785
    21   6 C        2.915    -0.029    28.723     8.788
    22   6 C        2.921    -0.034    28.855     8.809
    23   7 N        2.762    -0.117    23.552     7.208
    24   6 C        2.773     0.268    22.473     7.764
    25   6 C        2.980    -0.016    28.415     8.744
    26   6 C        3.135    -0.038    28.705     8.770
    27   6 C        3.139     0.009    27.583     8.595
    28   6 C        3.755    -0.108    22.626     6.782
    29   6 C        2.949    -0.023    28.568     8.766
    30  16 S        2.307    -0.058   143.440    20.158
    31   8 O        0.861    -0.432    22.338     6.337
    32   6 C        3.763     0.089    19.154     6.238
    33   6 C        2.688     0.356    20.961     7.493
    34   8 O        1.659    -0.354    19.973     6.033
    35   8 O        0.856    -0.391    21.503     6.217
    36   7 N        2.762    -0.124    23.686     7.228
    37   6 C        2.811     0.270    22.449     7.763
    38   6 C        2.989    -0.023    28.573     8.768
    39   6 C        3.111    -0.061    29.369     8.878
    40   6 C        3.144     0.007    27.603     8.596
    41   6 C        3.755    -0.109    22.636     6.784
    42   6 C        2.947    -0.034    28.836     8.807
    43  16 S        2.330     0.024   140.073    19.920
    44   8 O        0.860    -0.420    22.081     6.300
    45   1 H        0.926     0.034     2.524     2.485
    46   1 H        0.926     0.034     2.532     2.488
    47   1 H        0.926     0.034     2.531     2.488
    48   1 H        0.926     0.035     2.514     2.479
    49   1 H        0.926     0.035     2.512     2.479
    50   1 H        0.926     0.034     2.531     2.488
    51   1 H        0.926     0.031     2.577     2.510
    52   1 H        0.924     0.088     1.894     2.152
    53   1 H        0.924     0.068     2.103     2.268
    54   1 H        0.926     0.025     2.654     2.548
    55   1 H        0.926     0.036     2.507     2.476
    56   1 H        0.926     0.036     2.508     2.477
    57   1 H        0.926     0.038     2.473     2.459
    58   1 H        0.926     0.032     2.558     2.501
    59   1 H        0.926     0.031     2.567     2.505
    60   1 H        0.926     0.033     2.545     2.495
    61   1 H        0.926     0.068     2.106     2.269
    62   1 H        0.925     0.055     2.258     2.350
    63   1 H        0.925     0.046     2.371     2.408
    64   1 H        0.925     0.057     2.238     2.339
    65   1 H        0.926     0.051     2.310     2.377
    66   1 H        0.923     0.080     1.976     2.198
    67   1 H        0.804     0.344     0.602     1.219
    68   1 H        0.926     0.067     2.115     2.274
    69   1 H        0.925     0.053     2.283     2.363
    70   1 H        0.925     0.045     2.387     2.416
    71   1 H        0.925     0.056     2.248     2.345
    72   1 H        0.926     0.051     2.313     2.378

Wiberg/Mayer (AO) data.
largest (>0.10) Wiberg bond orders for each atom

     #   Z sym  total        # sym  WBO       # sym  WBO       # sym  WBO
 ---------------------------------------------------------------------------
     1   6 C    3.991 --     2 C    1.555     6 C    1.281    45 H    0.968
                             4 C    0.119
     2   6 C    3.992 --     1 C    1.555     3 C    1.325    46 H    0.971
     3   6 C    3.992 --     4 C    1.551     2 C    1.325    47 H    0.971
     4   6 C    3.992 --     3 C    1.551     5 C    1.286    48 H    0.963
                             1 C    0.119
     5   6 C    3.989 --     4 C    1.286     6 C    1.256    10 C    1.246
     6   6 C    3.990 --     1 C    1.281     7 C    1.275     5 C    1.256
     7   6 C    3.991 --     8 C    1.559     6 C    1.275    49 H    0.968
                            10 C    0.114
     8   6 C    3.992 --     7 C    1.559     9 C    1.319    50 H    0.970
     9   6 C    3.990 --    10 C    1.531     8 C    1.319    51 H    0.963
    10   6 C    3.983 --     9 C    1.531     5 C    1.246    11 C    0.990
                             7 C    0.114
    11   6 C    3.957 --    10 C    0.990    36 N    0.965    12 C    0.951
                            52 H    0.936
    12   6 C    3.958 --    13 C    0.987    23 N    0.951    11 C    0.951
                            53 H    0.947
    13   6 C    3.982 --    14 C    1.521    18 C    1.256    12 C    0.987
                            16 C    0.115
    14   6 C    3.991 --    13 C    1.521    15 C    1.330    54 H    0.968
    15   6 C    3.992 --    16 C    1.549    14 C    1.330    55 H    0.970
    16   6 C    3.990 --    15 C    1.549    17 C    1.282    56 H    0.968
                            13 C    0.115
    17   6 C    3.990 --    16 C    1.282    22 C    1.278    18 C    1.250
    18   6 C    3.988 --    19 C    1.281    13 C    1.256    17 C    1.250
    19   6 C    3.991 --    20 C    1.556    18 C    1.281    57 H    0.959
                            22 C    0.119
    20   6 C    3.990 --    19 C    1.556    21 C    1.321    58 H    0.971
    21   6 C    3.992 --    22 C    1.559    20 C    1.321    59 H    0.971
    22   6 C    3.991 --    21 C    1.559    17 C    1.278    60 H    0.968
                            19 C    0.119
    23   7 N    3.455 --    24 C    1.194    32 C    0.989    12 C    0.951
                            31 O    0.180
    24   6 C    3.955 --    31 O    1.644    23 N    1.194    25 C    1.033
    25   6 C    3.941 --    26 C    1.553    30 S    1.137    24 C    1.033
                            29 C    0.109
    26   6 C    3.985 --    25 C    1.553    27 C    1.268    61 H    0.960
                            30 S    0.101
    27   6 C    3.986 --    29 C    1.577    26 C    1.268    28 C    1.023
    28   6 C    3.995 --    27 C    1.023    63 H    0.985    64 H    0.972
                            62 H    0.970
    29   6 C    3.943 --    27 C    1.577    30 S    1.191    65 H    0.968
                            25 C    0.109
    30  16 S    2.642 --    29 C    1.191    25 C    1.137    26 C    0.101
    31   8 O    2.002 --    24 C    1.644    23 N    0.180
    32   6 C    3.972 --    36 N    0.990    23 N    0.989    66 H    0.927
                            33 C    0.905
    33   6 C    3.916 --    35 O    1.764    34 O    1.167    32 C    0.905
    34   8 O    2.232 --    33 C    1.167    67 H    0.855    35 O    0.181
    35   8 O    2.058 --    33 C    1.764    34 O    0.181
    36   7 N    3.440 --    37 C    1.157    32 C    0.990    11 C    0.965
                            44 O    0.173
    37   6 C    3.949 --    44 O    1.672    36 N    1.157    38 C    1.037
    38   6 C    3.947 --    39 C    1.542    43 S    1.149    37 C    1.037
                            42 C    0.104
    39   6 C    3.984 --    38 C    1.542    40 C    1.269    68 H    0.952
                            43 S    0.107
    40   6 C    3.986 --    42 C    1.572    39 C    1.269    41 C    1.023
    41   6 C    3.995 --    40 C    1.023    70 H    0.986    69 H    0.972
                            71 H    0.971
    42   6 C    3.946 --    40 C    1.572    43 S    1.215    72 H    0.969
                            38 C    0.104
    43  16 S    2.660 --    42 C    1.215    38 C    1.149    39 C    0.107
    44   8 O    2.024 --    37 C    1.672    36 N    0.173
    45   1 H    0.998 --     1 C    0.968
    46   1 H    0.998 --     2 C    0.971
    47   1 H    0.998 --     3 C    0.971
    48   1 H    0.998 --     4 C    0.963
    49   1 H    0.998 --     7 C    0.968
    50   1 H    0.998 --     8 C    0.970
    51   1 H    0.999 --     9 C    0.963
    52   1 H    0.992 --    11 C    0.936
    53   1 H    0.994 --    12 C    0.947
    54   1 H    0.999 --    14 C    0.968
    55   1 H    0.998 --    15 C    0.970
    56   1 H    0.998 --    16 C    0.968
    57   1 H    0.998 --    19 C    0.959
    58   1 H    0.998 --    20 C    0.971
    59   1 H    0.998 --    21 C    0.971
    60   1 H    0.998 --    22 C    0.968
    61   1 H    0.995 --    26 C    0.960
    62   1 H    0.997 --    28 C    0.970
    63   1 H    0.998 --    28 C    0.985
    64   1 H    0.997 --    28 C    0.972
    65   1 H    0.997 --    29 C    0.968
    66   1 H    0.993 --    32 C    0.927
    67   1 H    0.881 --    34 O    0.855
    68   1 H    0.995 --    39 C    0.952
    69   1 H    0.997 --    41 C    0.972
    70   1 H    0.998 --    41 C    0.986
    71   1 H    0.997 --    41 C    0.971
    72   1 H    0.997 --    42 C    0.969
 ---------------------------------------------------------------------------

molecular dipole:
                 x           y           z       tot (Debye)
 q only:       -0.690       1.239       0.249
   full:       -0.884       1.872       0.444       5.383

           -------------------------------------------------
          | TOTAL ENERGY             -120.020921888359 Eh   |
          | GRADIENT NORM               0.000653454710 Eh/Î± |
          | HOMO-LUMO GAP               2.582560959310 eV   |
           -------------------------------------------------

 * finished run on 2022/03/17 at 01:00:24.524
