   * xtb version 6.3.3 (4ae9cef) compiled by 'conda@95abc7406d43' on 2020-10-14
          program call               : xtb acid_146.xyz --opt --chrg 0 --uhf 0 --gfn 2
          number of atoms            :                    66
          number of electrons        :                   230
          charge                     :                     0
          spin                       :                   0.0

   ID    Z sym.   atoms
    1    6 C      1, 2, 6-15, 19-22, 24-29, 32, 33, 37-42
    2    9 F      3-5, 16-18
    3    7 N      23, 36
    4   16 S      30, 43
    5    8 O      31, 34, 35, 44
    6    1 H      45-66

          :  Hamiltonian                  GFN2-xTB          :
 * total energy  :  -132.5003046 Eh     change       -0.1989207E-08 Eh
 * total energy  :  -132.5162177 Eh     change       -0.1591307E-01 Eh
 * total energy  :  -132.5211874 Eh     change       -0.4969759E-02 Eh
 * total energy  :  -132.5224983 Eh     change       -0.1310884E-02 Eh
 * total energy  :  -132.5233201 Eh     change       -0.8217597E-03 Eh
 * total energy  :  -132.5238447 Eh     change       -0.5245675E-03 Eh
 * total energy  :  -132.5243904 Eh     change       -0.5457527E-03 Eh
 * total energy  :  -132.5250810 Eh     change       -0.6906316E-03 Eh
 * total energy  :  -132.5257872 Eh     change       -0.7061218E-03 Eh
 * total energy  :  -132.5264445 Eh     change       -0.6573528E-03 Eh
 * total energy  :  -132.5308578 Eh     change       -0.2694212E-04 Eh
 * total energy  :  -132.5308655 Eh     change       -0.7702567E-05 Eh
 * total energy  :  -132.5308800 Eh     change       -0.1445693E-04 Eh
 * total energy  :  -132.5308865 Eh     change       -0.6503512E-05 Eh
 * total energy  :  -132.5308986 Eh     change       -0.1214878E-04 Eh
 * total energy  :  -132.5309049 Eh     change       -0.6314141E-05 Eh
 * total energy  :  -132.5309105 Eh     change       -0.5571489E-05 Eh
 * total energy  :  -132.5309157 Eh     change       -0.5180698E-05 Eh
 * total energy  :  -132.5309198 Eh     change       -0.4120509E-05 Eh
   *** GEOMETRY OPTIMIZATION CONVERGED AFTER 42 ITERATIONS ***

 final structure:
================
66
 xtb: 6.3.3 (4ae9cef)
C        -2.49177489169720    2.55969144345535   -0.07096681396994
C        -2.86421474427510    1.57422497056322    1.00506854872326
F        -1.83021827912292    1.06409151742711    1.69766471565232
F        -3.54449066292498    0.51222545220624    0.52759413114433
F        -3.66722087778747    2.11751660097307    1.93421402897224
C        -3.35620639006242    3.63983928961256   -0.23025198474107
C        -3.12440563284633    4.59691093031676   -1.19715069337534
C        -2.02246250302315    4.47609399582065   -2.02416286039178
C        -1.17525228203082    3.39587418596194   -1.88244927609585
C        -1.38934118007078    2.41704035191351   -0.91711920894761
C        -0.36800536639752    1.31168456895426   -0.84654076378201
C         0.68006726321971    1.52812389645808    0.26322331650861
C         1.91326580695825    2.21553278770299   -0.26654420997286
C         2.27405185183940    3.51097600655312    0.10636574542113
C         1.45122918948569    4.29827928898429    1.08880973578108
F         0.17272874999153    4.47025527782514    0.67154956057157
F         1.36348346707123    3.73258431987576    2.30155569799091
F         1.92431981359582    5.53568960091954    1.29186678045540
C         3.41310635880130    4.10408590174678   -0.42644040325756
C         4.19823778804789    3.41672435137257   -1.33187672977438
C         3.84473453210175    2.13330789763340   -1.71175533695886
C         2.71051671042239    1.54377274522160   -1.18793600996029
N         0.95793133443734    0.17193455982770    0.71569235588140
C         2.07317945266587   -0.13014398692521    1.43377402178761
C         2.18955735232888   -1.56031378182614    1.80405196334446
C         1.39231762960202   -2.30796528368067    2.61814694006517
C         1.86478316597119   -3.62644938495135    2.78749902840271
C         3.01656305006341   -3.87773104566652    2.10801211959532
C         3.79359472505435   -5.14376273773068    2.04412778331081
S         3.55787471803817   -2.46684018005953    1.25333949569285
O         2.90253232616524    0.70178829762445    1.72983678392816
C        -0.00898310432780   -0.78617094431802    0.23596911272088
C         0.70098136416202   -1.82303957787082   -0.66157046614853
O         0.43000441481032   -3.07457383678893   -0.31615817348470
O         1.40270765582618   -1.52036214827971   -1.58695380660320
N        -0.92495348084231   -0.00192616187717   -0.55955429540210
C        -1.84711974638295   -0.49532471583068   -1.45217795230801
C        -2.39466427698072   -1.83416570829150   -1.22889633616647
C        -2.98352994291807   -2.57719989737282   -2.21802407064830
C        -3.52156484445990   -3.79093415705264   -1.75800138633646
C        -3.37474538499395   -3.96815177328262   -0.41390322122359
C        -3.82772009034949   -5.11019756346243    0.42153807020870
S        -2.54409875007815   -2.63212897180031    0.30479176465382
O        -2.22212223645672    0.19171857609167   -2.38385932432819
H        -4.21443404230838    3.73056376554757    0.41734148058174
H        -3.80239525002023    5.42926309928443   -1.30162751800568
H        -1.82548596989797    5.21768816025813   -2.78283906294960
H        -0.32205568979189    3.29890582491244   -2.53681866395034
H         0.13740325227408    1.27061145448730   -1.82278205408784
H         0.24694748725626    2.08504077763635    1.09875523309594
H         3.68451905289869    5.10359615166648   -0.12439783045746
H         5.08432156989874    3.88222103109236   -1.73416760685070
H         4.45398105749008    1.58726004420658   -2.41561441505529
H         2.44681511807256    0.53863376723948   -1.48232474578828
H         0.51006650934885   -1.92510026871944    3.09906704207672
H         1.36274679157913   -4.35966170053534    3.39269307757185
H         3.25219472239919   -5.93867652642306    2.55101081515748
H         4.76416820466850   -5.02112320885496    2.52416501747291
H         3.97096966880973   -5.43758226547180    1.01047686846269
H        -0.52606827980045   -1.29705506541191    1.05752945783155
H         0.88214101051464   -3.70701934334734   -0.89989734820259
H        -3.01253488754908   -2.24469985152474   -3.23981941203258
H        -4.00972230990109   -4.50499735181312   -2.39697899782668
H        -4.51641098074256   -4.76934439059082    1.19374972773778
H        -2.98034181903130   -5.58263402703030    0.91758252724628
H        -4.33149926880794   -5.84847503458324   -0.19750596896449

          :  Hamiltonian                  GFN2-xTB          :
         :: total energy            -132.530919823248 Eh    ::
         :: gradient norm              0.000662113815 Eh/a0 ::
         :: HOMO-LUMO gap              3.168259133380 eV    ::
         :: SCC energy              -134.036840193919 Eh    ::
         :: -> dispersion             -0.101475763009 Eh    ::
         :: repulsion energy           1.502825105843 Eh    ::

    * Orbital Energies and Occupations

         #    Occupation            Energy/Eh            Energy/eV
      -------------------------------------------------------------
         1        2.0000           -0.8757546             -23.8305
       ...           ...                  ...                  ...
       103        2.0000           -0.4459418             -12.1347
       104        2.0000           -0.4354951             -11.8504
       105        2.0000           -0.4338371             -11.8053
       106        2.0000           -0.4315200             -11.7423
       107        2.0000           -0.4293339             -11.6828
       108        2.0000           -0.4192007             -11.4070
       109        2.0000           -0.4105257             -11.1710
       110        2.0000           -0.4085409             -11.1170
       111        2.0000           -0.4076123             -11.0917
       112        2.0000           -0.4052405             -11.0272
       113        2.0000           -0.4027820             -10.9603
       114        2.0000           -0.3973214             -10.8117
       115        2.0000           -0.3950871             -10.7509 (HOMO)
       116                         -0.2786557              -7.5826 (LUMO)
       117                         -0.2778899              -7.5618
       118                         -0.2635680              -7.1720
       119                         -0.2606967              -7.0939
       120                         -0.2577069              -7.0126
       121                         -0.2517641              -6.8509
       122                         -0.2468801              -6.7179
       123                         -0.2271527              -6.1811
       124                         -0.2181862              -5.9371
       125                         -0.2074796              -5.6458
       126                         -0.2049844              -5.5779
       ...                                ...                  ...
       208                          0.6794292              18.4882
      -------------------------------------------------------------
                  HL-Gap            0.1164314 Eh            3.1683 eV

     #   Z          covCN         q      C6AA      Î±(0)
     1   6 C        2.974    -0.024    28.607     8.773
     2   6 C        3.337     0.487    17.254     6.577
     3   9 F        0.791    -0.213    11.374     3.984
     4   9 F        0.791    -0.212    11.360     3.981
     5   9 F        0.793    -0.205    11.285     3.968
     6   6 C        2.927    -0.020    28.502     8.755
     7   6 C        2.920    -0.020    28.514     8.757
     8   6 C        2.919    -0.015    28.375     8.735
     9   6 C        2.931    -0.022    28.557     8.764
    10   6 C        2.968     0.026    27.430     8.591
    11   6 C        3.838     0.051    19.694     6.313
    12   6 C        3.820     0.047    19.764     6.327
    13   6 C        2.972     0.024    27.469     8.597
    14   6 C        2.976    -0.027    28.677     8.784
    15   6 C        3.335     0.485    17.309     6.590
    16   9 F        0.791    -0.226    11.509     4.007
    17   9 F        0.791    -0.200    11.240     3.960
    18   9 F        0.792    -0.202    11.255     3.963
    19   6 C        2.923    -0.022    28.549     8.762
    20   6 C        2.920    -0.023    28.579     8.767
    21   6 C        2.919    -0.017    28.433     8.744
    22   6 C        2.926    -0.027    28.680     8.782
    23   7 N        2.769    -0.111    23.412     7.186
    24   6 C        2.787     0.273    22.383     7.750
    25   6 C        2.995    -0.026    28.641     8.779
    26   6 C        3.109    -0.046    28.993     8.822
    27   6 C        3.114    -0.057    29.242     8.858
    28   6 C        2.984     0.026    27.420     8.590
    29   6 C        3.776    -0.113    22.681     6.785
    30  16 S        2.354    -0.003   141.173    19.998
    31   8 O        0.859    -0.410    21.871     6.270
    32   6 C        3.754     0.087    19.185     6.246
    33   6 C        2.690     0.350    21.049     7.508
    34   8 O        1.659    -0.357    20.035     6.043
    35   8 O        0.856    -0.387    21.424     6.206
    36   7 N        2.760    -0.127    23.759     7.239
    37   6 C        2.779     0.270    22.433     7.758
    38   6 C        2.987    -0.023    28.581     8.770
    39   6 C        3.118    -0.031    28.595     8.759
    40   6 C        3.112    -0.057    29.256     8.861
    41   6 C        2.986     0.035    27.203     8.556
    42   6 C        3.778    -0.113    22.681     6.785
    43  16 S        2.345    -0.017   141.771    20.040
    44   8 O        0.860    -0.423    22.149     6.310
    45   1 H        0.926     0.067     2.114     2.273
    46   1 H        0.926     0.059     2.213     2.326
    47   1 H        0.926     0.058     2.218     2.329
    48   1 H        0.926     0.052     2.300     2.372
    49   1 H        0.923     0.067     2.114     2.274
    50   1 H        0.924     0.071     2.076     2.253
    51   1 H        0.926     0.066     2.131     2.283
    52   1 H        0.926     0.056     2.251     2.346
    53   1 H        0.926     0.057     2.235     2.338
    54   1 H        0.926     0.071     2.072     2.251
    55   1 H        0.926     0.044     2.393     2.419
    56   1 H        0.926     0.046     2.374     2.409
    57   1 H        0.925     0.057     2.239     2.340
    58   1 H        0.925     0.063     2.159     2.298
    59   1 H        0.925     0.057     2.230     2.336
    60   1 H        0.924     0.087     1.913     2.163
    61   1 H        0.804     0.346     0.597     1.214
    62   1 H        0.926     0.060     2.193     2.316
    63   1 H        0.926     0.045     2.378     2.411
    64   1 H        0.925     0.065     2.142     2.289
    65   1 H        0.925     0.061     2.187     2.312
    66   1 H        0.925     0.057     2.230     2.335

Wiberg/Mayer (AO) data.
largest (>0.10) Wiberg bond orders for each atom

     #   Z sym  total        # sym  WBO       # sym  WBO       # sym  WBO
 ---------------------------------------------------------------------------
     1   6 C    3.969 --     6 C    1.407    10 C    1.389     2 C    0.952
                             8 C    0.105
     2   6 C    3.820 --     1 C    0.952     5 F    0.950     3 F    0.941
                             4 F    0.937
     3   9 F    1.067 --     2 C    0.941
     4   9 F    1.069 --     2 C    0.937
     5   9 F    1.073 --     2 C    0.950
     6   6 C    3.987 --     7 C    1.448     1 C    1.407    45 H    0.966
                             9 C    0.109
     7   6 C    3.989 --     6 C    1.448     8 C    1.430    46 H    0.969
                            10 C    0.108
     8   6 C    3.989 --     9 C    1.451     7 C    1.430    47 H    0.968
                             1 C    0.105
     9   6 C    3.988 --     8 C    1.451    10 C    1.405    48 H    0.966
                             6 C    0.109
    10   6 C    3.985 --     9 C    1.405     1 C    1.389    11 C    0.995
                             7 C    0.108
    11   6 C    3.967 --    10 C    0.995    36 N    0.963    12 C    0.950
                            49 H    0.947
    12   6 C    3.965 --    13 C    0.993    23 N    0.956    50 H    0.952
                            11 C    0.950
    13   6 C    3.986 --    22 C    1.406    14 C    1.387    12 C    0.993
                            20 C    0.108
    14   6 C    3.969 --    19 C    1.411    13 C    1.387    15 C    0.951
                            21 C    0.104
    15   6 C    3.820 --    18 F    0.954    14 C    0.951    17 F    0.951
                            16 F    0.925
    16   9 F    1.052 --    15 C    0.925
    17   9 F    1.081 --    15 C    0.951
    18   9 F    1.077 --    15 C    0.954
    19   6 C    3.987 --    20 C    1.445    14 C    1.411    51 H    0.966
                            22 C    0.110
    20   6 C    3.989 --    19 C    1.445    21 C    1.431    52 H    0.969
                            13 C    0.108
    21   6 C    3.990 --    22 C    1.450    20 C    1.431    53 H    0.969
                            14 C    0.104
    22   6 C    3.987 --    21 C    1.450    13 C    1.406    54 H    0.959
                            19 C    0.110
    23   7 N    3.461 --    24 C    1.196    32 C    0.984    12 C    0.956
                            31 O    0.191
    24   6 C    3.949 --    31 O    1.690    23 N    1.196    25 C    0.983
    25   6 C    3.945 --    26 C    1.577    30 S    1.148    24 C    0.983
                            28 C    0.109
    26   6 C    3.986 --    25 C    1.577    27 C    1.277    55 H    0.962
    27   6 C    3.984 --    28 C    1.590    26 C    1.277    56 H    0.963
    28   6 C    3.951 --    27 C    1.590    30 S    1.170    29 C    1.039
                            25 C    0.109
    29   6 C    3.993 --    28 C    1.039    57 H    0.979    59 H    0.971
                            58 H    0.966
    30  16 S    2.613 --    28 C    1.170    25 C    1.148
    31   8 O    2.038 --    24 C    1.690    23 N    0.191
    32   6 C    3.966 --    23 N    0.984    36 N    0.981    60 H    0.938
                            33 C    0.908
    33   6 C    3.919 --    35 O    1.771    34 O    1.162    32 C    0.908
    34   8 O    2.230 --    33 C    1.162    61 H    0.853    35 O    0.182
    35   8 O    2.062 --    33 C    1.771    34 O    0.182
    36   7 N    3.416 --    37 C    1.155    32 C    0.981    11 C    0.963
                            44 O    0.167
    37   6 C    3.949 --    44 O    1.666    36 N    1.155    38 C    1.042
    38   6 C    3.941 --    39 C    1.537    43 S    1.136    37 C    1.042
                            41 C    0.103
    39   6 C    3.987 --    38 C    1.537    40 C    1.303    62 H    0.962
    40   6 C    3.984 --    41 C    1.567    39 C    1.303    63 H    0.963
    41   6 C    3.953 --    40 C    1.567    43 S    1.181    42 C    1.041
                            38 C    0.103
    42   6 C    3.993 --    41 C    1.041    66 H    0.979    65 H    0.968
                            64 H    0.967
    43  16 S    2.628 --    41 C    1.181    38 C    1.136
    44   8 O    2.018 --    37 C    1.666    36 N    0.167
    45   1 H    0.995 --     6 C    0.966
    46   1 H    0.996 --     7 C    0.969
    47   1 H    0.996 --     8 C    0.968
    48   1 H    0.997 --     9 C    0.966
    49   1 H    0.995 --    11 C    0.947
    50   1 H    0.994 --    12 C    0.952
    51   1 H    0.995 --    19 C    0.966
    52   1 H    0.996 --    20 C    0.969
    53   1 H    0.996 --    21 C    0.969
    54   1 H    0.995 --    22 C    0.959
    55   1 H    0.998 --    26 C    0.962
    56   1 H    0.997 --    27 C    0.963
    57   1 H    0.996 --    29 C    0.979
    58   1 H    0.995 --    29 C    0.966
    59   1 H    0.996 --    29 C    0.971
    60   1 H    0.992 --    32 C    0.938
    61   1 H    0.880 --    34 O    0.853
    62   1 H    0.996 --    39 C    0.962
    63   1 H    0.997 --    40 C    0.963
    64   1 H    0.994 --    42 C    0.967
    65   1 H    0.995 --    42 C    0.968
    66   1 H    0.996 --    42 C    0.979
 ---------------------------------------------------------------------------

molecular dipole:
                 x           y           z       tot (Debye)
 q only:        0.409      -2.230      -1.203
   full:        0.111      -2.553      -1.174       7.147

           -------------------------------------------------
          | TOTAL ENERGY             -132.530919823248 Eh   |
          | GRADIENT NORM               0.000662113815 Eh/Î± |
          | HOMO-LUMO GAP               3.168259133380 eV   |
           -------------------------------------------------

 * finished run on 2022/03/16 at 21:51:08.906
