   * xtb version 6.3.3 (4ae9cef) compiled by 'conda@95abc7406d43' on 2020-10-14
          program call               : xtb acid_366.xyz --opt --chrg 0 --uhf 0 --gfn 2
          number of atoms            :                    78
          number of electrons        :                   250
          charge                     :                     0
          spin                       :                   0.0

   ID    Z sym.   atoms
    1    6 C      1, 2, 6-15, 19-22, 24-32, 34, 35, 39-47
    2    9 F      3-5, 16-18
    3    7 N      23, 38
    4    8 O      33, 36, 37, 48
    5    1 H      49-78

          :  Hamiltonian                  GFN2-xTB          :
 * total energy  :  -142.9460201 Eh     change       -0.1667644E-08 Eh
 * total energy  :  -142.9624663 Eh     change       -0.1644613E-01 Eh
 * total energy  :  -142.9669586 Eh     change       -0.4492365E-02 Eh
 * total energy  :  -142.9683018 Eh     change       -0.1343130E-02 Eh
 * total energy  :  -142.9693034 Eh     change       -0.1001630E-02 Eh
 * total energy  :  -142.9699068 Eh     change       -0.6033874E-03 Eh
 * total energy  :  -142.9704010 Eh     change       -0.4942124E-03 Eh
 * total energy  :  -142.9708915 Eh     change       -0.4905214E-03 Eh
 * total energy  :  -142.9712850 Eh     change       -0.3935161E-03 Eh
 * total energy  :  -142.9715467 Eh     change       -0.2616398E-03 Eh
 * total energy  :  -142.9740736 Eh     change       -0.1066757E-04 Eh
 * total energy  :  -142.9740851 Eh     change       -0.1147403E-04 Eh
 * total energy  :  -142.9740962 Eh     change       -0.1106945E-04 Eh
 * total energy  :  -142.9741051 Eh     change       -0.8934320E-05 Eh
 * total energy  :  -142.9741102 Eh     change       -0.5126998E-05 Eh
 * total energy  :  -142.9741100 Eh     change        0.1874709E-06 Eh
 * total energy  :  -142.9741029 Eh     change        0.7102387E-05 Eh
 * total energy  :  -142.9741131 Eh     change       -0.1013222E-04 Eh
 * total energy  :  -142.9741173 Eh     change       -0.4238572E-05 Eh
   *** GEOMETRY OPTIMIZATION CONVERGED AFTER 62 ITERATIONS ***

 final structure:
================
78
 xtb: 6.3.3 (4ae9cef)
C         0.14284352503520   -4.76133057616624    0.12636054895727
C         0.89795883411343   -4.93982455487391    1.41462487371998
F         0.34987242485820   -4.30507018548997    2.46549313290794
F         2.16607477307852   -4.47404761584001    1.33526970757386
F         1.00914255879519   -6.22211928664719    1.78229474601291
C        -0.35308390245277   -5.89221689575586   -0.50959911509515
C        -1.02255771059142   -5.77922071954999   -1.71325259289005
C        -1.18797575567228   -4.53385337397842   -2.29173087274847
C        -0.69510224750154   -3.40862219225053   -1.65922054624955
C        -0.03136313711431   -3.49837916762902   -0.44159607525015
C         0.47018415577371   -2.23483167889450    0.20775418951590
C         1.65556238832203   -1.58349763743400   -0.54344741857293
C         2.98089392353901   -1.89407575083180    0.09867225372430
C         3.92335464399285   -2.74680112152891   -0.47489516962986
C         3.65413578415760   -3.43186987179001   -1.78557934780464
F         2.53313500636370   -4.19202117371929   -1.74628885993961
F         4.63617009952974   -4.26540567239788   -2.15210736509456
F         3.48232897566036   -2.59011281657893   -2.81677775916961
C         5.12652734470316   -3.00115030952988    0.17161842700538
C         5.39991164540914   -2.41454772396465    1.39194231416737
C         4.46545196247195   -1.57797496943484    1.97625362462367
C         3.26876573908688   -1.32752861400492    1.33490047415817
N         1.34974776139053   -0.15878669130245   -0.44334741757617
C         2.24858173407749    0.79215544196548   -0.85870187463234
C         1.72031941088754    2.18638880144285   -0.79440996750523
C         1.67507446267957    2.96167443250549   -1.94501836507483
C         1.18728763397076    4.25402845199926   -1.88743642365813
C         0.75296877831438    4.80186856966507   -0.68642023581997
C         0.26866762398263    6.22151709387536   -0.62386207609609
C         1.44557941712585    7.17715371220353   -0.41883677743374
C         0.82865969635166    4.02821988498863    0.46564642190209
C         1.30384092995523    2.73135089316829    0.41585430302666
O         3.38153322051337    0.51213394936295   -1.17024269032177
C        -0.07707684318185    0.00802846560477   -0.44653934405776
C        -0.60139130304158    0.13907891410011   -1.91155914180990
O        -1.92531697047797    0.12654055151984   -2.04563733801982
O         0.13921218883650    0.26553673634582   -2.83830085932157
N        -0.55497285260503   -1.18901453745792    0.20475097362127
C        -1.73405190880508   -1.39041981466479    0.85679517683150
C        -2.63313117923816   -0.19444004522163    0.94657150173730
C        -3.88615938608719   -0.22974230074075    0.33780508704404
C        -4.73827224546642    0.85546023146602    0.43990179899478
C        -4.36876907535806    1.98622595968047    1.15806941420773
C        -5.31265485389973    3.14288535538291    1.30076561029265
C        -6.22794728103627    2.93515650046856    2.50970133615901
C        -3.13223766411936    1.99773392639900    1.79418628429139
C        -2.27060224619084    0.92199273830160    1.69416666746437
O        -2.03153976689385   -2.47156691858038    1.31279527611642
H        -0.21166318119337   -6.86203813654408   -0.05911357868432
H        -1.40636743621783   -6.66293467028256   -2.19823315542778
H        -1.69850354434449   -4.43484248811825   -3.23737664988812
H        -0.82464555391524   -2.44265784815077   -2.12422336358406
H         0.74623355830608   -2.41946397439319    1.25037921884160
H         1.63943023492663   -1.88032192030594   -1.59794399535948
H         5.84741256087181   -3.66096873512976   -0.28501239529803
H         6.33836201673592   -2.61444992197713    1.88479173833255
H         4.66838121038968   -1.12092418634305    2.93285860352388
H         2.54282166523553   -0.67070850557181    1.79056622262334
H         2.00853956443511    2.53622460132336   -2.87826223360028
H         1.14352112511144    4.84822536412959   -2.78844281749738
H        -0.24456269687860    6.47811356521104   -1.55219413869007
H        -0.43699710049262    6.33783851191607    0.20107187561923
H         1.96368798910158    6.94530984563855    0.50854677841102
H         1.09664561781279    8.20611861240750   -0.37514695691820
H         2.15441831098778    7.08399213957465   -1.23777899823538
H         0.51325453116198    4.44689289209966    1.41100131682685
H         1.37416223252949    2.14579609993999    1.32253705159651
H        -0.37870942953052    0.92103276751001    0.08421446262474
H        -2.41747670544135    0.03258006261062   -1.20682397101516
H        -4.19165209814547   -1.11704732852957   -0.19816051061482
H        -5.70429575694752    0.82091350082730   -0.04116040509285
H        -4.74815850368719    4.06794821987209    1.43050016147861
H        -5.92200037831286    3.23591814451671    0.40019247114733
H        -6.80967290285938    2.02397895589919    2.39289686082117
H        -5.64008026494162    2.85064050981809    3.42063170775514
H        -6.91201741108352    3.77348622604342    2.61364760625486
H        -2.84317068929614    2.85859736804811    2.37897224652734
H        -1.32647827756018    0.93609193377827    2.21967733724068

          :  Hamiltonian                  GFN2-xTB          :
         :: total energy            -142.974117314584 Eh    ::
         :: gradient norm              0.000562981622 Eh/a0 ::
         :: HOMO-LUMO gap              3.456628021466 eV    ::
         :: SCC energy              -144.778012320365 Eh    ::
         :: -> dispersion             -0.108219904024 Eh    ::
         :: repulsion energy           1.800285557027 Eh    ::

    * Orbital Energies and Occupations

         #    Occupation            Energy/Eh            Energy/eV
      -------------------------------------------------------------
         1        2.0000           -0.8747216             -23.8024
       ...           ...                  ...                  ...
       113        2.0000           -0.4405356             -11.9876
       114        2.0000           -0.4375216             -11.9056
       115        2.0000           -0.4345512             -11.8247
       116        2.0000           -0.4336913             -11.8013
       117        2.0000           -0.4325695             -11.7708
       118        2.0000           -0.4307631             -11.7217
       119        2.0000           -0.4275687             -11.6347
       120        2.0000           -0.4235430             -11.5252
       121        2.0000           -0.4200276             -11.4295
       122        2.0000           -0.4158926             -11.3170
       123        2.0000           -0.4122959             -11.2191
       124        2.0000           -0.4047980             -11.0151
       125        2.0000           -0.3985607             -10.8454 (HOMO)
       126                         -0.2715319              -7.3888 (LUMO)
       127                         -0.2678863              -7.2896
       128                         -0.2636301              -7.1737
       129                         -0.2595949              -7.0639
       130                         -0.2574970              -7.0069
       131                         -0.2539180              -6.9095
       132                         -0.2515638              -6.8454
       133                         -0.2470658              -6.7230
       134                         -0.2380623              -6.4780
       135                         -0.2288062              -6.2261
       136                         -0.2129887              -5.7957
       ...                                ...                  ...
       222                          0.6609472              17.9853
      -------------------------------------------------------------
                  HL-Gap            0.1270287 Eh            3.4566 eV

     #   Z          covCN         q      C6AA      Î±(0)
     1   6 C        2.976    -0.021    28.523     8.760
     2   6 C        3.335     0.486    17.293     6.587
     3   9 F        0.791    -0.203    11.271     3.966
     4   9 F        0.791    -0.223    11.473     4.001
     5   9 F        0.792    -0.200    11.233     3.959
     6   6 C        2.923    -0.018    28.458     8.748
     7   6 C        2.920    -0.020    28.507     8.756
     8   6 C        2.919    -0.016    28.410     8.741
     9   6 C        2.927    -0.023    28.585     8.768
    10   6 C        2.971     0.022    27.508     8.603
    11   6 C        3.827     0.047    19.774     6.328
    12   6 C        3.834     0.049    19.730     6.320
    13   6 C        2.972     0.028    27.383     8.584
    14   6 C        2.977    -0.021    28.537     8.763
    15   6 C        3.335     0.486    17.291     6.586
    16   9 F        0.791    -0.225    11.499     4.006
    17   9 F        0.792    -0.201    11.242     3.961
    18   9 F        0.791    -0.201    11.242     3.961
    19   6 C        2.923    -0.018    28.451     8.747
    20   6 C        2.921    -0.020    28.507     8.756
    21   6 C        2.919    -0.016    28.405     8.740
    22   6 C        2.928    -0.021    28.526     8.759
    23   7 N        2.771    -0.125    23.720     7.233
    24   6 C        2.762     0.280    22.262     7.727
    25   6 C        2.978    -0.024    28.591     8.771
    26   6 C        2.921    -0.021    28.529     8.759
    27   6 C        2.925    -0.034    28.850     8.808
    28   6 C        2.971     0.017    27.630     8.622
    29   6 C        3.807    -0.059    21.629     6.620
    30   6 C        3.754    -0.099    22.456     6.757
    31   6 C        2.924    -0.039    28.978     8.828
    32   6 C        2.921    -0.037    28.923     8.819
    33   8 O        0.858    -0.399    21.661     6.240
    34   6 C        3.764     0.072    19.417     6.281
    35   6 C        2.684     0.343    21.178     7.531
    36   8 O        1.658    -0.363    20.146     6.059
    37   8 O        0.856    -0.341    20.540     6.076
    38   7 N        2.765    -0.129    23.791     7.244
    39   6 C        2.760     0.265    22.530     7.773
    40   6 C        2.974    -0.036    28.881     8.815
    41   6 C        2.920    -0.038    28.939     8.822
    42   6 C        2.923    -0.034    28.844     8.807
    43   6 C        2.971     0.022    27.503     8.602
    44   6 C        3.807    -0.061    21.659     6.625
    45   6 C        3.754    -0.100    22.473     6.760
    46   6 C        2.924    -0.034    28.855     8.809
    47   6 C        2.919    -0.033    28.825     8.804
    48   8 O        0.859    -0.408    21.841     6.266
    49   1 H        0.926     0.070     2.086     2.259
    50   1 H        0.926     0.059     2.207     2.323
    51   1 H        0.926     0.059     2.215     2.327
    52   1 H        0.926     0.046     2.374     2.409
    53   1 H        0.924     0.070     2.087     2.259
    54   1 H        0.924     0.065     2.147     2.291
    55   1 H        0.926     0.069     2.094     2.263
    56   1 H        0.926     0.058     2.219     2.330
    57   1 H        0.926     0.056     2.251     2.346
    58   1 H        0.926     0.047     2.359     2.402
    59   1 H        0.926     0.059     2.205     2.322
    60   1 H        0.926     0.044     2.395     2.420
    61   1 H        0.924     0.040     2.443     2.444
    62   1 H        0.924     0.037     2.492     2.469
    63   1 H        0.925     0.038     2.472     2.459
    64   1 H        0.925     0.040     2.451     2.448
    65   1 H        0.925     0.041     2.442     2.444
    66   1 H        0.926     0.035     2.510     2.478
    67   1 H        0.925     0.026     2.642     2.542
    68   1 H        0.923     0.067     2.123     2.279
    69   1 H        0.803     0.329     0.641     1.258
    70   1 H        0.926     0.049     2.335     2.389
    71   1 H        0.926     0.049     2.337     2.390
    72   1 H        0.924     0.043     2.413     2.429
    73   1 H        0.924     0.044     2.392     2.419
    74   1 H        0.925     0.041     2.434     2.440
    75   1 H        0.925     0.040     2.446     2.446
    76   1 H        0.925     0.044     2.400     2.423
    77   1 H        0.926     0.045     2.384     2.415
    78   1 H        0.926     0.037     2.495     2.470

Wiberg/Mayer (AO) data.
largest (>0.10) Wiberg bond orders for each atom

     #   Z sym  total        # sym  WBO       # sym  WBO       # sym  WBO
 ---------------------------------------------------------------------------
     1   6 C    3.971 --     6 C    1.416    10 C    1.384     2 C    0.952
                             8 C    0.106
     2   6 C    3.822 --     5 F    0.957     1 C    0.952     3 F    0.946
                             4 F    0.929
     3   9 F    1.077 --     2 C    0.946
     4   9 F    1.056 --     2 C    0.929
     5   9 F    1.079 --     2 C    0.957
     6   6 C    3.987 --     7 C    1.441     1 C    1.416    49 H    0.965
                             9 C    0.109
     7   6 C    3.988 --     6 C    1.441     8 C    1.435    50 H    0.969
                            10 C    0.109
     8   6 C    3.990 --     9 C    1.445     7 C    1.435    51 H    0.969
                             1 C    0.106
     9   6 C    3.991 --     8 C    1.445    10 C    1.413    52 H    0.964
                             6 C    0.109
    10   6 C    3.987 --     9 C    1.413     1 C    1.384    11 C    0.995
                             7 C    0.109
    11   6 C    3.964 --    10 C    0.995    53 H    0.953    38 N    0.952
                            12 C    0.950
    12   6 C    3.968 --    13 C    0.998    23 N    0.958    54 H    0.953
                            11 C    0.950
    13   6 C    3.987 --    22 C    1.407    14 C    1.387    12 C    0.998
                            20 C    0.109
    14   6 C    3.971 --    19 C    1.413    13 C    1.387    15 C    0.952
                            21 C    0.105
    15   6 C    3.822 --    17 F    0.955    14 C    0.952    18 F    0.949
                            16 F    0.926
    16   9 F    1.053 --    15 C    0.926
    17   9 F    1.078 --    15 C    0.955
    18   9 F    1.080 --    15 C    0.949
    19   6 C    3.987 --    20 C    1.444    14 C    1.413    55 H    0.965
                            22 C    0.109
    20   6 C    3.989 --    19 C    1.444    21 C    1.432    56 H    0.969
                            13 C    0.109
    21   6 C    3.990 --    22 C    1.450    20 C    1.432    57 H    0.969
                            14 C    0.105
    22   6 C    3.990 --    21 C    1.450    13 C    1.407    58 H    0.967
                            19 C    0.109
    23   7 N    3.417 --    24 C    1.159    34 C    1.000    12 C    0.958
                            33 O    0.177
    24   6 C    3.940 --    33 O    1.727    23 N    1.159    25 C    0.968
    25   6 C    3.986 --    26 C    1.404    32 C    1.394    24 C    0.968
                            28 C    0.106
    26   6 C    3.988 --    27 C    1.448    25 C    1.404    59 H    0.967
                            31 C    0.107
    27   6 C    3.991 --    26 C    1.448    28 C    1.411    60 H    0.968
                            32 C    0.109
    28   6 C    3.988 --    27 C    1.411    31 C    1.405    29 C    1.014
                            25 C    0.106
    29   6 C    3.997 --    28 C    1.014    30 C    0.999    62 H    0.975
                            61 H    0.973
    30   6 C    3.995 --    29 C    0.999    63 H    0.988    65 H    0.988
                            64 H    0.986
    31   6 C    3.991 --    32 C    1.451    28 C    1.405    66 H    0.968
                            26 C    0.107
    32   6 C    3.991 --    31 C    1.451    25 C    1.394    67 H    0.969
                            27 C    0.109
    33   8 O    2.047 --    24 C    1.727    23 N    0.177
    34   6 C    3.969 --    23 N    1.000    38 N    0.984    68 H    0.928
                            35 C    0.888
    35   6 C    3.923 --    37 O    1.811    36 O    1.153    34 C    0.888
    36   8 O    2.224 --    35 C    1.153    69 H    0.827    37 O    0.174
    37   8 O    2.103 --    35 C    1.811    36 O    0.174
    38   7 N    3.455 --    39 C    1.198    34 C    0.984    11 C    0.952
                            48 O    0.194
    39   6 C    3.946 --    48 O    1.703    38 N    1.198    40 C    0.958
    40   6 C    3.985 --    47 C    1.392    41 C    1.387    39 C    0.958
                            43 C    0.105
    41   6 C    3.990 --    42 C    1.442    40 C    1.387    70 H    0.967
                            46 C    0.105
    42   6 C    3.990 --    41 C    1.442    43 C    1.410    71 H    0.967
                            47 C    0.107
    43   6 C    3.987 --    42 C    1.410    46 C    1.403    44 C    1.016
                            40 C    0.105
    44   6 C    3.996 --    43 C    1.016    45 C    0.997    72 H    0.973
                            73 H    0.973
    45   6 C    3.994 --    44 C    0.997    75 H    0.988    74 H    0.988
                            76 H    0.985
    46   6 C    3.990 --    47 C    1.453    43 C    1.403    77 H    0.967
                            41 C    0.105
    47   6 C    3.991 --    46 C    1.453    40 C    1.392    78 H    0.967
                            42 C    0.107
    48   8 O    2.037 --    39 C    1.703    38 N    0.194
    49   1 H    0.995 --     6 C    0.965
    50   1 H    0.996 --     7 C    0.969
    51   1 H    0.996 --     8 C    0.969
    52   1 H    0.998 --     9 C    0.964
    53   1 H    0.995 --    11 C    0.953
    54   1 H    0.995 --    12 C    0.953
    55   1 H    0.995 --    19 C    0.965
    56   1 H    0.996 --    20 C    0.969
    57   1 H    0.996 --    21 C    0.969
    58   1 H    0.997 --    22 C    0.967
    59   1 H    0.996 --    26 C    0.967
    60   1 H    0.998 --    27 C    0.968
    61   1 H    0.998 --    29 C    0.973
    62   1 H    0.998 --    29 C    0.975
    63   1 H    0.999 --    30 C    0.988
    64   1 H    0.997 --    30 C    0.986
    65   1 H    0.998 --    30 C    0.988
    66   1 H    0.998 --    31 C    0.968
    67   1 H    0.999 --    32 C    0.969
    68   1 H    0.995 --    34 C    0.928
    69   1 H    0.892 --    36 O    0.827
    70   1 H    0.997 --    41 C    0.967
    71   1 H    0.997 --    42 C    0.967
    72   1 H    0.998 --    44 C    0.973
    73   1 H    0.998 --    44 C    0.973
    74   1 H    0.998 --    45 C    0.988
    75   1 H    0.998 --    45 C    0.988
    76   1 H    0.997 --    45 C    0.985
    77   1 H    0.997 --    46 C    0.967
    78   1 H    0.998 --    47 C    0.967
 ---------------------------------------------------------------------------

molecular dipole:
                 x           y           z       tot (Debye)
 q only:       -2.104       2.325       0.973
   full:       -2.388       2.519       1.242       9.370

           -------------------------------------------------
          | TOTAL ENERGY             -142.974117314584 Eh   |
          | GRADIENT NORM               0.000562981622 Eh/Î± |
          | HOMO-LUMO GAP               3.456628021466 eV   |
           -------------------------------------------------

 * finished run on 2022/03/17 at 00:20:02.280
