   * xtb version 6.3.3 (4ae9cef) compiled by 'conda@95abc7406d43' on 2020-10-14
          program call               : xtb acid_154.xyz --opt --chrg 0 --uhf 0 --gfn 2
          number of atoms            :                    66
          number of electrons        :                   230
          charge                     :                     0
          spin                       :                   0.0

   ID    Z sym.   atoms
    1    6 C      1, 2, 6-15, 19-22, 24-29, 32, 33, 37-42
    2    9 F      3-5, 16-18
    3    7 N      23, 36
    4    8 O      30, 31, 34, 35, 43, 44
    5    1 H      45-66

          :  Hamiltonian                  GFN2-xTB          :
 * total energy  :  -134.1481761 Eh     change       -0.3818343E-08 Eh
 * total energy  :  -134.1640035 Eh     change       -0.1582745E-01 Eh
 * total energy  :  -134.1696280 Eh     change       -0.5624506E-02 Eh
 * total energy  :  -134.1715924 Eh     change       -0.1964352E-02 Eh
 * total energy  :  -134.1729431 Eh     change       -0.1350728E-02 Eh
 * total energy  :  -134.1737535 Eh     change       -0.8103992E-03 Eh
 * total energy  :  -134.1743189 Eh     change       -0.5653928E-03 Eh
 * total energy  :  -134.1746642 Eh     change       -0.3453617E-03 Eh
 * total energy  :  -134.1749954 Eh     change       -0.3311219E-03 Eh
 * total energy  :  -134.1753125 Eh     change       -0.3171554E-03 Eh
 * total energy  :  -134.1790226 Eh     change       -0.8933288E-05 Eh
 * total energy  :  -134.1790408 Eh     change       -0.1820025E-04 Eh
 * total energy  :  -134.1790497 Eh     change       -0.8868077E-05 Eh
 * total energy  :  -134.1790425 Eh     change        0.7151796E-05 Eh
 * total energy  :  -134.1790548 Eh     change       -0.1232127E-04 Eh
 * total energy  :  -134.1790619 Eh     change       -0.7043409E-05 Eh
 * total energy  :  -134.1790674 Eh     change       -0.5553017E-05 Eh
 * total energy  :  -134.1790768 Eh     change       -0.9388789E-05 Eh
 * total energy  :  -134.1790790 Eh     change       -0.2235904E-05 Eh
   *** GEOMETRY OPTIMIZATION CONVERGED AFTER 68 ITERATIONS ***

 final structure:
================
66
 xtb: 6.3.3 (4ae9cef)
C         1.68529909119938   -2.23113031117939    0.93503122869169
C         2.03321144900196   -2.66930733335823   -0.46332545094495
F         1.47480375468101   -3.86780680644393   -0.73595096173797
F         3.35937296760681   -2.84359101552743   -0.60834630669483
F         1.65665455035753   -1.87257792652966   -1.47141026353605
C         1.96016991985587   -3.20775870442528    1.89389737096367
C         1.68440121296832   -2.99068734673148    3.22735856077243
C         1.11182409977847   -1.78972618493118    3.61402577471960
C         0.84592782021301   -0.82048388724867    2.66930829881046
C         1.14999804875627   -1.00166868274308    1.31909216292795
C         0.80584906676130    0.12212622781968    0.37448488166725
C        -0.73284483889045    0.15058613483668    0.12699668214348
C        -1.10218320485923   -0.83721602133226   -0.95634965624144
C        -1.13946450451947   -0.61316577324309   -2.33341300294923
C        -0.85757724234474    0.73163887923083   -2.94483229033955
F        -0.72843655959796    0.67449681118817   -4.27978740086785
F        -1.83212316869791    1.63122797779199   -2.72197847773806
F         0.28667595311857    1.27611654285120   -2.50092320447952
C        -1.45302221556935   -1.65078306420660   -3.20752750920110
C        -1.70378040469718   -2.92337425292297   -2.73636517217553
C        -1.64921946074913   -3.16567839348750   -1.37514950649193
C        -1.35974075494678   -2.13278660521712   -0.50708009928097
N        -1.03287270574540    1.56338778406623   -0.03192307272005
C        -2.27346172728028    2.15800017513313    0.06203963115363
C        -3.46238769598116    1.35520419167507   -0.21012355627412
C        -4.73185933141169    1.82873528195449   -0.47866215047771
C        -5.17639428753643    3.24127288429092   -0.52843974983462
C        -5.52689166804271    0.67751317282863   -0.69887500497497
C        -4.70324567080634   -0.39459636514791   -0.54539111938398
O        -3.45794366691139   -0.00382630845305   -0.24935227988221
O        -2.36374628245549    3.34317904214852    0.31913776290332
C         0.09590644741097    2.36703376337543    0.40228189179735
C         0.75558279976072    3.16674748093194   -0.74099437146610
O        -0.11189547751917    3.91748374575016   -1.38947751606841
O         1.93029070329881    3.11782199112444   -0.97780074826279
N         1.03950846418320    1.42970344600211    0.95026453398787
C         2.12001544105440    1.85864922539776    1.66705416617636
C         3.20453272135966    0.84833913616646    1.80101726124458
C         4.04667550648552    0.31830575786062    0.85697411558905
C         4.10600036525890    0.61785433430538   -0.59819743958821
C         4.91144880275758   -0.55374227951861    1.57350141953054
C         4.53762747198119   -0.47807073411001    2.87721803482019
O         3.51515347085079    0.37608806703794    3.03157434228873
O         2.15571154339813    2.95995413559941    2.16540297228842
H         2.39327124201971   -4.14364996300423    1.57475987383538
H         1.90989327063967   -3.75285059977266    3.95606335310882
H         0.87701530670896   -1.60575686722805    4.65075917232059
H         0.41479757049025    0.11891662485992    2.98040017176522
H         1.33295544306366    0.04382054786234   -0.57948684553125
H        -1.22947113376682   -0.20107551622863    1.04520984687160
H        -1.48804481123339   -1.45557512122940   -4.26777463272761
H        -1.93522202090423   -3.71782472518012   -3.42773550452580
H        -1.83086770439178   -4.15630897016163   -0.98831871185958
H        -1.33370575605608   -2.32929823100547    0.55487217754932
H        -5.33116472849478    3.61766946894926    0.48190581167622
H        -4.40545942077155    3.85720892456853   -0.98395239205468
H        -6.10648727742791    3.32839947720118   -1.08381368800940
H        -6.57011512931740    0.65907123575764   -0.93877666471149
H        -4.87627929342734   -1.45086271881940   -0.61448968938055
H        -0.22922193330015    3.10968060814131    1.14907904356888
H         0.32355925896513    4.42910049829441   -2.09127931977457
H         3.43918460765847    1.43650915603462   -0.85341603688102
H         5.12158792855574    0.90019047431051   -0.86987263886042
H         3.84511137577427   -0.26165003148382   -1.18568271948865
H         5.69890097420650   -1.14703371592322    1.15681085133907
H         4.90621142747334   -0.96216874855190    3.75975276090689

          :  Hamiltonian                  GFN2-xTB          :
         :: total energy            -134.179079046760 Eh    ::
         :: gradient norm              0.000358974216 Eh/a0 ::
         :: HOMO-LUMO gap              2.972567309826 eV    ::
         :: SCC energy              -135.675975194915 Eh    ::
         :: -> dispersion             -0.101756340682 Eh    ::
         :: repulsion energy           1.492255139348 Eh    ::

    * Orbital Energies and Occupations

         #    Occupation            Energy/Eh            Energy/eV
      -------------------------------------------------------------
         1        2.0000           -0.8934384             -24.3117
       ...           ...                  ...                  ...
       103        2.0000           -0.4536743             -12.3451
       104        2.0000           -0.4503660             -12.2551
       105        2.0000           -0.4483006             -12.1989
       106        2.0000           -0.4415219             -12.0144
       107        2.0000           -0.4390487             -11.9471
       108        2.0000           -0.4302602             -11.7080
       109        2.0000           -0.4189701             -11.4008
       110        2.0000           -0.4176829             -11.3657
       111        2.0000           -0.4085770             -11.1179
       112        2.0000           -0.4065377             -11.0625
       113        2.0000           -0.4030179             -10.9667
       114        2.0000           -0.3969852             -10.8025
       115        2.0000           -0.3907914             -10.6340 (HOMO)
       116                         -0.2815516              -7.6614 (LUMO)
       117                         -0.2746696              -7.4741
       118                         -0.2718441              -7.3973
       119                         -0.2672491              -7.2722
       120                         -0.2639894              -7.1835
       121                         -0.2431435              -6.6163
       122                         -0.2401463              -6.5347
       123                         -0.2032049              -5.5295
       124                         -0.1972971              -5.3687
       125                         -0.1618946              -4.4054
       126                         -0.1500281              -4.0825
       ...                                ...                  ...
       198                          0.6865521              18.6820
      -------------------------------------------------------------
                  HL-Gap            0.1092398 Eh            2.9726 eV

     #   Z          covCN         q      C6AA      Î±(0)
     1   6 C        2.975    -0.035    28.858     8.812
     2   6 C        3.342     0.484    17.228     6.561
     3   9 F        0.792    -0.212    11.357     3.981
     4   9 F        0.792    -0.202    11.261     3.964
     5   9 F        0.792    -0.211    11.344     3.979
     6   6 C        2.932    -0.022    28.567     8.765
     7   6 C        2.918    -0.023    28.591     8.768
     8   6 C        2.918    -0.016    28.421     8.742
     9   6 C        2.929    -0.026    28.654     8.779
    10   6 C        2.968     0.011    27.759     8.642
    11   6 C        3.830     0.035    19.956     6.356
    12   6 C        3.829     0.046    19.775     6.327
    13   6 C        2.966     0.018    27.597     8.617
    14   6 C        2.975    -0.025    28.626     8.776
    15   6 C        3.336     0.489    17.239     6.575
    16   9 F        0.793    -0.204    11.278     3.967
    17   9 F        0.791    -0.208    11.320     3.974
    18   9 F        0.791    -0.209    11.331     3.976
    19   6 C        2.926    -0.021    28.538     8.761
    20   6 C        2.920    -0.021    28.541     8.761
    21   6 C        2.918    -0.017    28.430     8.744
    22   6 C        2.933    -0.031    28.765     8.796
    23   7 N        2.752    -0.127    23.758     7.239
    24   6 C        2.764     0.264    22.546     7.776
    25   6 C        3.109     0.069    26.314     8.404
    26   6 C        3.063     0.014    27.645     8.622
    27   6 C        3.754    -0.115    22.752     6.801
    28   6 C        3.011    -0.069    29.699     8.939
    29   6 C        3.054     0.076    26.256     8.403
    30   8 O        1.727    -0.199    17.311     5.618
    31   8 O        0.860    -0.412    21.930     6.279
    32   6 C        3.789     0.095    19.021     6.211
    33   6 C        2.688     0.362    20.851     7.473
    34   8 O        1.660    -0.337    19.659     5.986
    35   8 O        0.856    -0.391    21.500     6.217
    36   7 N        2.767    -0.118    23.559     7.209
    37   6 C        2.756     0.275    22.342     7.740
    38   6 C        3.123     0.065    26.365     8.409
    39   6 C        3.061    -0.012    28.242     8.715
    40   6 C        3.754    -0.118    22.813     6.811
    41   6 C        3.018    -0.074    29.812     8.956
    42   6 C        3.058     0.067    26.439     8.432
    43   8 O        1.728    -0.181    17.024     5.571
    44   8 O        0.859    -0.396    21.602     6.232
    45   1 H        0.926     0.064     2.153     2.295
    46   1 H        0.926     0.060     2.200     2.319
    47   1 H        0.926     0.062     2.175     2.306
    48   1 H        0.926     0.062     2.171     2.304
    49   1 H        0.924     0.076     2.017     2.221
    50   1 H        0.923     0.056     2.244     2.343
    51   1 H        0.926     0.071     2.073     2.252
    52   1 H        0.926     0.061     2.188     2.313
    53   1 H        0.926     0.060     2.204     2.321
    54   1 H        0.926     0.043     2.407     2.426
    55   1 H        0.925     0.070     2.084     2.258
    56   1 H        0.925     0.079     1.989     2.206
    57   1 H        0.925     0.053     2.279     2.361
    58   1 H        0.926     0.052     2.298     2.371
    59   1 H        0.926     0.051     2.307     2.375
    60   1 H        0.923     0.112     1.683     2.029
    61   1 H        0.804     0.346     0.597     1.213
    62   1 H        0.925     0.070     2.087     2.259
    63   1 H        0.925     0.060     2.199     2.319
    64   1 H        0.925     0.049     2.328     2.386
    65   1 H        0.926     0.049     2.328     2.386
    66   1 H        0.926     0.051     2.311     2.377

Wiberg/Mayer (AO) data.
largest (>0.10) Wiberg bond orders for each atom

     #   Z sym  total        # sym  WBO       # sym  WBO       # sym  WBO
 ---------------------------------------------------------------------------
     1   6 C    3.968 --    10 C    1.397     6 C    1.395     2 C    0.950
                             8 C    0.103
     2   6 C    3.821 --     1 C    0.950     5 F    0.947     4 F    0.946
                             3 F    0.939
     3   9 F    1.064 --     2 C    0.939
     4   9 F    1.075 --     2 C    0.946
     5   9 F    1.075 --     2 C    0.947
     6   6 C    3.988 --     7 C    1.458     1 C    1.395    45 H    0.966
                             9 C    0.111
     7   6 C    3.988 --     6 C    1.458     8 C    1.419    46 H    0.968
                            10 C    0.105
     8   6 C    3.989 --     9 C    1.461     7 C    1.419    47 H    0.968
                             1 C    0.103
     9   6 C    3.988 --     8 C    1.461    10 C    1.392    48 H    0.964
                             6 C    0.111
    10   6 C    3.987 --     1 C    1.397     9 C    1.392    11 C    0.998
                             7 C    0.105
    11   6 C    3.971 --    10 C    0.998    36 N    0.974    49 H    0.948
                            12 C    0.934
    12   6 C    3.974 --    13 C    0.994    23 N    0.975    50 H    0.949
                            11 C    0.934
    13   6 C    3.986 --    22 C    1.397    14 C    1.393    12 C    0.994
                            20 C    0.109
    14   6 C    3.971 --    19 C    1.406    13 C    1.393    15 C    0.951
                            21 C    0.104
    15   6 C    3.823 --    14 C    0.951    16 F    0.950    17 F    0.943
                            18 F    0.942
    16   9 F    1.073 --    15 C    0.950
    17   9 F    1.072 --    15 C    0.943
    18   9 F    1.074 --    15 C    0.942
    19   6 C    3.987 --    20 C    1.450    14 C    1.406    51 H    0.965
                            22 C    0.110
    20   6 C    3.988 --    19 C    1.450    21 C    1.426    52 H    0.968
                            13 C    0.109
    21   6 C    3.989 --    22 C    1.457    20 C    1.426    53 H    0.968
                            14 C    0.104
    22   6 C    3.989 --    21 C    1.457    13 C    1.397    54 H    0.966
                            19 C    0.110
    23   7 N    3.414 --    24 C    1.151    32 C    0.978    12 C    0.975
                            31 O    0.172
    24   6 C    3.957 --    31 O    1.664    23 N    1.151    25 C    1.050
    25   6 C    3.896 --    26 C    1.479    30 O    1.080    24 C    1.050
                            29 C    0.135
    26   6 C    3.983 --    25 C    1.479    28 C    1.289    27 C    1.045
    27   6 C    3.992 --    26 C    1.045    57 H    0.982    56 H    0.967
                            55 H    0.958
    28   6 C    3.981 --    29 C    1.587    26 C    1.289    58 H    0.973
    29   6 C    3.908 --    28 C    1.587    30 O    1.144    59 H    0.965
                            25 C    0.135
    30   8 O    2.430 --    29 C    1.144    25 C    1.080
    31   8 O    2.019 --    24 C    1.664    23 N    0.172
    32   6 C    3.956 --    36 N    0.987    23 N    0.978    60 H    0.923
                            33 C    0.910
    33   6 C    3.922 --    35 O    1.764    34 O    1.183    32 C    0.910
    34   8 O    2.247 --    33 C    1.183    61 H    0.853    35 O    0.184
    35   8 O    2.061 --    33 C    1.764    34 O    0.184
    36   7 N    3.447 --    37 C    1.181    32 C    0.987    11 C    0.974
                            44 O    0.190
    37   6 C    3.952 --    44 O    1.711    36 N    1.181    38 C    0.968
    38   6 C    3.901 --    39 C    1.528    43 O    1.104    37 C    0.968
                            42 C    0.141
    39   6 C    3.982 --    38 C    1.528    41 C    1.268    40 C    1.036
    40   6 C    3.992 --    39 C    1.036    62 H    0.974    63 H    0.970
                            64 H    0.968
    41   6 C    3.981 --    42 C    1.608    39 C    1.268    65 H    0.973
    42   6 C    3.905 --    41 C    1.608    43 O    1.138    66 H    0.965
                            38 C    0.141
    43   8 O    2.441 --    42 C    1.138    38 C    1.104
    44   8 O    2.042 --    37 C    1.711    36 N    0.190
    45   1 H    0.995 --     6 C    0.966
    46   1 H    0.995 --     7 C    0.968
    47   1 H    0.995 --     8 C    0.968
    48   1 H    0.996 --     9 C    0.964
    49   1 H    0.994 --    11 C    0.948
    50   1 H    0.996 --    12 C    0.949
    51   1 H    0.995 --    19 C    0.965
    52   1 H    0.995 --    20 C    0.968
    53   1 H    0.996 --    21 C    0.968
    54   1 H    0.998 --    22 C    0.966
    55   1 H    0.995 --    27 C    0.958
    56   1 H    0.993 --    27 C    0.967
    57   1 H    0.997 --    27 C    0.982
    58   1 H    0.997 --    28 C    0.973
    59   1 H    0.997 --    29 C    0.965
    60   1 H    0.987 --    32 C    0.923
    61   1 H    0.880 --    34 O    0.853
    62   1 H    0.995 --    40 C    0.974
    63   1 H    0.996 --    40 C    0.970
    64   1 H    0.997 --    40 C    0.968
    65   1 H    0.997 --    41 C    0.973
    66   1 H    0.997 --    42 C    0.965
 ---------------------------------------------------------------------------

molecular dipole:
                 x           y           z       tot (Debye)
 q only:       -1.809      -2.774       0.435
   full:       -1.728      -3.050       0.346       8.952

           -------------------------------------------------
          | TOTAL ENERGY             -134.179079046760 Eh   |
          | GRADIENT NORM               0.000358974216 Eh/Î± |
          | HOMO-LUMO GAP               2.972567309826 eV   |
           -------------------------------------------------

 * finished run on 2022/03/16 at 21:54:37.572
