   * xtb version 6.3.3 (4ae9cef) compiled by 'conda@95abc7406d43' on 2020-10-14
          program call               : xtb acid_394.xyz --opt --chrg 0 --uhf 0 --gfn 2
          number of atoms            :                   114
          number of electrons        :                   322
          charge                     :                     0
          spin                       :                   0.0

   ID    Z sym.   atoms
    1    6 C      1, 2, 6-15, 19-22, 24-38, 40, 41, 45-59
    2    9 F      3-5, 16-18
    3    7 N      23, 44
    4    8 O      39, 42, 43, 60
    5    1 H      61-114

          :  Hamiltonian                  GFN2-xTB          :
 * total energy  :  -180.9321855 Eh     change       -0.3046637E-08 Eh
 * total energy  :  -180.9542302 Eh     change       -0.2204470E-01 Eh
 * total energy  :  -180.9617900 Eh     change       -0.7559824E-02 Eh
 * total energy  :  -180.9644447 Eh     change       -0.2654661E-02 Eh
 * total energy  :  -180.9663951 Eh     change       -0.1950365E-02 Eh
 * total energy  :  -180.9677399 Eh     change       -0.1344840E-02 Eh
 * total energy  :  -180.9688597 Eh     change       -0.1119810E-02 Eh
 * total energy  :  -180.9700699 Eh     change       -0.1210140E-02 Eh
 * total energy  :  -180.9712949 Eh     change       -0.1225032E-02 Eh
 * total energy  :  -180.9723744 Eh     change       -0.1079515E-02 Eh
 * total energy  :  -180.9872492 Eh     change       -0.2172982E-04 Eh
 * total energy  :  -180.9872574 Eh     change       -0.8244083E-05 Eh
 * total energy  :  -180.9872727 Eh     change       -0.1523548E-04 Eh
 * total energy  :  -180.9872796 Eh     change       -0.6948153E-05 Eh
 * total energy  :  -180.9872873 Eh     change       -0.7732150E-05 Eh
 * total energy  :  -180.9872958 Eh     change       -0.8450059E-05 Eh
 * total energy  :  -180.9873034 Eh     change       -0.7648319E-05 Eh
 * total energy  :  -180.9873098 Eh     change       -0.6360849E-05 Eh
 * total energy  :  -180.9873144 Eh     change       -0.4600527E-05 Eh
   *** GEOMETRY OPTIMIZATION CONVERGED AFTER 101 ITERATIONS ***

 final structure:
================
114
 xtb: 6.3.3 (4ae9cef)
C         2.01302131659326    1.33199833020472   -2.25345355804030
C         0.93423391471713    0.60153379730632   -3.00976781706066
F         1.08942415320896    0.69165516362689   -4.33986929257439
F        -0.31052880382853    1.04361433578810   -2.77082425725469
F         0.91852837438448   -0.72064337620917   -2.74646464036417
C         3.11134319446995    1.75557806678269   -2.99572159713926
C         4.17073100591166    2.40191459000774   -2.38990726766567
C         4.14154926869509    2.62434438194477   -1.02593080232863
C         3.05257567521937    2.20515529212103   -0.28924459424678
C         1.96955142850477    1.55564372259135   -0.87387235027555
C         0.83518387009431    1.18175785647206    0.05277013743493
C        -0.41012127045556    2.09089286656361   -0.07363680984905
C        -0.55963094419993    2.98737521602874    1.13372148371577
C        -0.34907564146031    4.36581647019894    1.09053244339345
C         0.07284123732729    5.04788056082871   -0.18094540116198
F         0.32071149053892    6.35446076796143   -0.01542098060327
F         1.22646550076994    4.52870945748364   -0.67675987207472
F        -0.81777892325127    4.96217798589134   -1.17727871487428
C        -0.51661418057383    5.13874967879684    2.23420770795591
C        -0.88487174278412    4.54651383128610    3.42704283844065
C        -1.07797797981557    3.17657105701153    3.48307429718701
C        -0.91227076200068    2.40618863387822    2.34817110531360
N        -1.52637758601247    1.16013771034204   -0.15960526491358
C        -2.80849406730359    1.61747764629163   -0.09055278200734
C        -3.82367608452458    0.53530792861731   -0.22724973193397
C        -3.98922756765215   -0.10499747446843   -1.44260681187074
C        -4.87454902773186   -1.17011475271607   -1.56065432217790
C        -4.99487747402303   -1.88324063074331   -2.89766272301482
C        -5.93043448668745   -3.09368149750827   -2.84223520654260
C        -5.54068672162643   -0.89755626575281   -3.93966627098981
C        -3.60191182257418   -2.37396649281809   -3.32005510689152
C        -5.58685446672969   -1.54804523958095   -0.43194648429787
C        -5.46683344261245   -0.89004657627453    0.79081796047242
C        -6.28219556021184   -1.37573862236864    1.98014148708540
C        -5.81483388484977   -2.79112848253548    2.35096003527241
C        -7.77070556248251   -1.39833240301749    1.60629111639423
C        -6.11510793249123   -0.47892363813858    3.20960740534172
C        -4.57354310551580    0.16601698011358    0.88102588130249
O        -3.05858051546523    2.79022636255861    0.08379112360336
C        -1.11623299021219   -0.21500620186009   -0.27888583699226
C        -1.72181442255735   -1.11217538033819    0.82305096724606
O        -2.41807721992948   -2.11505171076418    0.32107022720485
O        -1.60622739839628   -0.87362662161333    1.99606747849661
N         0.32238967670383   -0.16289912463482   -0.11583788767140
C         0.98250013563494   -1.29912691672990    0.23594969227756
C         2.45749076763096   -1.13380709712876    0.38910609097722
C         2.98923492292392   -0.60383437291485    1.55776525514489
C         4.35816774641271   -0.42459649768782    1.67888110140014
C         5.00216975552322    0.15720794908010    2.92892959851225
C         5.81585868539951    1.40387109740200    2.55343093036345
C         3.97299104417769    0.56415420189984    3.98735940752822
C         5.92903650205225   -0.90058987210077    3.54432686628980
C         5.16890931525016   -0.80823105186010    0.61204442315592
C         4.66270886085337   -1.37591751511187   -0.54694122024523
C         5.54549804764250   -1.86132542102541   -1.68613508941623
C         7.02990887591343   -1.56498378268261   -1.45613599168084
C         5.37008299997129   -3.38091714585415   -1.81741834142138
C         5.12258457334403   -1.17551981392031   -2.99194101644485
C         3.28363062653774   -1.53184009570778   -0.64576109101819
O         0.38510964151849   -2.34897945360975    0.35993635776583
H         3.13362804889214    1.57834527939118   -4.05962191370261
H         5.00996489732552    2.72855828601783   -2.98389876803444
H         4.96255835354570    3.12446025471964   -0.53650133940358
H         3.03100292211014    2.38894821813859    0.77379102770163
H         1.22238410692631    1.28057286516784    1.07570583114163
H        -0.37901796026248    2.68289625850634   -0.99306175351883
H        -0.36247135936905    6.20535882686163    2.18410578700504
H        -1.02247492274265    5.15505987609758    4.30717938267341
H        -1.36407652008538    2.70544858441570    4.41108657640840
H        -1.07933481009370    1.33937737253834    2.39561543360534
H        -3.41598050058624    0.23733298525271   -2.29042626783378
H        -5.97020698037048   -3.56486993233207   -3.82220694310167
H        -6.94218632482748   -2.79753207783377   -2.57464277872660
H        -5.57032082375187   -3.83198193375928   -2.12935757219976
H        -5.61434118921592   -1.38183411189901   -4.91114244550384
H        -4.89445153725246   -0.02987529560675   -4.03810391706545
H        -6.53073749998798   -0.55215917093760   -3.64913965201558
H        -3.15608856293709   -2.97118226060184   -2.52743264473177
H        -2.93711895878876   -1.54244044305212   -3.53531529482742
H        -3.67620955413057   -2.98455114997729   -4.21736167481999
H        -6.26325175506637   -2.38316355555740   -0.49676529860626
H        -6.42379296645756   -3.18551075987789    3.16166605338626
H        -5.89180120667213   -3.46877208278335    1.50462193953911
H        -4.77866467338861   -2.76814812461074    2.68385758409916
H        -8.08863974306384   -0.41149155900487    1.27735957650083
H        -8.36841693049384   -1.68344277152188    2.46949115796585
H        -7.97366957599664   -2.10667421639255    0.80824819670342
H        -6.42164833689945    0.54104686786009    2.99053649576580
H        -5.08430516915570   -0.47416206264312    3.55572816714793
H        -6.73811191083804   -0.85367602852674    4.01940057359972
H        -4.42284927546205    0.70817481628120    1.79950543587649
H        -1.38124733763745   -0.66221921455273   -1.24890223560514
H        -2.75300652726556   -2.69510311191013    1.02356683629246
H         2.31748598336963   -0.35590626138196    2.36368997925064
H         6.59679864379755    1.17018011921007    1.83572709091355
H         5.16833285565317    2.16182717662017    2.11807974747111
H         6.28562634440386    1.82179781955480    3.44121579448889
H         4.48777612576186    0.97940141500700    4.85132965217590
H         3.29350153669357    1.32416939914864    3.60670869019793
H         3.39577582372071   -0.29357528429927    4.32335743781372
H         5.36371995534256   -1.79669979311861    3.79027921544337
H         6.72418164569576   -1.17750519514981    2.85783709318415
H         6.38312808775719   -0.51719052369051    4.45550734170630
H         6.23259095752508   -0.67214094080760    0.70643521876155
H         7.40124160137118   -2.07829493778692   -0.57234568149371
H         7.20362341507533   -0.49617485680235   -1.35118808090992
H         7.60433699532646   -1.91634561607318   -2.31068687736582
H         4.33851993454511   -3.63913988353326   -2.03834000546982
H         5.65275976137653   -3.87387722393857   -0.88967342257037
H         5.99918679622050   -3.76355355478989   -2.61823085366228
H         4.08336648010251   -1.38009999762151   -3.23154244510960
H         5.73677029122514   -1.53342247753779   -3.81535463551418
H         5.24845713145788   -0.09836391974899   -2.90646937354587
H         2.83338319773445   -1.96996650271174   -1.52187572575557

          :  Hamiltonian                  GFN2-xTB          :
         :: total energy            -180.987314408343 Eh    ::
         :: gradient norm              0.000430042910 Eh/a0 ::
         :: HOMO-LUMO gap              3.053881243151 eV    ::
         :: SCC energy              -183.365140158413 Eh    ::
         :: -> dispersion             -0.160103374023 Eh    ::
         :: repulsion energy           2.369835664205 Eh    ::

    * Orbital Energies and Occupations

         #    Occupation            Energy/Eh            Energy/eV
      -------------------------------------------------------------
         1        2.0000           -0.8844593             -24.0674
       ...           ...                  ...                  ...
       149        2.0000           -0.4283831             -11.6569
       150        2.0000           -0.4275447             -11.6341
       151        2.0000           -0.4188919             -11.3986
       152        2.0000           -0.4186277             -11.3914
       153        2.0000           -0.4131850             -11.2433
       154        2.0000           -0.4089216             -11.1273
       155        2.0000           -0.4065762             -11.0635
       156        2.0000           -0.4011062             -10.9147
       157        2.0000           -0.3988148             -10.8523
       158        2.0000           -0.3980701             -10.8320
       159        2.0000           -0.3941429             -10.7252
       160        2.0000           -0.3907819             -10.6337
       161        2.0000           -0.3864023             -10.5145 (HOMO)
       162                         -0.2741743              -7.4607 (LUMO)
       163                         -0.2644463              -7.1960
       164                         -0.2588570              -7.0439
       165                         -0.2509862              -6.8297
       166                         -0.2490204              -6.7762
       167                         -0.2358228              -6.4171
       168                         -0.2316827              -6.3044
       169                         -0.2298454              -6.2544
       170                         -0.2200567              -5.9880
       171                         -0.2192289              -5.9655
       172                         -0.2012224              -5.4755
       ...                                ...                  ...
       294                          0.6649072              18.0930
      -------------------------------------------------------------
                  HL-Gap            0.1122281 Eh            3.0539 eV

     #   Z          covCN         q      C6AA      Î±(0)
     1   6 C        2.974    -0.027    28.675     8.784
     2   6 C        3.336     0.488    17.253     6.578
     3   9 F        0.793    -0.204    11.278     3.967
     4   9 F        0.791    -0.210    11.336     3.977
     5   9 F        0.791    -0.212    11.360     3.981
     6   6 C        2.926    -0.021    28.540     8.761
     7   6 C        2.920    -0.021    28.533     8.760
     8   6 C        2.918    -0.015    28.386     8.737
     9   6 C        2.932    -0.023    28.590     8.769
    10   6 C        2.965     0.011    27.772     8.644
    11   6 C        3.816     0.041    19.866     6.344
    12   6 C        3.819     0.051    19.707     6.318
    13   6 C        2.972     0.022    27.519     8.605
    14   6 C        2.975    -0.027    28.682     8.785
    15   6 C        3.335     0.485    17.307     6.590
    16   9 F        0.792    -0.203    11.264     3.965
    17   9 F        0.791    -0.230    11.551     4.015
    18   9 F        0.791    -0.198    11.214     3.956
    19   6 C        2.923    -0.022    28.560     8.764
    20   6 C        2.919    -0.024    28.602     8.770
    21   6 C        2.919    -0.018    28.456     8.748
    22   6 C        2.925    -0.030    28.737     8.791
    23   7 N        2.766    -0.115    23.508     7.201
    24   6 C        2.766     0.274    22.376     7.747
    25   6 C        2.978    -0.026    28.651     8.780
    26   6 C        2.931    -0.039    28.962     8.826
    27   6 C        2.973     0.014    27.699     8.633
    28   6 C        3.903     0.026    20.080     6.370
    29   6 C        3.761    -0.108    22.615     6.779
    30   6 C        3.762    -0.107    22.585     6.775
    31   6 C        3.762    -0.108    22.618     6.779
    32   6 C        2.933    -0.046    29.150     8.855
    33   6 C        2.973     0.008    27.842     8.655
    34   6 C        3.903     0.026    20.083     6.370
    35   6 C        3.762    -0.106    22.574     6.773
    36   6 C        3.761    -0.107    22.592     6.776
    37   6 C        3.761    -0.110    22.641     6.783
    38   6 C        2.928    -0.039    28.966     8.826
    39   8 O        0.859    -0.419    22.056     6.297
    40   6 C        3.755     0.096    19.046     6.223
    41   6 C        2.688     0.369    20.746     7.454
    42   8 O        1.660    -0.348    19.860     6.016
    43   8 O        0.856    -0.408    21.848     6.267
    44   7 N        2.765    -0.118    23.576     7.211
    45   6 C        2.770     0.276    22.332     7.740
    46   6 C        2.976    -0.021    28.515     8.759
    47   6 C        2.927    -0.045    29.116     8.849
    48   6 C        2.972     0.009    27.824     8.652
    49   6 C        3.903     0.026    20.087     6.371
    50   6 C        3.761    -0.107    22.595     6.776
    51   6 C        3.761    -0.108    22.602     6.777
    52   6 C        3.762    -0.107    22.594     6.776
    53   6 C        2.933    -0.047    29.176     8.858
    54   6 C        2.972     0.010    27.801     8.649
    55   6 C        3.903     0.026    20.088     6.371
    56   6 C        3.761    -0.109    22.622     6.780
    57   6 C        3.762    -0.108    22.608     6.778
    58   6 C        3.762    -0.108    22.617     6.779
    59   6 C        2.932    -0.037    28.931     8.821
    60   8 O        0.859    -0.417    22.032     6.293
    61   1 H        0.926     0.071     2.071     2.251
    62   1 H        0.926     0.059     2.212     2.326
    63   1 H        0.926     0.060     2.204     2.322
    64   1 H        0.926     0.050     2.325     2.385
    65   1 H        0.923     0.059     2.209     2.324
    66   1 H        0.924     0.069     2.097     2.264
    67   1 H        0.926     0.064     2.147     2.292
    68   1 H        0.926     0.054     2.266     2.354
    69   1 H        0.926     0.056     2.243     2.342
    70   1 H        0.926     0.075     2.035     2.231
    71   1 H        0.926     0.037     2.496     2.470
    72   1 H        0.925     0.038     2.472     2.459
    73   1 H        0.925     0.036     2.506     2.476
    74   1 H        0.925     0.036     2.500     2.473
    75   1 H        0.925     0.039     2.456     2.451
    76   1 H        0.925     0.039     2.456     2.451
    77   1 H        0.925     0.035     2.515     2.480
    78   1 H        0.925     0.040     2.443     2.444
    79   1 H        0.925     0.037     2.488     2.467
    80   1 H        0.925     0.040     2.453     2.449
    81   1 H        0.926     0.045     2.389     2.417
    82   1 H        0.925     0.041     2.433     2.439
    83   1 H        0.925     0.036     2.506     2.476
    84   1 H        0.925     0.029     2.600     2.521
    85   1 H        0.925     0.037     2.485     2.465
    86   1 H        0.925     0.038     2.473     2.459
    87   1 H        0.925     0.037     2.484     2.464
    88   1 H        0.925     0.040     2.455     2.450
    89   1 H        0.925     0.039     2.469     2.457
    90   1 H        0.925     0.037     2.483     2.464
    91   1 H        0.926     0.045     2.387     2.416
    92   1 H        0.923     0.079     1.987     2.205
    93   1 H        0.804     0.347     0.595     1.211
    94   1 H        0.926     0.038     2.472     2.459
    95   1 H        0.925     0.038     2.480     2.463
    96   1 H        0.925     0.031     2.578     2.511
    97   1 H        0.925     0.041     2.432     2.439
    98   1 H        0.925     0.040     2.452     2.449
    99   1 H        0.925     0.029     2.597     2.520
   100   1 H        0.925     0.041     2.440     2.443
   101   1 H        0.925     0.038     2.475     2.460
   102   1 H        0.925     0.038     2.472     2.459
   103   1 H        0.925     0.040     2.445     2.445
   104   1 H        0.926     0.045     2.383     2.414
   105   1 H        0.925     0.038     2.478     2.462
   106   1 H        0.925     0.034     2.533     2.489
   107   1 H        0.925     0.040     2.447     2.446
   108   1 H        0.925     0.043     2.411     2.428
   109   1 H        0.925     0.037     2.490     2.467
   110   1 H        0.925     0.041     2.439     2.442
   111   1 H        0.925     0.037     2.487     2.466
   112   1 H        0.925     0.043     2.415     2.430
   113   1 H        0.925     0.029     2.594     2.519
   114   1 H        0.926     0.044     2.400     2.423

Wiberg/Mayer (AO) data.
largest (>0.10) Wiberg bond orders for each atom

     #   Z sym  total        # sym  WBO       # sym  WBO       # sym  WBO
 ---------------------------------------------------------------------------
     1   6 C    3.970 --     6 C    1.412    10 C    1.386     2 C    0.951
                             8 C    0.105
     2   6 C    3.822 --     3 F    0.951     1 C    0.951     4 F    0.944
                             5 F    0.937
     3   9 F    1.074 --     2 C    0.951
     4   9 F    1.072 --     2 C    0.944
     5   9 F    1.067 --     2 C    0.937
     6   6 C    3.987 --     7 C    1.442     1 C    1.412    61 H    0.965
                             9 C    0.109
     7   6 C    3.988 --     6 C    1.442     8 C    1.432    62 H    0.968
                            10 C    0.108
     8   6 C    3.989 --     9 C    1.448     7 C    1.432    63 H    0.968
                             1 C    0.105
     9   6 C    3.988 --     8 C    1.448    10 C    1.407    64 H    0.964
                             6 C    0.109
    10   6 C    3.986 --     9 C    1.407     1 C    1.386    11 C    0.992
                             7 C    0.108
    11   6 C    3.970 --    10 C    0.992    44 N    0.969    12 C    0.949
                            65 H    0.948
    12   6 C    3.970 --    13 C    0.990    23 N    0.963    66 H    0.953
                            11 C    0.949
    13   6 C    3.986 --    22 C    1.406    14 C    1.387    12 C    0.990
                            20 C    0.108
    14   6 C    3.968 --    19 C    1.410    13 C    1.387    15 C    0.951
                            21 C    0.104
    15   6 C    3.819 --    16 F    0.954    18 F    0.954    14 C    0.951
                            17 F    0.921
    16   9 F    1.076 --    15 C    0.954
    17   9 F    1.047 --    15 C    0.921
    18   9 F    1.085 --    15 C    0.954
    19   6 C    3.987 --    20 C    1.445    14 C    1.410    67 H    0.966
                            22 C    0.110
    20   6 C    3.989 --    19 C    1.445    21 C    1.431    68 H    0.969
                            13 C    0.108
    21   6 C    3.990 --    22 C    1.450    20 C    1.431    69 H    0.969
                            14 C    0.104
    22   6 C    3.986 --    21 C    1.450    13 C    1.406    70 H    0.958
                            19 C    0.110
    23   7 N    3.452 --    24 C    1.191    40 C    0.987    12 C    0.963
                            39 O    0.187
    24   6 C    3.939 --    39 O    1.700    23 N    1.191    25 C    0.963
    25   6 C    3.985 --    26 C    1.416    38 C    1.392    24 C    0.963
                            32 C    0.104
    26   6 C    3.989 --    25 C    1.416    27 C    1.400    71 H    0.963
                            33 C    0.108
    27   6 C    3.985 --    32 C    1.426    26 C    1.400    28 C    0.983
                            38 C    0.104
    28   6 C    3.990 --    29 C    1.000    31 C    0.987    30 C    0.987
                            27 C    0.983
    29   6 C    3.996 --    28 C    1.000    74 H    0.985    73 H    0.984
                            72 H    0.984
    30   6 C    3.995 --    28 C    0.987    77 H    0.987    75 H    0.984
                            76 H    0.984
    31   6 C    3.995 --    28 C    0.987    78 H    0.986    80 H    0.984
                            79 H    0.983
    32   6 C    3.990 --    27 C    1.426    33 C    1.403    81 H    0.958
                            25 C    0.104
    33   6 C    3.985 --    38 C    1.423    32 C    1.403    34 C    0.983
                            26 C    0.108
    34   6 C    3.990 --    37 C    1.000    36 C    0.989    35 C    0.986
                            33 C    0.983
    35   6 C    3.996 --    84 H    0.986    34 C    0.986    83 H    0.984
                            82 H    0.984
    36   6 C    3.995 --    34 C    0.989    85 H    0.987    86 H    0.984
                            87 H    0.983
    37   6 C    3.996 --    34 C    1.000    88 H    0.985    90 H    0.984
                            89 H    0.984
    38   6 C    3.988 --    33 C    1.423    25 C    1.392    91 H    0.964
                            27 C    0.104
    39   8 O    2.028 --    24 C    1.700    23 N    0.187
    40   6 C    3.961 --    23 N    0.987    44 N    0.973    92 H    0.941
                            41 C    0.908
    41   6 C    3.921 --    43 O    1.744    42 O    1.174    40 C    0.908
    42   8 O    2.236 --    41 C    1.174    93 H    0.851    43 O    0.177
    43   8 O    2.040 --    41 C    1.744    42 O    0.177
    44   7 N    3.450 --    45 C    1.202    40 C    0.973    11 C    0.969
                            60 O    0.184
    45   6 C    3.936 --    60 O    1.686    44 N    1.202    46 C    0.960
    46   6 C    3.986 --    59 C    1.423    47 C    1.390    45 C    0.960
                            53 C    0.105
    47   6 C    3.988 --    48 C    1.426    46 C    1.390    94 H    0.962
                            54 C    0.105
    48   6 C    3.985 --    47 C    1.426    53 C    1.398    49 C    0.983
                            59 C    0.107
    49   6 C    3.990 --    51 C    1.000    50 C    0.988    52 C    0.986
                            48 C    0.983
    50   6 C    3.995 --    49 C    0.988    96 H    0.985    97 H    0.984
                            95 H    0.983
    51   6 C    3.996 --    49 C    1.000    99 H    0.985    98 H    0.984
                           100 H    0.984
    52   6 C    3.995 --   101 H    0.987    49 C    0.986   103 H    0.984
                           102 H    0.984
    53   6 C    3.990 --    54 C    1.432    48 C    1.398   104 H    0.958
                            46 C    0.105
    54   6 C    3.985 --    53 C    1.432    59 C    1.394    55 C    0.983
                            47 C    0.105
    55   6 C    3.990 --    56 C    1.000    58 C    0.988    57 C    0.985
                            54 C    0.983
    56   6 C    3.996 --    55 C    1.000   106 H    0.985   105 H    0.984
                           107 H    0.984
    57   6 C    3.995 --   109 H    0.987    55 C    0.985   110 H    0.984
                           108 H    0.983
    58   6 C    3.996 --    55 C    0.988   112 H    0.984   113 H    0.984
                           111 H    0.983
    59   6 C    3.989 --    46 C    1.423    54 C    1.394   114 H    0.963
                            48 C    0.107
    60   8 O    2.045 --    45 C    1.686    44 N    0.184
    61   1 H    0.995 --     6 C    0.965
    62   1 H    0.996 --     7 C    0.968
    63   1 H    0.996 --     8 C    0.968
    64   1 H    0.997 --     9 C    0.964
    65   1 H    0.996 --    11 C    0.948
    66   1 H    0.995 --    12 C    0.953
    67   1 H    0.995 --    19 C    0.966
    68   1 H    0.996 --    20 C    0.969
    69   1 H    0.996 --    21 C    0.969
    70   1 H    0.994 --    22 C    0.958
    71   1 H    0.998 --    26 C    0.963
    72   1 H    0.998 --    29 C    0.984
    73   1 H    0.999 --    29 C    0.984
    74   1 H    0.999 --    29 C    0.985
    75   1 H    0.997 --    30 C    0.984
    76   1 H    0.998 --    30 C    0.984
    77   1 H    0.999 --    30 C    0.987
    78   1 H    0.998 --    31 C    0.986
    79   1 H    0.999 --    31 C    0.983
    80   1 H    0.998 --    31 C    0.984
    81   1 H    0.998 --    32 C    0.958
    82   1 H    0.997 --    35 C    0.984
    83   1 H    0.999 --    35 C    0.984
    84   1 H    0.999 --    35 C    0.986
    85   1 H    0.999 --    36 C    0.987
    86   1 H    0.998 --    36 C    0.984
    87   1 H    0.999 --    36 C    0.983
    88   1 H    0.998 --    37 C    0.985
    89   1 H    0.999 --    37 C    0.984
    90   1 H    0.998 --    37 C    0.984
    91   1 H    0.997 --    38 C    0.964
    92   1 H    0.993 --    40 C    0.941
    93   1 H    0.879 --    42 O    0.851
    94   1 H    0.998 --    47 C    0.962
    95   1 H    0.999 --    50 C    0.983
    96   1 H    0.999 --    50 C    0.985
    97   1 H    0.997 --    50 C    0.984
    98   1 H    0.998 --    51 C    0.984
    99   1 H    0.999 --    51 C    0.985
   100   1 H    0.998 --    51 C    0.984
   101   1 H    0.999 --    52 C    0.987
   102   1 H    0.999 --    52 C    0.984
   103   1 H    0.997 --    52 C    0.984
   104   1 H    0.998 --    53 C    0.958
   105   1 H    0.999 --    56 C    0.984
   106   1 H    0.999 --    56 C    0.985
   107   1 H    0.998 --    56 C    0.984
   108   1 H    0.998 --    57 C    0.983
   109   1 H    0.999 --    57 C    0.987
   110   1 H    0.997 --    57 C    0.984
   111   1 H    0.999 --    58 C    0.983
   112   1 H    0.997 --    58 C    0.984
   113   1 H    0.999 --    58 C    0.984
   114   1 H    0.997 --    59 C    0.963
 ---------------------------------------------------------------------------

molecular dipole:
                 x           y           z       tot (Debye)
 q only:        1.811      -0.617       1.157
   full:        1.761      -0.712       1.078       5.552

           -------------------------------------------------
          | TOTAL ENERGY             -180.987314408343 Eh   |
          | GRADIENT NORM               0.000430042910 Eh/Î± |
          | HOMO-LUMO GAP               3.053881243151 eV   |
           -------------------------------------------------

 * finished run on 2022/03/17 at 00:40:48.805
