   * xtb version 6.3.3 (4ae9cef) compiled by 'conda@95abc7406d43' on 2020-10-14
          program call               : xtb acid_467.xyz --opt --chrg 0 --uhf 0 --gfn 2
          number of atoms            :                    66
          number of electrons        :                   206
          charge                     :                     0
          spin                       :                   0.0

   ID    Z sym.   atoms
    1    6 C      1-22, 24-26, 28, 29, 31, 32, 36-38, 40, 41
    2    7 N      23, 35
    3   16 S      27, 39
    4    8 O      30, 33, 34, 42
    5    1 H      43-66

          :  Hamiltonian                  GFN2-xTB          :
 * total energy  :  -113.6427108 Eh     change       -0.1220897E-08 Eh
 * total energy  :  -113.6588281 Eh     change       -0.1611722E-01 Eh
 * total energy  :  -113.6625066 Eh     change       -0.3678547E-02 Eh
 * total energy  :  -113.6633273 Eh     change       -0.8207355E-03 Eh
 * total energy  :  -113.6636763 Eh     change       -0.3489396E-03 Eh
 * total energy  :  -113.6638284 Eh     change       -0.1521041E-03 Eh
 * total energy  :  -113.6640192 Eh     change       -0.1908641E-03 Eh
 * total energy  :  -113.6642498 Eh     change       -0.2305082E-03 Eh
 * total energy  :  -113.6644629 Eh     change       -0.2131218E-03 Eh
 * total energy  :  -113.6646763 Eh     change       -0.2134477E-03 Eh
 * total energy  :  -113.6683978 Eh     change       -0.2264686E-04 Eh
 * total energy  :  -113.6684164 Eh     change       -0.1867313E-04 Eh
 * total energy  :  -113.6684359 Eh     change       -0.1947613E-04 Eh
 * total energy  :  -113.6684512 Eh     change       -0.1527319E-04 Eh
 * total energy  :  -113.6684595 Eh     change       -0.8291833E-05 Eh
 * total energy  :  -113.6684644 Eh     change       -0.4908182E-05 Eh
 * total energy  :  -113.6684564 Eh     change        0.8027853E-05 Eh
 * total energy  :  -113.6684658 Eh     change       -0.9422900E-05 Eh
 * total energy  :  -113.6684682 Eh     change       -0.2390119E-05 Eh
   *** GEOMETRY OPTIMIZATION CONVERGED AFTER 68 ITERATIONS ***

 final structure:
================
66
 xtb: 6.3.3 (4ae9cef)
C        -1.73461994057622    2.10471589236885   -1.94002226872415
C        -2.82795026059167    2.92292218921217   -1.94772319546213
C        -3.68945152268467    2.99190795893500   -0.83348943096118
C        -4.82557625017851    3.82706547819879   -0.80912292576464
C        -5.63878444126610    3.86795317451151    0.28847280780732
C        -5.35330943081400    3.07701394757667    1.41286855479184
C        -4.26079567619100    2.25656020817140    1.42000125282319
C        -3.40270865398328    2.19019349784460    0.30224224441600
C        -2.26962474431727    1.35454216409054    0.27664387885187
C        -1.44395543448900    1.30969776978653   -0.81718837553194
C        -0.23823076525350    0.40361436399450   -0.82846833531299
C         0.73613223726993    0.67856566577505    0.33924600414933
C         2.17929271098842    0.74303526713618   -0.11031780917547
C         2.52570958012492    1.62571914955698   -1.10185072185652
C         3.85119307729166    1.72248722012611   -1.56531180507337
C         4.22286378577432    2.62016355990648   -2.58881461205656
C         5.51698010870598    2.68554747247230   -3.02130747660982
C         6.49915996101948    1.85845544420368   -2.45209089805951
C         6.17140731759765    0.98096629244120   -1.45743652556444
C         4.84465342829266    0.88993037570856   -0.98741811408301
C         4.46897218561529    0.01059399402768    0.04660084242521
C         3.17403640364886   -0.05745881928564    0.47711539569851
N         0.46401139398325   -0.41006650224510    1.26581648296684
C         0.44687192270486   -0.22167189619610    2.61184890435100
C         0.01635442646684   -1.42534428057354    3.39284422561621
C         0.87528298736184   -2.24509551185053    4.06563109838287
S         0.05223756126530   -3.51195330123176    4.88904401619956
C        -1.46134409124889   -2.93490581267590    4.32353242913675
C        -1.33701147081759   -1.82825683653594    3.54725775100257
O         0.77199012017453    0.82124512080071    3.13013919177728
C        -0.02474918247365   -1.55551612870298    0.54187953297175
C         1.14431879644540   -2.50321400991179    0.13489529102786
O         1.72007349854976   -3.12849275788449    1.16235930905953
O         1.48260345170557   -2.66882718847350   -0.99548479348303
N        -0.65092193561386   -0.98225770655546   -0.61824004589422
C        -1.25015228743691   -1.67907652347547   -1.62430700012854
C        -1.57635130153107   -3.09222420073018   -1.28544694841332
C        -2.42139996042368   -3.47649766407808   -0.28865173900095
S        -2.59815931568072   -5.18423713321083   -0.21289794744600
C        -1.51831650813109   -5.38425484605562   -1.53620780776243
C        -1.06488028563516   -4.19958004721910   -2.01129289839345
O        -1.52909790509170   -1.16592611928858   -2.68347529117519
H        -1.08818232859584    2.04608650490124   -2.80244162478914
H        -3.05109843928546    3.52854718029333   -2.81410685849147
H        -5.04051249654818    4.43476229353465   -1.67644591236076
H        -6.50727499538029    4.50998998393680    0.30065418462979
H        -6.00566786444965    3.12411147757931    2.27254566672960
H        -4.03569921658157    1.64953705762791    2.28590154970080
H        -2.05894311026495    0.74755335046734    1.14700132450264
H         0.26776243668682    0.47407315938932   -1.79718052622258
H         0.48629004340738    1.61676157787216    0.84995579030332
H         1.77670069182675    2.27080742809882   -1.53998454170196
H         3.46316838093525    3.25347744738960   -3.02416225540835
H         5.79556152748584    3.37385764487638   -3.80574494424800
H         7.51667057352778    1.92376727910339   -2.80852509306339
H         6.92327431088103    0.34300898818363   -1.01537765138772
H         5.22471663812638   -0.61350888071842    0.50081609504669
H         2.91835105945722   -0.72209352972862    1.28850348530549
H         1.93966660258412   -2.15097463153301    4.16041494996748
H        -2.36079579238534   -3.44653525028226    4.60190954076312
H        -2.16966308620045   -1.30164830737528    3.11577176941829
H        -0.73646286069979   -2.13842867835483    1.14457553510678
H         1.34920665653349   -2.88876814713186    2.03305031558008
H        -2.98356268532298   -2.85786382636218    0.38361298258076
H        -1.29088903784441   -6.37244901211392   -1.88196113780709
H        -0.37936859845058   -4.09211103031766   -2.83065489167080

          :  Hamiltonian                  GFN2-xTB          :
         :: total energy            -113.668468183528 Eh    ::
         :: gradient norm              0.000416941484 Eh/a0 ::
         :: HOMO-LUMO gap              2.749012563932 eV    ::
         :: SCC energy              -115.408372046234 Eh    ::
         :: -> dispersion             -0.098846579533 Eh    ::
         :: repulsion energy           1.737600872804 Eh    ::

    * Orbital Energies and Occupations

         #    Occupation            Energy/Eh            Energy/eV
      -------------------------------------------------------------
         1        2.0000           -0.7764534             -21.1284
       ...           ...                  ...                  ...
        91        2.0000           -0.4269738             -11.6185
        92        2.0000           -0.4242784             -11.5452
        93        2.0000           -0.4215848             -11.4719
        94        2.0000           -0.4203981             -11.4396
        95        2.0000           -0.4164777             -11.3329
        96        2.0000           -0.4118611             -11.2073
        97        2.0000           -0.4089011             -11.1268
        98        2.0000           -0.4072866             -11.0828
        99        2.0000           -0.4045558             -11.0085
       100        2.0000           -0.4013544             -10.9214
       101        2.0000           -0.4005248             -10.8988
       102        2.0000           -0.3847347             -10.4692
       103        2.0000           -0.3833611             -10.4318 (HOMO)
       104                         -0.2823367              -7.6828 (LUMO)
       105                         -0.2690367              -7.3209
       106                         -0.2678165              -7.2877
       107                         -0.2641851              -7.1888
       108                         -0.2615767              -7.1179
       109                         -0.2475061              -6.7350
       110                         -0.2364641              -6.4345
       111                         -0.2335750              -6.3559
       112                         -0.2290785              -6.2335
       113                         -0.2254455              -6.1347
       114                         -0.2104541              -5.7267
       ...                                ...                  ...
       202                          0.6937455              18.8778
      -------------------------------------------------------------
                  HL-Gap            0.1010244 Eh            2.7490 eV

     #   Z          covCN         q      C6AA      Î±(0)
     1   6 C        2.919    -0.029    28.731     8.790
     2   6 C        2.918    -0.032    28.787     8.798
     3   6 C        2.987     0.014    27.683     8.631
     4   6 C        2.918    -0.033    28.820     8.803
     5   6 C        2.916    -0.029    28.716     8.787
     6   6 C        2.916    -0.029    28.715     8.787
     7   6 C        2.918    -0.034    28.840     8.807
     8   6 C        2.987     0.014    27.687     8.631
     9   6 C        2.923    -0.039    28.963     8.826
    10   6 C        2.970     0.004    27.923     8.668
    11   6 C        3.826     0.042    19.854     6.340
    12   6 C        3.830     0.040    19.879     6.344
    13   6 C        2.967     0.000    28.021     8.683
    14   6 C        2.925    -0.043    29.057     8.840
    15   6 C        2.987     0.017    27.618     8.620
    16   6 C        2.918    -0.034    28.838     8.806
    17   6 C        2.916    -0.028    28.691     8.784
    18   6 C        2.916    -0.028    28.705     8.786
    19   6 C        2.918    -0.033    28.812     8.802
    20   6 C        2.988     0.015    27.666     8.628
    21   6 C        2.918    -0.030    28.759     8.794
    22   6 C        2.919    -0.030    28.748     8.792
    23   7 N        2.768    -0.116    23.529     7.204
    24   6 C        2.757     0.271    22.422     7.754
    25   6 C        3.165    -0.040    28.630     8.744
    26   6 C        2.941    -0.042    29.038     8.838
    27  16 S        2.298     0.031   139.799    19.900
    28   6 C        2.940    -0.023    28.588     8.769
    29   6 C        3.114    -0.047    29.008     8.823
    30   8 O        0.859    -0.405    21.778     6.257
    31   6 C        3.760     0.077    19.345     6.270
    32   6 C        2.685     0.347    21.102     7.518
    33   8 O        1.658    -0.360    20.096     6.052
    34   8 O        0.856    -0.337    20.462     6.065
    35   7 N        2.768    -0.122    23.639     7.221
    36   6 C        2.760     0.279    22.279     7.730
    37   6 C        3.172    -0.032    28.397     8.704
    38   6 C        2.942    -0.033    28.830     8.806
    39  16 S        2.305    -0.007   141.358    20.011
    40   6 C        2.941    -0.020    28.495     8.755
    41   6 C        3.118    -0.034    28.671     8.770
    42   8 O        0.859    -0.405    21.787     6.258
    43   1 H        0.926     0.044     2.397     2.421
    44   1 H        0.926     0.041     2.436     2.441
    45   1 H        0.926     0.035     2.513     2.479
    46   1 H        0.926     0.033     2.541     2.493
    47   1 H        0.926     0.032     2.551     2.498
    48   1 H        0.926     0.029     2.607     2.525
    49   1 H        0.925     0.022     2.699     2.569
    50   1 H        0.924     0.072     2.068     2.249
    51   1 H        0.924     0.080     1.976     2.198
    52   1 H        0.925     0.035     2.520     2.483
    53   1 H        0.926     0.035     2.519     2.482
    54   1 H        0.926     0.034     2.527     2.486
    55   1 H        0.926     0.034     2.531     2.488
    56   1 H        0.926     0.035     2.513     2.479
    57   1 H        0.926     0.040     2.450     2.448
    58   1 H        0.926     0.021     2.725     2.581
    59   1 H        0.926     0.058     2.220     2.330
    60   1 H        0.926     0.060     2.201     2.320
    61   1 H        0.926     0.044     2.397     2.421
    62   1 H        0.923     0.054     2.273     2.358
    63   1 H        0.803     0.324     0.653     1.269
    64   1 H        0.926     0.039     2.460     2.453
    65   1 H        0.926     0.055     2.258     2.350
    66   1 H        0.926     0.064     2.157     2.297

Wiberg/Mayer (AO) data.
largest (>0.10) Wiberg bond orders for each atom

     #   Z sym  total        # sym  WBO       # sym  WBO       # sym  WBO
 ---------------------------------------------------------------------------
     1   6 C    3.990 --     2 C    1.559    10 C    1.300    43 H    0.967
     2   6 C    3.991 --     1 C    1.559     3 C    1.280    44 H    0.967
                             9 C    0.116
     3   6 C    3.990 --     4 C    1.281     2 C    1.280     8 C    1.249
     4   6 C    3.992 --     5 C    1.558     3 C    1.281    45 H    0.968
                             7 C    0.118
     5   6 C    3.990 --     4 C    1.558     6 C    1.320    46 H    0.971
     6   6 C    3.992 --     7 C    1.559     5 C    1.320    47 H    0.971
     7   6 C    3.991 --     6 C    1.559     8 C    1.278    48 H    0.969
                             4 C    0.118
     8   6 C    3.991 --     9 C    1.286     7 C    1.278     3 C    1.249
     9   6 C    3.991 --    10 C    1.523     8 C    1.286    49 H    0.966
                             2 C    0.116
    10   6 C    3.985 --     9 C    1.523     1 C    1.300    11 C    0.987
    11   6 C    3.958 --    10 C    0.987    12 C    0.957    50 H    0.952
                            35 N    0.951
    12   6 C    3.955 --    13 C    0.984    23 N    0.960    11 C    0.957
                            51 H    0.944
    13   6 C    3.984 --    14 C    1.516    22 C    1.306    12 C    0.984
    14   6 C    3.990 --    13 C    1.516    15 C    1.289    52 H    0.965
                            21 C    0.118
    15   6 C    3.990 --    14 C    1.289    16 C    1.275    20 C    1.248
    16   6 C    3.991 --    17 C    1.561    15 C    1.275    53 H    0.968
                            19 C    0.119
    17   6 C    3.992 --    16 C    1.561    18 C    1.317    54 H    0.971
    18   6 C    3.990 --    19 C    1.560    17 C    1.317    55 H    0.971
    19   6 C    3.992 --    18 C    1.560    20 C    1.278    56 H    0.968
                            16 C    0.119
    20   6 C    3.990 --    21 C    1.284    19 C    1.278    15 C    1.248
    21   6 C    3.991 --    22 C    1.551    20 C    1.284    57 H    0.968
                            14 C    0.118
    22   6 C    3.992 --    21 C    1.551    13 C    1.306    58 H    0.966
    23   7 N    3.477 --    24 C    1.207    31 C    0.987    12 C    0.960
                            30 O    0.196
    24   6 C    3.950 --    30 O    1.705    23 N    1.207    25 C    0.948
    25   6 C    3.983 --    26 C    1.572    29 C    1.240    24 C    0.948
    26   6 C    3.949 --    25 C    1.572    27 S    1.202    59 H    0.967
                            28 C    0.110
    27  16 S    2.671 --    28 C    1.215    26 C    1.202
    28   6 C    3.953 --    29 C    1.626    27 S    1.215    60 H    0.969
                            26 C    0.110
    29   6 C    3.985 --    28 C    1.626    25 C    1.240    61 H    0.964
    30   8 O    2.041 --    24 C    1.705    23 N    0.196
    31   6 C    3.972 --    35 N    0.995    23 N    0.987    62 H    0.933
                            32 C    0.890
    32   6 C    3.923 --    34 O    1.819    33 O    1.145    31 C    0.890
    33   8 O    2.222 --    32 C    1.145    63 H    0.839    34 O    0.172
    34   8 O    2.108 --    32 C    1.819    33 O    0.172
    35   7 N    3.445 --    36 C    1.188    31 C    0.995    11 C    0.951
                            42 O    0.186
    36   6 C    3.948 --    42 O    1.708    35 N    1.188    37 C    0.962
    37   6 C    3.984 --    38 C    1.586    41 C    1.237    36 C    0.962
    38   6 C    3.948 --    37 C    1.586    39 S    1.199    64 H    0.970
                            40 C    0.116
    39  16 S    2.645 --    38 C    1.199    40 C    1.191
    40   6 C    3.950 --    41 C    1.644    39 S    1.191    65 H    0.970
                            38 C    0.116
    41   6 C    3.987 --    40 C    1.644    37 C    1.237    66 H    0.961
    42   8 O    2.036 --    36 C    1.708    35 N    0.186
    43   1 H    0.998 --     1 C    0.967
    44   1 H    0.997 --     2 C    0.967
    45   1 H    0.998 --     4 C    0.968
    46   1 H    0.998 --     5 C    0.971
    47   1 H    0.998 --     6 C    0.971
    48   1 H    0.999 --     7 C    0.969
    49   1 H    0.999 --     9 C    0.966
    50   1 H    0.994 --    11 C    0.952
    51   1 H    0.992 --    12 C    0.944
    52   1 H    0.998 --    14 C    0.965
    53   1 H    0.998 --    16 C    0.968
    54   1 H    0.998 --    17 C    0.971
    55   1 H    0.998 --    18 C    0.971
    56   1 H    0.998 --    19 C    0.968
    57   1 H    0.998 --    21 C    0.968
    58   1 H    0.999 --    22 C    0.966
    59   1 H    0.997 --    26 C    0.967
    60   1 H    0.995 --    28 C    0.969
    61   1 H    0.998 --    29 C    0.964
    62   1 H    0.997 --    31 C    0.933
    63   1 H    0.895 --    33 O    0.839
    64   1 H    0.998 --    38 C    0.970
    65   1 H    0.996 --    40 C    0.970
    66   1 H    0.996 --    41 C    0.961
 ---------------------------------------------------------------------------

molecular dipole:
                 x           y           z       tot (Debye)
 q only:       -0.219      -0.356       1.070
   full:       -0.395      -0.270       1.286       3.487

           -------------------------------------------------
          | TOTAL ENERGY             -113.668468183528 Eh   |
          | GRADIENT NORM               0.000416941484 Eh/Î± |
          | HOMO-LUMO GAP               2.749012563932 eV   |
           -------------------------------------------------

 * finished run on 2022/03/17 at 01:31:48.326
