   * xtb version 6.3.3 (4ae9cef) compiled by 'conda@95abc7406d43' on 2020-10-14
          program call               : xtb acid_130.xyz --opt --chrg 0 --uhf 0 --gfn 2
          number of atoms            :                    68
          number of electrons        :                   202
          charge                     :                     0
          spin                       :                   0.0

   ID    Z sym.   atoms
    1    8 O      1, 7, 14, 15, 22, 26
    2    6 C      2-6, 8-10, 12, 13, 17-21, 23-25, 27-40
    3    7 N      11, 16
    4    1 H      41-68

          :  Hamiltonian                  GFN2-xTB          :
 * total energy  :  -113.0530430 Eh     change       -0.1105050E-08 Eh
 * total energy  :  -113.0674200 Eh     change       -0.1437697E-01 Eh
 * total energy  :  -113.0718000 Eh     change       -0.4380088E-02 Eh
 * total energy  :  -113.0731454 Eh     change       -0.1345324E-02 Eh
 * total energy  :  -113.0741799 Eh     change       -0.1034529E-02 Eh
 * total energy  :  -113.0748212 Eh     change       -0.6413076E-03 Eh
 * total energy  :  -113.0753443 Eh     change       -0.5231150E-03 Eh
 * total energy  :  -113.0757218 Eh     change       -0.3774994E-03 Eh
 * total energy  :  -113.0760712 Eh     change       -0.3493370E-03 Eh
 * total energy  :  -113.0763032 Eh     change       -0.2320362E-03 Eh
 * total energy  :  -113.0882409 Eh     change       -0.2357885E-04 Eh
 * total energy  :  -113.0882788 Eh     change       -0.3795568E-04 Eh
 * total energy  :  -113.0883012 Eh     change       -0.2238911E-04 Eh
 * total energy  :  -113.0883280 Eh     change       -0.2677604E-04 Eh
 * total energy  :  -113.0883429 Eh     change       -0.1492507E-04 Eh
 * total energy  :  -113.0883111 Eh     change        0.3178984E-04 Eh
 * total energy  :  -113.0883462 Eh     change       -0.3506780E-04 Eh
 * total energy  :  -113.0883570 Eh     change       -0.1075229E-04 Eh
 * total energy  :  -113.0883606 Eh     change       -0.3599674E-05 Eh
   *** GEOMETRY OPTIMIZATION CONVERGED AFTER 112 ITERATIONS ***

 final structure:
================
68
 xtb: 6.3.3 (4ae9cef)
O         1.00220131401926    2.08583037870903   -1.48528669009737
C         1.26371698699189    0.93314706402294   -1.17480344979241
C         2.60261864046377    0.32456992535144   -1.35433966529397
C         2.77856046194873   -0.88591526233279   -2.01921756401606
C         4.03766224502621   -1.42336465844813   -2.15719417120120
C         5.15129138420301   -0.77058464210224   -1.62214591977925
O         6.33928704758696   -1.40730040295925   -1.77793777337499
C         7.49989463484512   -0.81183495723112   -1.24727533210556
C         4.97992785412010    0.45616477935277   -0.98809182871667
C         3.71502184993596    1.00043346704597   -0.87305601278168
N         0.29187535045996    0.14124121278942   -0.65881245650008
C        -1.01619029309045    0.74161563452055   -0.48491957891304
C        -0.84327789067137    2.21901823635087   -0.06171568202197
O        -1.49401657364635    3.05092304199323   -0.86614160987251
O        -0.29079292488158    2.54200968747315    0.95541754196011
N        -1.63870700539532   -0.04759196125574    0.54519778714535
C        -2.69196995732626    0.33433653330135    1.32463395921505
C        -3.47375347410132    1.48753632649009    0.79882959804604
C        -4.09768644538078    1.42394740499530   -0.43846972748709
C        -4.83906171953133    2.48994014431235   -0.91500821246911
C        -4.95640899203747    3.64792728694396   -0.15306589426561
O        -5.63447812275151    4.76341557833173   -0.53165104389075
C        -6.26870678459688    4.77443568349652   -1.78808656410067
C        -4.34799725753110    3.70289344695744    1.10315035514262
C        -3.62730524679747    2.63016493862046    1.57860218458290
O        -2.97003324262323   -0.25970879872147    2.34469597626992
C        -0.79450986047986   -1.13953004043404    1.00795870792801
C        -1.49843704833795   -2.46767751106265    0.89941761475783
C        -2.26545960778015   -2.76654928759884   -0.21908404426903
C        -2.89579081717027   -3.99277821427725   -0.32692384369795
C        -2.75730804992630   -4.93455823625665    0.67854367748424
C        -1.98802202060756   -4.64412111497773    1.79212068559756
C        -1.36186460436863   -3.41527334650778    1.90302228041722
C         0.46466957173155   -1.07838444899362    0.11371236949293
C         1.72233706065554   -1.06717561476851    0.94402970557892
C         2.01765734866398    0.03342971385154    1.74046946037382
C         3.17305102919077    0.04719807618545    2.49935632251502
C         4.03486684786673   -1.03705073224537    2.47744842165311
C         3.73309249052968   -2.14184743735228    1.70108772711188
C         2.57873171241403   -2.15801673867048    0.93844828549239
H         1.92822201699425   -1.39748359124443   -2.44409647677446
H         4.19288248448412   -2.35812624378066   -2.67196751253727
H         7.42101432849810   -0.67794538864295   -0.16400714600393
H         8.31179386505653   -1.50291784962573   -1.46753376106730
H         7.70877147822517    0.15283289434797   -1.72009455882436
H         5.82054153691650    0.99598532953050   -0.58310248286428
H         3.57826958613782    1.95301632391880   -0.38496598126792
H        -1.57729676691505    0.72273139869019   -1.43341876863902
H        -1.33466320188161    3.96912937293807   -0.59728596402582
H        -4.02365690631543    0.52446457022285   -1.03222292768123
H        -5.31649567879600    2.40638181852417   -1.87811889068001
H        -6.72630246927462    5.75817521711918   -1.87817163147925
H        -7.04689132399511    4.00767065676286   -1.85200850192950
H        -5.55025953443026    4.63382821000439   -2.60146104754270
H        -4.46180146135375    4.60211695532538    1.68750141808685
H        -3.16100666419197    2.67226709431163    2.55067919705663
H        -0.53216709946808   -0.96130041575480    2.05894143705152
H        -2.37511929248029   -2.03114157389225   -1.00351161821463
H        -3.49732240601858   -4.21398707978841   -1.19650205192039
H        -3.25138091179387   -5.89121229202823    0.59527789670981
H        -1.88020300428634   -5.37439948558227    2.58026180669009
H        -0.76857737167837   -3.18465460473533    2.77533208568483
H         0.47238048698634   -1.94512819094647   -0.56151348422930
H         1.35248933208139    0.88539250586022    1.75215219934286
H         3.40125720377265    0.90782261548424    3.10982242545114
H         4.93857297803011   -1.02203225559565    3.06880314683706
H         4.39787962013856   -2.99258420898041    1.68463690580839
H         2.34437928397781   -3.01981893737631    0.33061369085288

          :  Hamiltonian                  GFN2-xTB          :
         :: total energy            -113.088360569905 Eh    ::
         :: gradient norm              0.000539054435 Eh/a0 ::
         :: HOMO-LUMO gap              3.523893030767 eV    ::
         :: SCC energy              -114.743856888751 Eh    ::
         :: -> dispersion             -0.095644112136 Eh    ::
         :: repulsion energy           1.653322580090 Eh    ::

    * Orbital Energies and Occupations

         #    Occupation            Energy/Eh            Energy/eV
      -------------------------------------------------------------
         1        2.0000           -0.7463512             -20.3092
       ...           ...                  ...                  ...
        89        2.0000           -0.4258873             -11.5890
        90        2.0000           -0.4216302             -11.4731
        91        2.0000           -0.4150500             -11.2941
        92        2.0000           -0.4117426             -11.2041
        93        2.0000           -0.4111816             -11.1888
        94        2.0000           -0.4105590             -11.1719
        95        2.0000           -0.4090535             -11.1309
        96        2.0000           -0.4049472             -11.0192
        97        2.0000           -0.4012343             -10.9181
        98        2.0000           -0.3927762             -10.6880
        99        2.0000           -0.3900454             -10.6137
       100        2.0000           -0.3866473             -10.5212
       101        2.0000           -0.3833705             -10.4320 (HOMO)
       102                         -0.2538698              -6.9081 (LUMO)
       103                         -0.2428689              -6.6088
       104                         -0.2386563              -6.4942
       105                         -0.2349798              -6.3941
       106                         -0.2314326              -6.2976
       107                         -0.2297580              -6.2520
       108                         -0.2287358              -6.2242
       109                         -0.2277701              -6.1979
       110                         -0.2268971              -6.1742
       111                         -0.1988810              -5.4118
       112                         -0.1925274              -5.2389
       ...                                ...                  ...
       188                          0.6679135              18.1749
      -------------------------------------------------------------
                  HL-Gap            0.1295007 Eh            3.5239 eV

     #   Z          covCN         q      C6AA      Î±(0)
     1   8 O        0.862    -0.430    22.278     6.328
     2   6 C        2.775     0.274    22.366     7.746
     3   6 C        2.975    -0.023    28.582     8.770
     4   6 C        2.921    -0.028    28.709     8.787
     5   6 C        2.920    -0.053    29.318     8.879
     6   6 C        2.867     0.149    24.769     8.158
     7   8 O        1.706    -0.260    18.306     5.777
     8   6 C        3.645     0.034    20.338     6.482
     9   6 C        2.917    -0.064    29.601     8.922
    10   6 C        2.926    -0.020    28.506     8.756
    11   7 N        2.763    -0.113    23.462     7.194
    12   6 C        3.762     0.098    19.009     6.215
    13   6 C        2.690     0.371    20.711     7.448
    14   8 O        1.659    -0.364    20.159     6.061
    15   8 O        0.856    -0.410    21.873     6.270
    16   7 N        2.760    -0.121    23.630     7.220
    17   6 C        2.767     0.273    22.386     7.749
    18   6 C        2.975    -0.031    28.769     8.798
    19   6 C        2.924    -0.028    28.711     8.787
    20   6 C        2.917    -0.063    29.568     8.917
    21   6 C        2.866     0.147    24.800     8.163
    22   8 O        1.706    -0.264    18.369     5.787
    23   6 C        3.644     0.035    20.324     6.480
    24   6 C        2.920    -0.054    29.336     8.882
    25   6 C        2.923    -0.021    28.519     8.758
    26   8 O        0.859    -0.418    22.048     6.296
    27   6 C        3.826     0.047    19.768     6.327
    28   6 C        2.974     0.009    27.813     8.651
    29   6 C        2.924    -0.032    28.791     8.799
    30   6 C        2.920    -0.028    28.698     8.785
    31   6 C        2.920    -0.029    28.724     8.789
    32   6 C        2.920    -0.025    28.638     8.776
    33   6 C        2.924    -0.029    28.720     8.788
    34   6 C        3.813     0.039    19.906     6.350
    35   6 C        2.975    -0.001    28.058     8.689
    36   6 C        2.923    -0.035    28.874     8.812
    37   6 C        2.920    -0.027    28.668     8.780
    38   6 C        2.920    -0.030    28.760     8.794
    39   6 C        2.920    -0.028    28.711     8.787
    40   6 C        2.923    -0.036    28.892     8.815
    41   1 H        0.926     0.040     2.452     2.449
    42   1 H        0.926     0.056     2.243     2.342
    43   1 H        0.924     0.044     2.401     2.423
    44   1 H        0.925     0.066     2.125     2.280
    45   1 H        0.924     0.045     2.387     2.416
    46   1 H        0.926     0.045     2.380     2.412
    47   1 H        0.926     0.055     2.258     2.350
    48   1 H        0.923     0.061     2.193     2.316
    49   1 H        0.804     0.344     0.601     1.218
    50   1 H        0.926     0.033     2.540     2.492
    51   1 H        0.926     0.042     2.420     2.433
    52   1 H        0.925     0.064     2.148     2.292
    53   1 H        0.924     0.043     2.414     2.430
    54   1 H        0.924     0.043     2.409     2.427
    55   1 H        0.926     0.056     2.246     2.344
    56   1 H        0.926     0.055     2.255     2.348
    57   1 H        0.924     0.067     2.121     2.278
    58   1 H        0.926     0.029     2.605     2.524
    59   1 H        0.926     0.035     2.514     2.480
    60   1 H        0.926     0.036     2.497     2.471
    61   1 H        0.926     0.039     2.465     2.455
    62   1 H        0.926     0.038     2.471     2.458
    63   1 H        0.923     0.048     2.349     2.397
    64   1 H        0.926     0.059     2.215     2.327
    65   1 H        0.926     0.042     2.422     2.434
    66   1 H        0.926     0.036     2.508     2.476
    67   1 H        0.926     0.037     2.487     2.466
    68   1 H        0.926     0.031     2.574     2.509

Wiberg/Mayer (AO) data.
largest (>0.10) Wiberg bond orders for each atom

     #   Z sym  total        # sym  WBO       # sym  WBO       # sym  WBO
 ---------------------------------------------------------------------------
     1   8 O    2.047 --     2 C    1.636    11 N    0.180
     2   6 C    3.941 --     1 O    1.636    11 N    1.222     3 C    0.989
     3   6 C    3.986 --    10 C    1.400     4 C    1.372     2 C    0.989
     4   6 C    3.991 --     5 C    1.484     3 C    1.372    41 H    0.968
     5   6 C    3.987 --     4 C    1.484     6 C    1.338    42 H    0.967
                            10 C    0.104
     6   6 C    3.937 --     9 C    1.368     5 C    1.338     7 O    1.077
     7   8 O    2.244 --     6 C    1.077     8 C    0.982
     8   6 C    3.943 --     7 O    0.982    44 H    0.979    43 H    0.977
                            45 H    0.976
     9   6 C    3.987 --    10 C    1.448     6 C    1.368    46 H    0.965
    10   6 C    3.989 --     9 C    1.448     3 C    1.400    47 H    0.968
                             5 C    0.104
    11   7 N    3.461 --     2 C    1.222    12 C    0.976    34 C    0.961
                             1 O    0.180
    12   6 C    3.966 --    16 N    0.988    11 N    0.976    48 H    0.945
                            13 C    0.907
    13   6 C    3.922 --    15 O    1.743    14 O    1.150    12 C    0.907
    14   8 O    2.209 --    13 C    1.150    49 H    0.856    15 O    0.168
    15   8 O    2.039 --    13 C    1.743    14 O    0.168
    16   7 N    3.445 --    17 C    1.189    12 C    0.988    27 C    0.960
                            26 O    0.185
    17   6 C    3.945 --    26 O    1.698    16 N    1.189    18 C    0.973
    18   6 C    3.987 --    19 C    1.405    25 C    1.379    17 C    0.973
    19   6 C    3.992 --    20 C    1.445    18 C    1.405    50 H    0.969
                            24 C    0.107
    20   6 C    3.988 --    19 C    1.445    21 C    1.370    51 H    0.965
    21   6 C    3.937 --    20 C    1.370    24 C    1.344    22 O    1.071
    22   8 O    2.238 --    21 C    1.071    23 C    0.984
    23   6 C    3.945 --    22 O    0.984    52 H    0.979    54 H    0.977
                            53 H    0.976
    24   6 C    3.987 --    25 C    1.478    21 C    1.344    55 H    0.967
                            19 C    0.107
    25   6 C    3.989 --    24 C    1.478    18 C    1.379    56 H    0.968
    26   8 O    2.021 --    17 C    1.698    16 N    0.185
    27   6 C    3.963 --    28 C    0.988    16 N    0.960    57 H    0.952
                            34 C    0.951
    28   6 C    3.985 --    33 C    1.415    29 C    1.411    27 C    0.988
                            31 C    0.110
    29   6 C    3.992 --    30 C    1.447    28 C    1.411    58 H    0.969
                            32 C    0.112
    30   6 C    3.992 --    29 C    1.447    31 C    1.437    59 H    0.971
                            33 C    0.111
    31   6 C    3.991 --    32 C    1.440    30 C    1.437    60 H    0.971
                            28 C    0.110
    32   6 C    3.992 --    33 C    1.443    31 C    1.440    61 H    0.971
                            29 C    0.112
    33   6 C    3.990 --    32 C    1.443    28 C    1.415    62 H    0.968
                            30 C    0.111
    34   6 C    3.964 --    35 C    0.990    11 N    0.961    63 H    0.954
                            27 C    0.951
    35   6 C    3.985 --    40 C    1.417    36 C    1.407    34 C    0.990
                            38 C    0.109
    36   6 C    3.989 --    37 C    1.450    35 C    1.407    64 H    0.963
                            39 C    0.112
    37   6 C    3.992 --    36 C    1.450    38 C    1.434    65 H    0.970
                            40 C    0.109
    38   6 C    3.991 --    39 C    1.442    37 C    1.434    66 H    0.971
                            35 C    0.109
    39   6 C    3.992 --    38 C    1.442    40 C    1.439    67 H    0.971
                            36 C    0.112
    40   6 C    3.991 --    39 C    1.439    35 C    1.417    68 H    0.968
                            37 C    0.109
    41   1 H    0.998 --     4 C    0.968
    42   1 H    0.996 --     5 C    0.967
    43   1 H    0.998 --     8 C    0.977
    44   1 H    0.995 --     8 C    0.979
    45   1 H    0.998 --     8 C    0.976
    46   1 H    0.997 --     9 C    0.965
    47   1 H    0.997 --    10 C    0.968
    48   1 H    0.995 --    12 C    0.945
    49   1 H    0.880 --    14 O    0.856
    50   1 H    0.999 --    19 C    0.969
    51   1 H    0.998 --    20 C    0.965
    52   1 H    0.995 --    23 C    0.979
    53   1 H    0.998 --    23 C    0.976
    54   1 H    0.998 --    23 C    0.977
    55   1 H    0.996 --    24 C    0.967
    56   1 H    0.996 --    25 C    0.968
    57   1 H    0.995 --    27 C    0.952
    58   1 H    0.999 --    29 C    0.969
    59   1 H    0.998 --    30 C    0.971
    60   1 H    0.998 --    31 C    0.971
    61   1 H    0.998 --    32 C    0.971
    62   1 H    0.999 --    33 C    0.968
    63   1 H    0.997 --    34 C    0.954
    64   1 H    0.997 --    36 C    0.963
    65   1 H    0.998 --    37 C    0.970
    66   1 H    0.998 --    38 C    0.971
    67   1 H    0.998 --    39 C    0.971
    68   1 H    0.999 --    40 C    0.968
 ---------------------------------------------------------------------------

molecular dipole:
                 x           y           z       tot (Debye)
 q only:        1.022      -0.790      -1.088
   full:        1.065      -0.591      -1.350       4.621

           -------------------------------------------------
          | TOTAL ENERGY             -113.088360569905 Eh   |
          | GRADIENT NORM               0.000539054435 Eh/Î± |
          | HOMO-LUMO GAP               3.523893030767 eV   |
           -------------------------------------------------

 * finished run on 2022/03/16 at 21:41:15.203
