   * xtb version 6.3.3 (4ae9cef) compiled by 'conda@95abc7406d43' on 2020-10-14
          program call               : xtb acid_471.xyz --opt --chrg 0 --uhf 0 --gfn 2
          number of atoms            :                    70
          number of electrons        :                   218
          charge                     :                     0
          spin                       :                   0.0

   ID    Z sym.   atoms
    1    6 C      1, 3-16, 18, 20-25, 27, 28, 30, 31, 35-40, 42, 43
    2    8 O      2, 17, 29, 32, 33, 44
    3    7 N      19, 26, 34, 41
    4    1 H      45-70

          :  Hamiltonian                  GFN2-xTB          :
 * total energy  :  -122.0713021 Eh     change       -0.1054104E-08 Eh
 * total energy  :  -122.0860888 Eh     change       -0.1478671E-01 Eh
 * total energy  :  -122.0911947 Eh     change       -0.5105876E-02 Eh
 * total energy  :  -122.0933608 Eh     change       -0.2166109E-02 Eh
 * total energy  :  -122.0948701 Eh     change       -0.1509270E-02 Eh
 * total energy  :  -122.0957904 Eh     change       -0.9203084E-03 Eh
 * total energy  :  -122.0965818 Eh     change       -0.7914489E-03 Eh
 * total energy  :  -122.0973125 Eh     change       -0.7306301E-03 Eh
 * total energy  :  -122.0980543 Eh     change       -0.7418666E-03 Eh
 * total energy  :  -122.0988080 Eh     change       -0.7536301E-03 Eh
 * total energy  :  -122.1099249 Eh     change       -0.2140316E-04 Eh
 * total energy  :  -122.1099362 Eh     change       -0.1132005E-04 Eh
 * total energy  :  -122.1099588 Eh     change       -0.2262284E-04 Eh
 * total energy  :  -122.1099762 Eh     change       -0.1731893E-04 Eh
 * total energy  :  -122.1099820 Eh     change       -0.5842821E-05 Eh
 * total energy  :  -122.1099714 Eh     change        0.1056513E-04 Eh
 * total energy  :  -122.1099903 Eh     change       -0.1890796E-04 Eh
 * total energy  :  -122.1099956 Eh     change       -0.5217059E-05 Eh
 * total energy  :  -122.1099978 Eh     change       -0.2247241E-05 Eh
   *** GEOMETRY OPTIMIZATION CONVERGED AFTER 72 ITERATIONS ***

 final structure:
================
70
 xtb: 6.3.3 (4ae9cef)
C        -1.83494288655853   -2.92856758050410    2.09362561457470
O        -0.94741059420331   -2.79681710318483    3.11996785248265
C        -1.17269054122653   -3.52328266250220    4.30481863016500
C        -2.88697236611045   -3.83657088121857    2.08564383030706
C        -3.73927279589471   -3.91122831788052    0.99819128939435
C        -3.55660106876402   -3.08392981897151   -0.09292022978268
C        -2.51158631366720   -2.17767438532776   -0.09003722932555
C        -1.64466435815244   -2.08987054548746    0.98641323671786
C        -0.52423113016175   -1.08878801590923    0.98173201930072
C         0.47480694255125   -1.28380980994486   -0.17025870883408
C         1.49319673926746   -2.38020369731508   -0.05829669985662
C         1.70193727802668   -3.12328446542402    1.08744504997515
C         2.64354497734234   -4.14101220729106    1.10576821578546
C         3.38368952263170   -4.41173362467823   -0.02671569447615
C         3.18575296989034   -3.68039607062427   -1.18694309547617
C         2.23881566097973   -2.66868508181584   -1.21472734541321
O         1.95561761026615   -1.90012121300364   -2.30690378597210
C         2.78789861249704   -2.01571731585124   -3.43599236877236
N         1.02963573093958    0.06735246561666   -0.31316369927000
C         2.33845748504653    0.43369462362279   -0.25520644579494
C         2.55532570243004    1.90552604172254   -0.46756879036411
C         2.42734287749061    2.44366833113747   -1.74354265493633
C         2.66926654675492    3.78541181445294   -1.95893165628617
C         3.04499656618973    4.59850130932811   -0.88959570937754
C         3.28784794044214    5.97652342218702   -1.09992357345140
N         3.49206996848986    7.09183414292274   -1.26641627026881
C         3.19460693384193    4.05721708672490    0.38779339064570
C         2.95625767239731    2.71252333747418    0.59208495678697
O         3.26395435406925   -0.32691955256164   -0.09072553387040
C        -0.06609891025361    0.98955136221736   -0.13934249381958
C        -0.68833608794086    1.38936775574793   -1.49146028250618
O        -1.34763408366078    0.39254213648226   -2.07015676519869
O        -0.56305686432185    2.47778079301351   -1.98098865085801
N        -0.99721578783902    0.27088284928830    0.70664095456656
C        -2.14132716303279    0.79200382924661    1.21220121866992
C        -2.47405621393444    2.14447640284316    0.64764554074896
C        -3.45296232304869    2.22283888180588   -0.33745437603788
C        -3.78279519034699    3.44208091546298   -0.89437425988398
C        -3.13518775044673    4.59737182699016   -0.45726894543727
C        -3.46734516634344    5.84642805641420   -1.03341604035232
N        -3.74840698792236    6.85466199020296   -1.50016282046003
C        -2.17387793129785    4.52563030842564    0.55041953203256
C        -1.84977192295868    3.30130194932926    1.10035368624351
O        -2.84893393116756    0.21379317128711    2.00542554650957
H        -2.15073668345924   -3.29064061539276    4.73523727101522
H        -0.39134249033187   -3.20800317034858    4.99507424198021
H        -1.09044473138835   -4.60191565503026    4.13671027702520
H        -3.05666163049923   -4.48753952876019    2.92822457524480
H        -4.55400103567977   -4.61961964498587    1.01305966297425
H        -4.22621323607706   -3.13802400676890   -0.93759150759791
H        -2.37551789389140   -1.51342706601350   -0.93056776043444
H        -0.01685207212125   -1.09616278462955    1.95212690820344
H        -0.09857625186590   -1.47184846804034   -1.09018192119206
H         1.12918705413095   -2.91811594170625    1.97664684536744
H         2.79949614102508   -4.71205098581909    2.00811372479528
H         4.12591337345873   -5.19600187081108   -0.01796826199332
H         3.77868065382106   -3.90672251244639   -2.05871993004364
H         3.83143336991506   -1.81006781085777   -3.18044658444651
H         2.70975861877639   -3.00586543992477   -3.89682358583081
H         2.43486497906611   -1.26532232121237   -4.14269467549479
H         2.14611783254058    1.80497481548974   -2.56694157776453
H         2.56593968948677    4.21117576709614   -2.94527468142361
H         3.49924722034726    4.69282040338100    1.20605387596419
H         3.07892811697583    2.28037170072468    1.57426985337450
H         0.28322644409179    1.92289027325705    0.32584383228055
H        -1.70036173849003    0.66260261575021   -2.93517562957473
H        -3.95162023082857    1.32033782299098   -0.65986342004475
H        -4.53637838594522    3.51069116222269   -1.66492321510063
H        -1.68825715153750    5.42772854378951    0.89122644117381
H        -1.11547468388262    3.24338226354830    1.89090780269714

          :  Hamiltonian                  GFN2-xTB          :
         :: total energy            -122.109997806040 Eh    ::
         :: gradient norm              0.000878190887 Eh/a0 ::
         :: HOMO-LUMO gap              2.470241365989 eV    ::
         :: SCC energy              -123.982790049834 Eh    ::
         :: -> dispersion             -0.099643682869 Eh    ::
         :: repulsion energy           1.869689466508 Eh    ::

    * Orbital Energies and Occupations

         #    Occupation            Energy/Eh            Energy/eV
      -------------------------------------------------------------
         1        2.0000           -0.7906699             -21.5152
       ...           ...                  ...                  ...
        97        2.0000           -0.4339024             -11.8071
        98        2.0000           -0.4324703             -11.7681
        99        2.0000           -0.4296293             -11.6908
       100        2.0000           -0.4284526             -11.6588
       101        2.0000           -0.4273486             -11.6287
       102        2.0000           -0.4226883             -11.5019
       103        2.0000           -0.4177838             -11.3685
       104        2.0000           -0.4123386             -11.2203
       105        2.0000           -0.4101884             -11.1618
       106        2.0000           -0.4047648             -11.0142
       107        2.0000           -0.4021128             -10.9420
       108        2.0000           -0.3865687             -10.5191
       109        2.0000           -0.3816003             -10.3839 (HOMO)
       110                         -0.2908206              -7.9136 (LUMO)
       111                         -0.2850213              -7.7558
       112                         -0.2786904              -7.5836
       113                         -0.2575376              -7.0080
       114                         -0.2551644              -6.9434
       115                         -0.2371231              -6.4524
       116                         -0.2333648              -6.3502
       117                         -0.2310698              -6.2877
       118                         -0.2262582              -6.1568
       119                         -0.2223139              -6.0495
       120                         -0.2181326              -5.9357
       ...                                ...                  ...
       202                          1.1658001              31.7230
      -------------------------------------------------------------
                  HL-Gap            0.0907797 Eh            2.4702 eV

     #   Z          covCN         q      C6AA      α(0)
     1   6 C        2.867     0.147    24.809     8.165
     2   8 O        1.705    -0.271    18.495     5.806
     3   6 C        3.643     0.037    20.289     6.475
     4   6 C        2.918    -0.062    29.553     8.915
     5   6 C        2.921    -0.029    28.729     8.790
     6   6 C        2.918    -0.039    28.978     8.827
     7   6 C        2.925    -0.035    28.860     8.810
     8   6 C        2.972    -0.008    28.223     8.714
     9   6 C        3.825     0.043    19.831     6.337
    10   6 C        3.849     0.043    19.814     6.331
    11   6 C        2.970    -0.007    28.189     8.709
    12   6 C        2.922    -0.036    28.906     8.817
    13   6 C        2.919    -0.038    28.956     8.824
    14   6 C        2.921    -0.029    28.721     8.788
    15   6 C        2.917    -0.061    29.524     8.910
    16   6 C        2.873     0.150    24.750     8.155
    17   8 O        1.705    -0.278    18.610     5.824
    18   6 C        3.644     0.040    20.230     6.465
    19   7 N        2.768    -0.111    23.424     7.188
    20   6 C        2.758     0.277    22.322     7.737
    21   6 C        2.977    -0.013    28.336     8.732
    22   6 C        2.922    -0.018    28.469     8.750
    23   6 C        2.926    -0.013    28.328     8.728
    24   6 C        2.974     0.025    27.448     8.594
    25   6 C        1.912     0.114    28.297     8.591
    26   7 N        0.911    -0.221    25.836     7.351
    27   6 C        2.926    -0.019    28.476     8.751
    28   6 C        2.921    -0.023    28.581     8.767
    29   8 O        0.858    -0.403    21.731     6.250
    30   6 C        3.776     0.088    19.155     6.236
    31   6 C        2.687     0.350    21.064     7.511
    32   8 O        1.659    -0.350    19.908     6.023
    33   8 O        0.856    -0.393    21.552     6.224
    34   7 N        2.773    -0.118    23.562     7.209
    35   6 C        2.759     0.272    22.411     7.752
    36   6 C        2.978    -0.014    28.368     8.737
    37   6 C        2.923    -0.023    28.582     8.767
    38   6 C        2.926    -0.016    28.420     8.743
    39   6 C        2.974     0.028    27.371     8.582
    40   6 C        1.912     0.115    28.270     8.587
    41   7 N        0.911    -0.219    25.777     7.343
    42   6 C        2.926    -0.014    28.372     8.735
    43   6 C        2.920    -0.025    28.630     8.774
    44   8 O        0.858    -0.408    21.842     6.266
    45   1 H        0.924     0.048     2.348     2.396
    46   1 H        0.925     0.063     2.164     2.300
    47   1 H        0.924     0.042     2.428     2.437
    48   1 H        0.926     0.043     2.410     2.428
    49   1 H        0.926     0.040     2.444     2.445
    50   1 H        0.926     0.037     2.491     2.468
    51   1 H        0.926     0.040     2.445     2.445
    52   1 H        0.924     0.071     2.073     2.251
    53   1 H        0.923     0.075     2.035     2.231
    54   1 H        0.926     0.054     2.267     2.354
    55   1 H        0.926     0.039     2.463     2.454
    56   1 H        0.926     0.040     2.451     2.448
    57   1 H        0.926     0.041     2.438     2.442
    58   1 H        0.924     0.048     2.340     2.392
    59   1 H        0.924     0.041     2.441     2.444
    60   1 H        0.925     0.055     2.259     2.350
    61   1 H        0.926     0.041     2.430     2.438
    62   1 H        0.926     0.055     2.253     2.347
    63   1 H        0.926     0.051     2.301     2.372
    64   1 H        0.926     0.048     2.348     2.396
    65   1 H        0.923     0.061     2.185     2.312
    66   1 H        0.804     0.344     0.602     1.218
    67   1 H        0.926     0.047     2.360     2.402
    68   1 H        0.926     0.052     2.299     2.371
    69   1 H        0.926     0.054     2.274     2.358
    70   1 H        0.926     0.040     2.446     2.446

Wiberg/Mayer (AO) data.
largest (>0.10) Wiberg bond orders for each atom

     #   Z sym  total        # sym  WBO       # sym  WBO       # sym  WBO
 ---------------------------------------------------------------------------
     1   6 C    3.936 --     4 C    1.379     8 C    1.327     2 O    1.061
     2   8 O    2.234 --     1 C    1.061     3 C    0.981
     3   6 C    3.943 --     2 O    0.981    46 H    0.979    45 H    0.977
                            47 H    0.976
     4   6 C    3.987 --     5 C    1.439     1 C    1.379    48 H    0.965
                             7 C    0.103
     5   6 C    3.990 --     6 C    1.440     4 C    1.439    49 H    0.971
                             8 C    0.106
     6   6 C    3.991 --     5 C    1.440     7 C    1.430    50 H    0.971
     7   6 C    3.990 --     8 C    1.433     6 C    1.430    51 H    0.964
                             4 C    0.103
     8   6 C    3.982 --     7 C    1.433     1 C    1.327     9 C    0.996
                             5 C    0.106
     9   6 C    3.958 --     8 C    0.996    10 C    0.962    52 H    0.948
                            34 N    0.941
    10   6 C    3.957 --    11 C    0.998     9 C    0.962    19 N    0.940
                            53 H    0.938
    11   6 C    3.979 --    12 C    1.448    16 C    1.313    10 C    0.998
                            14 C    0.106
    12   6 C    3.987 --    11 C    1.448    13 C    1.415    54 H    0.961
                            15 C    0.100
    13   6 C    3.991 --    14 C    1.453    12 C    1.415    55 H    0.971
    14   6 C    3.991 --    13 C    1.453    15 C    1.425    56 H    0.971
                            11 C    0.106
    15   6 C    3.987 --    14 C    1.425    16 C    1.394    57 H    0.965
                            12 C    0.100
    16   6 C    3.934 --    15 C    1.394    11 C    1.313    17 O    1.057
    17   8 O    2.223 --    16 C    1.057    18 C    0.983
    18   6 C    3.945 --    17 O    0.983    60 H    0.980    58 H    0.977
                            59 H    0.976
    19   7 N    3.464 --    20 C    1.204    30 C    0.988    10 C    0.940
                            29 O    0.190
    20   6 C    3.946 --    29 O    1.709    19 N    1.204    21 C    0.950
    21   6 C    3.961 --    28 C    1.398    22 C    1.397    20 C    0.950
    22   6 C    3.991 --    23 C    1.457    21 C    1.397    61 H    0.969
                            27 C    0.106
    23   6 C    3.990 --    22 C    1.457    24 C    1.363    62 H    0.968
                            28 C    0.105
    24   6 C    3.990 --    23 C    1.363    27 C    1.362    25 C    1.092
    25   6 C    3.948 --    26 N    2.810    24 C    1.092
    26   7 N    2.981 --    25 C    2.810
    27   6 C    3.990 --    28 C    1.457    24 C    1.362    63 H    0.969
                            22 C    0.106
    28   6 C    3.991 --    27 C    1.457    21 C    1.398    64 H    0.968
                            23 C    0.105
    29   8 O    2.044 --    20 C    1.709    19 N    0.190
    30   6 C    3.973 --    19 N    0.988    34 N    0.979    65 H    0.944
                            31 C    0.911
    31   6 C    3.921 --    33 O    1.772    32 O    1.161    30 C    0.911
    32   8 O    2.232 --    31 C    1.161    66 H    0.854    33 O    0.182
    33   8 O    2.054 --    31 C    1.772    32 O    0.182
    34   7 N    3.465 --    35 C    1.218    30 C    0.979     9 C    0.941
                            44 O    0.198
    35   6 C    3.950 --    44 O    1.702    34 N    1.218    36 C    0.949
    36   6 C    3.962 --    43 C    1.400    37 C    1.397    35 C    0.949
    37   6 C    3.991 --    38 C    1.457    36 C    1.397    67 H    0.968
                            42 C    0.105
    38   6 C    3.990 --    37 C    1.457    39 C    1.363    68 H    0.969
                            43 C    0.105
    39   6 C    3.990 --    38 C    1.363    42 C    1.362    40 C    1.091
    40   6 C    3.948 --    41 N    2.812    39 C    1.091
    41   7 N    2.982 --    40 C    2.812
    42   6 C    3.990 --    43 C    1.457    39 C    1.362    69 H    0.969
                            37 C    0.105
    43   6 C    3.992 --    42 C    1.457    36 C    1.400    70 H    0.968
                            38 C    0.105
    44   8 O    2.035 --    35 C    1.702    34 N    0.198
    45   1 H    0.998 --     3 C    0.977
    46   1 H    0.996 --     3 C    0.979
    47   1 H    0.998 --     3 C    0.976
    48   1 H    0.998 --     4 C    0.965
    49   1 H    0.998 --     5 C    0.971
    50   1 H    0.998 --     6 C    0.971
    51   1 H    0.998 --     7 C    0.964
    52   1 H    0.994 --     9 C    0.948
    53   1 H    0.994 --    10 C    0.938
    54   1 H    0.996 --    12 C    0.961
    55   1 H    0.998 --    13 C    0.971
    56   1 H    0.998 --    14 C    0.971
    57   1 H    0.998 --    15 C    0.965
    58   1 H    0.998 --    18 C    0.977
    59   1 H    0.998 --    18 C    0.976
    60   1 H    0.997 --    18 C    0.980
    61   1 H    0.997 --    22 C    0.969
    62   1 H    0.996 --    23 C    0.968
    63   1 H    0.997 --    27 C    0.969
    64   1 H    0.997 --    28 C    0.968
    65   1 H    0.996 --    30 C    0.944
    66   1 H    0.881 --    32 O    0.854
    67   1 H    0.997 --    37 C    0.968
    68   1 H    0.997 --    38 C    0.969
    69   1 H    0.996 --    42 C    0.969
    70   1 H    0.997 --    43 C    0.968
 ---------------------------------------------------------------------------

molecular dipole:
                 x           y           z       tot (Debye)
 q only:       -0.182      -2.798      -0.252
   full:       -0.187      -3.472      -0.213       8.854

           -------------------------------------------------
          | TOTAL ENERGY             -122.109997806040 Eh   |
          | GRADIENT NORM               0.000878190887 Eh/α |
          | HOMO-LUMO GAP               2.470241365989 eV   |
           -------------------------------------------------

 * finished run on 2022/03/17 at 01:35:35.803
