   * xtb version 6.3.3 (4ae9cef) compiled by 'conda@95abc7406d43' on 2020-10-14
          program call               : xtb acid_60.xyz --opt --chrg 0 --uhf 0 --gfn 2
          number of atoms            :                    82
          number of electrons        :                   250
          charge                     :                     0
          spin                       :                   0.0

   ID    Z sym.   atoms
    1    6 C      1, 3-16, 18, 20-30, 33, 34, 38-48
    2    8 O      2, 17, 31, 32, 35, 36, 49, 50
    3    7 N      19, 37
    4    1 H      51-82

          :  Hamiltonian                  GFN2-xTB          :
 * total energy  :  -140.3612594 Eh     change       -0.3347679E-08 Eh
 * total energy  :  -140.3756590 Eh     change       -0.1439963E-01 Eh
 * total energy  :  -140.3806785 Eh     change       -0.5019501E-02 Eh
 * total energy  :  -140.3821807 Eh     change       -0.1502216E-02 Eh
 * total energy  :  -140.3830470 Eh     change       -0.8662934E-03 Eh
 * total energy  :  -140.3835235 Eh     change       -0.4765083E-03 Eh
 * total energy  :  -140.3839410 Eh     change       -0.4175189E-03 Eh
 * total energy  :  -140.3843470 Eh     change       -0.4059912E-03 Eh
 * total energy  :  -140.3847387 Eh     change       -0.3916964E-03 Eh
 * total energy  :  -140.3849876 Eh     change       -0.2488666E-03 Eh
 * total energy  :  -140.3938149 Eh     change       -0.1764182E-04 Eh
 * total energy  :  -140.3938333 Eh     change       -0.1841113E-04 Eh
 * total energy  :  -140.3938534 Eh     change       -0.2013332E-04 Eh
 * total energy  :  -140.3938743 Eh     change       -0.2085075E-04 Eh
 * total energy  :  -140.3938937 Eh     change       -0.1943777E-04 Eh
 * total energy  :  -140.3939123 Eh     change       -0.1860559E-04 Eh
 * total energy  :  -140.3939313 Eh     change       -0.1897739E-04 Eh
 * total energy  :  -140.3939517 Eh     change       -0.2040719E-04 Eh
 * total energy  :  -140.3939566 Eh     change       -0.4842859E-05 Eh
   *** GEOMETRY OPTIMIZATION CONVERGED AFTER 94 ITERATIONS ***

 final structure:
================
82
 xtb: 6.3.3 (4ae9cef)
C        -2.43261425509466   -2.28068417041641   -0.01671889793928
O        -2.25122343495578   -2.91491741246175    1.18019240251951
C        -2.98802528617029   -4.08337837308309    1.44174704590607
C        -3.36594630022017   -2.66089728475884   -0.97207189483484
C        -3.47952459911360   -1.95047501958836   -2.15552258034354
C        -2.65906976942507   -0.86765529352133   -2.40658324010907
C        -1.72130801439748   -0.48852770084631   -1.46188392538928
C        -1.61227952467877   -1.17163641779129   -0.26249930765701
C        -0.57264529319593   -0.78555642156265    0.75385945078649
C         0.82951853094979   -1.23330814935232    0.28619236584242
C         1.17092981744363   -2.58489718882437    0.84736993772048
C         1.72670386837218   -2.72920873170547    2.10487924955173
C         1.98996714335650   -3.98552842890692    2.62431576950942
C         1.68276452823785   -5.10660782538794    1.87855483736205
C         1.11289977044194   -4.98217715664784    0.62221764528901
C         0.84761520344487   -3.72405667549549    0.09645578741641
O         0.26849659972938   -3.49823609404442   -1.11582213232213
C        -0.03388816009704   -4.59699646103606   -1.93785642591748
N         1.70863209039305   -0.17507081444805    0.76439681620120
C         3.04037266105832   -0.24799231669460    0.45230160480384
C         3.86922249469141    0.86647484378072    0.95930010769805
C         3.87751195200695    1.53897110054371    2.15734290658403
C         4.98860362538045    2.39782938710704    2.12026856568886
C         5.59490859590234    2.19691746866204    0.89993567545217
C         6.77152871072936    2.79649408187909    0.30098844256388
C         7.24360283483319    2.32914170086326   -0.92721056433695
C         8.36982428831042    2.88668341776095   -1.49979875468816
C         9.04175066446213    3.91569568578769   -0.85983686398473
C         8.57860849719420    4.38708658798721    0.35831247666053
C         7.45260743700910    3.83541286039667    0.93737639165734
O         4.91656745194353    1.25933551087087    0.21091757500257
O         3.51423022025911   -1.19912924738756   -0.13189011584914
C         0.96899046047348    1.05178681896686    0.93451943950248
C         1.19456048275910    2.02122071353464   -0.24828526124516
O         1.89614411093884    3.08787390240124    0.11376431012399
O         0.87037291339657    1.77017755484922   -1.37635454434567
N        -0.42049136423712    0.64449336143730    0.95051743103293
C        -1.32755905642222    1.63745135803009    0.76547105643501
C        -2.74352609777834    1.26292578631321    0.86200367839400
C        -3.39325393844542    0.30822996392088    1.60905597544778
C        -4.76181270528716    0.46962665825044    1.34583807774559
C        -4.86744350587017    1.51644088919427    0.45448917259928
C        -6.02349350472373    2.13131827055621   -0.16782973468668
C        -7.30803311465799    1.62896831217111    0.04689352530182
C        -8.40047141708109    2.23565335462015   -0.54128121163145
C        -8.23161584785408    3.34784445134870   -1.35065315502000
C        -6.95956719078175    3.85063631808803   -1.57247456779465
C        -5.86206505911729    3.24984121570493   -0.98798547739297
O        -3.64189940673933    1.99617980735207    0.17903134070394
O        -0.94482333833369    2.78632184145254    0.59413148807437
H        -4.06320107330825   -3.88170776767014    1.48898623102935
H        -2.64332357984866   -4.43480993293443    2.41319484120701
H        -2.79544973291164   -4.85653483431928    0.69151509629892
H        -4.01185440481996   -3.50848197281910   -0.80532113919952
H        -4.21477133856079   -2.25644438005444   -2.88504741918265
H        -2.74253694501626   -0.32218440171912   -3.33345005823710
H        -1.06677683454950    0.34862965418299   -1.65642395774708
H        -0.79758476054909   -1.26501262813977    1.71434112556051
H         0.86480853457607   -1.28271697184157   -0.80957580102599
H         1.96551077492108   -1.84502599178075    2.67701178576356
H         2.43183554636586   -4.08540028573409    3.60377522996410
H         1.88430198452103   -6.09234165220614    2.27126144372871
H         0.88158652434176   -5.87379897084307    0.06081913294867
H         0.86394718047946   -5.16692532203050   -2.19641264410050
H        -0.46720209165191   -4.17249078732624   -2.84223340533754
H        -0.76555797473402   -5.26342124980343   -1.46824877233727
H         3.19596516841519    1.41343403583253    2.97370688057954
H         5.29841979420159    3.06711698862059    2.89578085206879
H         6.71924113163163    1.52424272055802   -1.41892162180565
H         8.72797294670356    2.51635297324117   -2.44910174538813
H         9.92348971259095    4.34917737065841   -1.30791600063558
H         9.09961821151738    5.19015408073081    0.85878663331534
H         7.09580597753443    4.20933628279570    1.88421802590609
H         1.22683770178774    1.57819159790668    1.86242763356859
H         1.99475804149533    3.69966599472492   -0.63364546592813
H        -2.94863548097904   -0.40311721353065    2.27334249473776
H        -5.56098259783078   -0.10624011519560    1.76465209121950
H        -7.44685612513261    0.76290827342436    0.67485807940610
H        -9.39076694225810    1.84059662417698   -0.36772703045692
H        -9.08906382494633    3.82062048548929   -1.80597308280382
H        -6.82449047674677    4.71726325144674   -2.20267556811322
H        -4.86939881620113    3.63886910422908   -1.15402275906511

          :  Hamiltonian                  GFN2-xTB          :
         :: total energy            -140.393956566469 Eh    ::
         :: gradient norm              0.000304398004 Eh/a0 ::
         :: HOMO-LUMO gap              2.853558586628 eV    ::
         :: SCC energy              -142.428816135834 Eh    ::
         :: -> dispersion             -0.114907324923 Eh    ::
         :: repulsion energy           2.032235773376 Eh    ::

    * Orbital Energies and Occupations

         #    Occupation            Energy/Eh            Energy/eV
      -------------------------------------------------------------
         1        2.0000           -0.7492846             -20.3891
       ...           ...                  ...                  ...
       113        2.0000           -0.4221241             -11.4866
       114        2.0000           -0.4121168             -11.2143
       115        2.0000           -0.4105136             -11.1706
       116        2.0000           -0.4087190             -11.1218
       117        2.0000           -0.4068378             -11.0706
       118        2.0000           -0.4032185             -10.9721
       119        2.0000           -0.4014330             -10.9235
       120        2.0000           -0.3973419             -10.8122
       121        2.0000           -0.3890009             -10.5853
       122        2.0000           -0.3859650             -10.5026
       123        2.0000           -0.3803436             -10.3497
       124        2.0000           -0.3769017             -10.2560
       125        2.0000           -0.3753683             -10.2143 (HOMO)
       126                         -0.2705019              -7.3607 (LUMO)
       127                         -0.2635527              -7.1716
       128                         -0.2413202              -6.5667
       129                         -0.2340330              -6.3684
       130                         -0.2300051              -6.2588
       131                         -0.2282056              -6.2098
       132                         -0.2275522              -6.1920
       133                         -0.2239364              -6.0936
       134                         -0.2215747              -6.0294
       135                         -0.2183200              -5.9408
       136                         -0.2134582              -5.8085
       ...                                ...                  ...
       232                          0.7151887              19.4613
      -------------------------------------------------------------
                  HL-Gap            0.1048663 Eh            2.8536 eV

     #   Z          covCN         q      C6AA      Î±(0)
     1   6 C        2.868     0.141    24.932     8.185
     2   8 O        1.705    -0.279    18.635     5.828
     3   6 C        3.643     0.041    20.231     6.466
     4   6 C        2.918    -0.066    29.641     8.928
     5   6 C        2.921    -0.033    28.815     8.803
     6   6 C        2.918    -0.037    28.928     8.820
     7   6 C        2.923    -0.034    28.857     8.809
     8   6 C        2.974    -0.018    28.447     8.749
     9   6 C        3.819     0.039    19.905     6.349
    10   6 C        3.837     0.052    19.682     6.312
    11   6 C        2.974    -0.006    28.163     8.705
    12   6 C        2.924    -0.030    28.746     8.792
    13   6 C        2.918    -0.040    28.986     8.829
    14   6 C        2.921    -0.032    28.791     8.799
    15   6 C        2.918    -0.065    29.611     8.923
    16   6 C        2.869     0.145    24.839     8.170
    17   8 O        1.705    -0.272    18.502     5.808
    18   6 C        3.644     0.040    20.233     6.466
    19   7 N        2.760    -0.126    23.739     7.236
    20   6 C        2.760     0.267    22.501     7.768
    21   6 C        3.101     0.078    26.142     8.379
    22   6 C        3.010    -0.060    29.462     8.904
    23   6 C        3.015    -0.065    29.602     8.925
    24   6 C        3.104     0.115    25.346     8.250
    25   6 C        2.971     0.006    27.890     8.663
    26   6 C        2.925    -0.029    28.722     8.789
    27   6 C        2.918    -0.027    28.678     8.782
    28   6 C        2.920    -0.029    28.724     8.789
    29   6 C        2.918    -0.028    28.693     8.784
    30   6 C        2.924    -0.036    28.885     8.814
    31   8 O        1.731    -0.166    16.798     5.534
    32   8 O        0.859    -0.400    21.679     6.243
    33   6 C        3.777     0.092    19.076     6.223
    34   6 C        2.689     0.368    20.761     7.457
    35   8 O        1.659    -0.361    20.109     6.054
    36   8 O        0.856    -0.398    21.643     6.237
    37   7 N        2.764    -0.113    23.464     7.194
    38   6 C        2.770     0.267    22.503     7.769
    39   6 C        3.107     0.085    25.974     8.350
    40   6 C        3.010    -0.060    29.479     8.906
    41   6 C        3.017    -0.067    29.653     8.932
    42   6 C        3.106     0.116    25.317     8.244
    43   6 C        2.971     0.006    27.884     8.662
    44   6 C        2.924    -0.035    28.873     8.812
    45   6 C        2.918    -0.028    28.689     8.783
    46   6 C        2.920    -0.028    28.711     8.787
    47   6 C        2.918    -0.027    28.665     8.780
    48   6 C        2.925    -0.028    28.701     8.786
    49   8 O        1.731    -0.161    16.720     5.521
    50   8 O        0.860    -0.427    22.227     6.321
    51   1 H        0.924     0.042     2.421     2.433
    52   1 H        0.925     0.062     2.173     2.305
    53   1 H        0.924     0.039     2.458     2.452
    54   1 H        0.926     0.038     2.475     2.460
    55   1 H        0.926     0.038     2.473     2.459
    56   1 H        0.926     0.044     2.400     2.423
    57   1 H        0.926     0.065     2.144     2.290
    58   1 H        0.924     0.067     2.118     2.276
    59   1 H        0.924     0.080     1.982     2.202
    60   1 H        0.926     0.038     2.477     2.461
    61   1 H        0.926     0.038     2.474     2.460
    62   1 H        0.926     0.038     2.479     2.462
    63   1 H        0.926     0.038     2.472     2.459
    64   1 H        0.924     0.047     2.363     2.404
    65   1 H        0.925     0.063     2.164     2.301
    66   1 H        0.924     0.035     2.517     2.481
    67   1 H        0.926     0.038     2.474     2.459
    68   1 H        0.927     0.044     2.391     2.418
    69   1 H        0.926     0.052     2.298     2.370
    70   1 H        0.926     0.036     2.499     2.472
    71   1 H        0.926     0.034     2.528     2.486
    72   1 H        0.926     0.035     2.521     2.483
    73   1 H        0.926     0.036     2.500     2.473
    74   1 H        0.924     0.074     2.044     2.236
    75   1 H        0.804     0.345     0.601     1.217
    76   1 H        0.927     0.047     2.354     2.399
    77   1 H        0.926     0.042     2.417     2.431
    78   1 H        0.926     0.035     2.516     2.481
    79   1 H        0.926     0.035     2.514     2.479
    80   1 H        0.926     0.035     2.510     2.478
    81   1 H        0.926     0.038     2.480     2.463
    82   1 H        0.926     0.053     2.279     2.361

Wiberg/Mayer (AO) data.
largest (>0.10) Wiberg bond orders for each atom

     #   Z sym  total        # sym  WBO       # sym  WBO       # sym  WBO
 ---------------------------------------------------------------------------
     1   6 C    3.933 --     4 C    1.383     8 C    1.327     2 O    1.052
     2   8 O    2.222 --     1 C    1.052     3 C    0.984
     3   6 C    3.945 --     2 O    0.984    52 H    0.979    53 H    0.977
                            51 H    0.976
     4   6 C    3.986 --     5 C    1.433     1 C    1.383    54 H    0.966
                             7 C    0.103
     5   6 C    3.990 --     6 C    1.444     4 C    1.433    55 H    0.971
                             8 C    0.107
     6   6 C    3.991 --     5 C    1.444     7 C    1.427    56 H    0.970
     7   6 C    3.987 --     8 C    1.435     6 C    1.427    57 H    0.961
                             4 C    0.103
     8   6 C    3.982 --     7 C    1.435     1 C    1.327     9 C    0.993
                             5 C    0.107
     9   6 C    3.962 --     8 C    0.993    37 N    0.959    58 H    0.949
                            10 C    0.945
    10   6 C    3.960 --    11 C    0.994    19 N    0.959    59 H    0.946
                             9 C    0.945
    11   6 C    3.983 --    12 C    1.441    16 C    1.321    10 C    0.994
                            14 C    0.107
    12   6 C    3.989 --    11 C    1.441    13 C    1.423    60 H    0.968
                            15 C    0.102
    13   6 C    3.991 --    14 C    1.446    12 C    1.423    61 H    0.971
    14   6 C    3.990 --    13 C    1.446    15 C    1.432    62 H    0.971
                            11 C    0.107
    15   6 C    3.987 --    14 C    1.432    16 C    1.383    63 H    0.966
                            12 C    0.102
    16   6 C    3.934 --    15 C    1.383    11 C    1.321    17 O    1.061
    17   8 O    2.234 --    16 C    1.061    18 C    0.984
    18   6 C    3.945 --    17 O    0.984    65 H    0.979    64 H    0.976
                            66 H    0.976
    19   7 N    3.427 --    20 C    1.173    33 C    0.983    10 C    0.959
                            32 O    0.182
    20   6 C    3.955 --    32 O    1.694    19 N    1.173    21 C    0.998
    21   6 C    3.899 --    22 C    1.506    31 O    1.127    20 C    0.998
                            24 C    0.122
    22   6 C    3.983 --    21 C    1.506    23 C    1.345    67 H    0.972
    23   6 C    3.983 --    24 C    1.485    22 C    1.345    68 H    0.973
    24   6 C    3.908 --    23 C    1.485    31 O    1.121    25 C    1.088
                            21 C    0.122
    25   6 C    3.988 --    26 C    1.370    30 C    1.369    24 C    1.088
    26   6 C    3.989 --    27 C    1.459    25 C    1.370    69 H    0.968
                            29 C    0.105
    27   6 C    3.992 --    26 C    1.459    28 C    1.431    70 H    0.971
                            30 C    0.105
    28   6 C    3.978 --    27 C    1.431    29 C    1.429    71 H    0.971
    29   6 C    3.992 --    30 C    1.461    28 C    1.429    72 H    0.971
                            26 C    0.105
    30   6 C    3.988 --    29 C    1.461    25 C    1.369    73 H    0.968
                            27 C    0.105
    31   8 O    2.459 --    21 C    1.127    24 C    1.121
    32   8 O    2.033 --    20 C    1.694    19 N    0.182
    33   6 C    3.964 --    19 N    0.983    37 N    0.980    74 H    0.945
                            34 C    0.904
    34   6 C    3.921 --    36 O    1.758    35 O    1.155    33 C    0.904
    35   8 O    2.216 --    34 C    1.155    75 H    0.855    36 O    0.174
    36   8 O    2.051 --    34 C    1.758    35 O    0.174
    37   7 N    3.458 --    38 C    1.209    33 C    0.980     9 C    0.959
                            50 O    0.183
    38   6 C    3.954 --    50 O    1.624    37 N    1.209    39 C    1.019
    39   6 C    3.901 --    40 C    1.492    49 O    1.124    38 C    1.019
                            42 C    0.120
    40   6 C    3.983 --    39 C    1.492    41 C    1.355    76 H    0.972
    41   6 C    3.982 --    42 C    1.475    40 C    1.355    77 H    0.973
    42   6 C    3.908 --    41 C    1.475    49 O    1.128    43 C    1.089
                            39 C    0.120
    43   6 C    3.988 --    48 C    1.369    44 C    1.368    42 C    1.089
    44   6 C    3.987 --    45 C    1.461    43 C    1.368    78 H    0.968
                            47 C    0.105
    45   6 C    3.992 --    44 C    1.461    46 C    1.428    79 H    0.971
                            48 C    0.105
    46   6 C    3.977 --    47 C    1.431    45 C    1.428    80 H    0.971
    47   6 C    3.992 --    48 C    1.459    46 C    1.431    81 H    0.970
                            44 C    0.105
    48   6 C    3.989 --    47 C    1.459    43 C    1.369    82 H    0.968
                            45 C    0.105
    49   8 O    2.464 --    42 C    1.128    39 C    1.124
    50   8 O    2.028 --    38 C    1.624    37 N    0.183
    51   1 H    0.998 --     3 C    0.976
    52   1 H    0.996 --     3 C    0.979
    53   1 H    0.998 --     3 C    0.977
    54   1 H    0.998 --     4 C    0.966
    55   1 H    0.998 --     5 C    0.971
    56   1 H    0.998 --     6 C    0.970
    57   1 H    0.995 --     7 C    0.961
    58   1 H    0.995 --     9 C    0.949
    59   1 H    0.993 --    10 C    0.946
    60   1 H    0.998 --    12 C    0.968
    61   1 H    0.998 --    13 C    0.971
    62   1 H    0.998 --    14 C    0.971
    63   1 H    0.998 --    15 C    0.966
    64   1 H    0.998 --    18 C    0.976
    65   1 H    0.996 --    18 C    0.979
    66   1 H    0.999 --    18 C    0.976
    67   1 H    0.998 --    22 C    0.972
    68   1 H    0.997 --    23 C    0.973
    69   1 H    0.997 --    26 C    0.968
    70   1 H    0.998 --    27 C    0.971
    71   1 H    0.998 --    28 C    0.971
    72   1 H    0.998 --    29 C    0.971
    73   1 H    0.999 --    30 C    0.968
    74   1 H    0.993 --    33 C    0.945
    75   1 H    0.881 --    35 O    0.855
    76   1 H    0.997 --    40 C    0.972
    77   1 H    0.998 --    41 C    0.973
    78   1 H    0.999 --    44 C    0.968
    79   1 H    0.998 --    45 C    0.971
    80   1 H    0.998 --    46 C    0.971
    81   1 H    0.998 --    47 C    0.970
    82   1 H    0.997 --    48 C    0.968
 ---------------------------------------------------------------------------

molecular dipole:
                 x           y           z       tot (Debye)
 q only:       -1.387      -1.084       0.611
   full:       -1.524      -1.160       0.692       5.176

           -------------------------------------------------
          | TOTAL ENERGY             -140.393956566469 Eh   |
          | GRADIENT NORM               0.000304398004 Eh/Î± |
          | HOMO-LUMO GAP               2.853558586628 eV   |
           -------------------------------------------------

 * finished run on 2022/03/17 at 01:53:57.028
