   * xtb version 6.3.3 (4ae9cef) compiled by 'conda@95abc7406d43' on 2020-10-14
          program call               : xtb acid_111.xyz --opt --chrg 0 --uhf 0 --gfn 2
          number of atoms            :                    66
          number of electrons        :                   238
          charge                     :                     0
          spin                       :                   0.0

   ID    Z sym.   atoms
    1    6 C      1, 2, 6-15, 19-22, 24-26, 28-31, 33, 34, 38-44
    2    9 F      3-5, 16-18, 27, 45
    3    7 N      23, 37
    4    8 O      32, 35, 36, 46
    5    1 H      47-66

          :  Hamiltonian                  GFN2-xTB          :
 * total energy  :  -138.7525540 Eh     change       -0.2128502E-08 Eh
 * total energy  :  -138.7686200 Eh     change       -0.1606595E-01 Eh
 * total energy  :  -138.7732336 Eh     change       -0.4613616E-02 Eh
 * total energy  :  -138.7744671 Eh     change       -0.1233450E-02 Eh
 * total energy  :  -138.7751343 Eh     change       -0.6672248E-03 Eh
 * total energy  :  -138.7754508 Eh     change       -0.3165615E-03 Eh
 * total energy  :  -138.7757234 Eh     change       -0.2725713E-03 Eh
 * total energy  :  -138.7759818 Eh     change       -0.2583835E-03 Eh
 * total energy  :  -138.7762347 Eh     change       -0.2529160E-03 Eh
 * total energy  :  -138.7763957 Eh     change       -0.1609981E-03 Eh
 * total energy  :  -138.7768378 Eh     change       -0.1089097E-04 Eh
 * total energy  :  -138.7768550 Eh     change       -0.1717931E-04 Eh
 * total energy  :  -138.7768642 Eh     change       -0.9213312E-05 Eh
 * total energy  :  -138.7768745 Eh     change       -0.1028506E-04 Eh
 * total energy  :  -138.7768859 Eh     change       -0.1142416E-04 Eh
 * total energy  :  -138.7768949 Eh     change       -0.8983968E-05 Eh
 * total energy  :  -138.7769020 Eh     change       -0.7068154E-05 Eh
 * total energy  :  -138.7769075 Eh     change       -0.5482817E-05 Eh
 * total energy  :  -138.7769122 Eh     change       -0.4759126E-05 Eh
   *** GEOMETRY OPTIMIZATION CONVERGED AFTER 30 ITERATIONS ***

 final structure:
================
66
 xtb: 6.3.3 (4ae9cef)
C         2.29615376465995   -2.14804168609981    0.30112562351638
C         1.91998347538504   -2.91369618738631   -0.93732636603013
F         2.62143282814477   -4.04145423017599   -1.08741338019585
F         0.62450662505893   -3.27073551874137   -0.96900777675621
F         2.12447596983283   -2.20901780664599   -2.07237424948105
C         3.29382447446045   -2.66981396943401    1.11638293173014
C         3.65473620772238   -2.02244743175091    2.28257310056380
C         3.00714509482025   -0.85540946942306    2.64728996146346
C         2.01662105706083   -0.33495706115394    1.83662249985799
C         1.65169978311671   -0.95901135527816    0.64792378011748
C         0.55232190438058   -0.33306544159549   -0.17827045787867
C        -0.83515853893538   -0.52820873729159    0.48242987201125
C        -1.68189670906963   -1.54620901925148   -0.23855604889043
C        -2.00760080832680   -2.78852936982272    0.30481958479418
C        -1.50078065183373   -3.20143972492537    1.65864064823828
F        -1.95367924558208   -2.44367501286877    2.66736228823049
F        -0.14702262554883   -3.14039947224672    1.74387463034452
F        -1.81708635480623   -4.46384342132997    1.97240101642907
C        -2.80039326792638   -3.67831739851411   -0.40885151135287
C        -3.26770529928049   -3.34198251454958   -1.66523663488819
C        -2.93946688832799   -2.11596872211655   -2.21649156361193
C        -2.15177822972036   -1.22941724862076   -1.50779994934041
N        -1.45323418123681    0.78917869200589    0.39210668908366
C        -2.72595641351636    0.95358226274682    0.86187315259110
C        -3.23447787467714    2.35864250070177    0.87323757890946
C        -3.33013122125114    3.12236913603933   -0.28223296941153
F        -2.89442917025397    2.60205955613844   -1.45621312516912
C        -3.85436494526252    4.40027566392873   -0.27822762480277
C        -4.29840569611563    4.93330672192924    0.91973479359740
C        -4.22739158974084    4.18584934017518    2.08414807299333
C        -3.71131367077508    2.90284436305011    2.06008778524839
O        -3.40563738311427    0.01318414795952    1.20203343809949
C        -0.46369798754479    1.81854947929332    0.27064484089024
C        -0.19544622945114    2.52243081035507    1.64283668575318
O         0.66293826068395    3.51525104937128    1.59237985654929
O        -0.76208363741106    2.17186432104732    2.63813039679438
N         0.70442534568164    1.11489268254002   -0.23288054852633
C         1.74423777806600    1.78297543083829   -0.76006066833772
C         2.77336588058114    0.97371075072341   -1.47401651266607
C         4.00292883494482    0.68473183390820   -0.89676325115710
C         4.96626296462780    0.00423111713825   -1.61981050047149
C         4.72477042216858   -0.36678655895244   -2.93266858074066
C         3.51210081120258   -0.07286181171160   -3.53000352947005
C         2.54996285439292    0.58485693291570   -2.78899364367171
F         1.35239851325372    0.85178050692624   -3.34692359583011
O         1.83767600144974    3.00284447360839   -0.66577079048592
H         3.78071467464260   -3.59085228193155    0.83771666559304
H         4.42820318124219   -2.43742709138963    2.90908140968081
H         3.26453661245606   -0.35115867276642    3.56576900357725
H         1.50914682550344    0.56840871813537    2.13967905738878
H         0.53409499086972   -0.73142677975157   -1.19764013281269
H        -0.71404359949342   -0.78839145889789    1.54012699301105
H        -3.05054142555539   -4.63432085242833    0.02353940284164
H        -3.88622606548401   -4.03774326128982   -2.21031912472136
H        -3.29764221360321   -1.84647993686787   -3.19821996730447
H        -1.90867056781456   -0.26805902876227   -1.93575853697233
H        -3.91093129521733    4.95472436191382   -1.20161072869245
H        -4.70520735653966    5.93259987548347    0.93880714042947
H        -4.58013574803005    4.60250208210519    3.01452936352265
H        -3.65249327710904    2.30876540005378    2.95782912393880
H        -0.75094042865580    2.59587715046975   -0.45463584481197
H         1.11726704425605    3.58512378149809    0.70046836888558
H         4.19443525550808    0.99193617756011    0.12000477944571
H         5.91308086634732   -0.22798348129155   -1.15795178427402
H         5.48330694450225   -0.88717726613263   -3.49604077026022
H         3.29721335018673   -0.35304303916851   -4.54813536711082

          :  Hamiltonian                  GFN2-xTB          :
         :: total energy            -138.776912224197 Eh    ::
         :: gradient norm              0.000358959603 Eh/a0 ::
         :: HOMO-LUMO gap              3.306011979592 eV    ::
         :: SCC energy              -140.374754488033 Eh    ::
         :: -> dispersion             -0.100297412304 Eh    ::
         :: repulsion energy           1.593707233440 Eh    ::

    * Orbital Energies and Occupations

         #    Occupation            Energy/Eh            Energy/eV
      -------------------------------------------------------------
         1        2.0000           -0.8937631             -24.3205
       ...           ...                  ...                  ...
       107        2.0000           -0.4507406             -12.2653
       108        2.0000           -0.4501789             -12.2500
       109        2.0000           -0.4496435             -12.2354
       110        2.0000           -0.4442560             -12.0888
       111        2.0000           -0.4398481             -11.9689
       112        2.0000           -0.4357162             -11.8564
       113        2.0000           -0.4353009             -11.8451
       114        2.0000           -0.4335037             -11.7962
       115        2.0000           -0.4316884             -11.7468
       116        2.0000           -0.4284130             -11.6577
       117        2.0000           -0.4231166             -11.5136
       118        2.0000           -0.4094215             -11.1409
       119        2.0000           -0.4040278             -10.9942 (HOMO)
       120                         -0.2825341              -7.6881 (LUMO)
       121                         -0.2737686              -7.4496
       122                         -0.2728863              -7.4256
       123                         -0.2632362              -7.1630
       124                         -0.2604089              -7.0861
       125                         -0.2595458              -7.0626
       126                         -0.2588067              -7.0425
       127                         -0.2547214              -6.9313
       128                         -0.2509128              -6.8277
       129                         -0.2459279              -6.6920
       130                         -0.2165325              -5.8921
       ...                                ...                  ...
       204                          0.6531424              17.7729
      -------------------------------------------------------------
                  HL-Gap            0.1214937 Eh            3.3060 eV

     #   Z          covCN         q      C6AA      Î±(0)
     1   6 C        2.976    -0.030    28.741     8.794
     2   6 C        3.336     0.485    17.297     6.587
     3   9 F        0.792    -0.196    11.197     3.953
     4   9 F        0.791    -0.210    11.339     3.978
     5   9 F        0.791    -0.220    11.442     3.996
     6   6 C        2.923    -0.020    28.509     8.756
     7   6 C        2.920    -0.020    28.512     8.756
     8   6 C        2.918    -0.016    28.410     8.741
     9   6 C        2.927    -0.026    28.652     8.778
    10   6 C        2.971     0.007    27.849     8.656
    11   6 C        3.814     0.039    19.902     6.350
    12   6 C        3.830     0.052    19.683     6.313
    13   6 C        2.973     0.024    27.471     8.597
    14   6 C        2.976    -0.020    28.508     8.758
    15   6 C        3.335     0.486    17.293     6.587
    16   9 F        0.791    -0.198    11.211     3.955
    17   9 F        0.791    -0.230    11.546     4.014
    18   9 F        0.792    -0.200    11.236     3.960
    19   6 C        2.923    -0.018    28.465     8.749
    20   6 C        2.920    -0.021    28.519     8.757
    21   6 C        2.919    -0.016    28.410     8.741
    22   6 C        2.927    -0.025    28.621     8.773
    23   7 N        2.764    -0.111    23.432     7.189
    24   6 C        2.765     0.288    22.126     7.703
    25   6 C        2.972    -0.032    28.795     8.802
    26   6 C        2.789     0.162    24.488     8.106
    27   9 F        0.786    -0.234    11.593     4.022
    28   6 C        2.916    -0.048    29.180     8.858
    29   6 C        2.924    -0.025    28.636     8.776
    30   6 C        2.918    -0.029    28.722     8.788
    31   6 C        2.928    -0.015    28.389     8.738
    32   8 O        0.859    -0.402    21.725     6.249
    33   6 C        3.757     0.077    19.349     6.272
    34   6 C        2.683     0.346    21.125     7.522
    35   8 O        1.654    -0.370    20.277     6.079
    36   8 O        0.856    -0.369    21.064     6.153
    37   7 N        2.764    -0.101    23.223     7.157
    38   6 C        2.765     0.280    22.265     7.728
    39   6 C        2.974    -0.031    28.766     8.798
    40   6 C        2.925    -0.026    28.646     8.777
    41   6 C        2.919    -0.031    28.781     8.797
    42   6 C        2.925    -0.022    28.544     8.762
    43   6 C        2.917    -0.040    28.984     8.828
    44   6 C        2.790     0.176    24.209     8.060
    45   9 F        0.787    -0.218    11.425     3.993
    46   8 O        0.860    -0.443    22.557     6.368
    47   1 H        0.926     0.072     2.061     2.245
    48   1 H        0.926     0.064     2.153     2.295
    49   1 H        0.926     0.065     2.137     2.286
    50   1 H        0.926     0.056     2.246     2.344
    51   1 H        0.924     0.070     2.087     2.259
    52   1 H        0.924     0.069     2.097     2.265
    53   1 H        0.926     0.069     2.094     2.263
    54   1 H        0.926     0.058     2.217     2.328
    55   1 H        0.926     0.059     2.209     2.324
    56   1 H        0.926     0.062     2.179     2.309
    57   1 H        0.926     0.065     2.137     2.286
    58   1 H        0.926     0.055     2.264     2.353
    59   1 H        0.926     0.058     2.228     2.334
    60   1 H        0.926     0.075     2.029     2.228
    61   1 H        0.923     0.080     1.975     2.198
    62   1 H        0.799     0.369     0.548     1.163
    63   1 H        0.926     0.050     2.323     2.384
    64   1 H        0.926     0.056     2.250     2.346
    65   1 H        0.926     0.061     2.186     2.312
    66   1 H        0.926     0.077     2.013     2.219

Wiberg/Mayer (AO) data.
largest (>0.10) Wiberg bond orders for each atom

     #   Z sym  total        # sym  WBO       # sym  WBO       # sym  WBO
 ---------------------------------------------------------------------------
     1   6 C    3.970 --     6 C    1.413    10 C    1.385     2 C    0.951
                             8 C    0.105
     2   6 C    3.821 --     3 F    0.960     1 C    0.951     4 F    0.943
                             5 F    0.930
     3   9 F    1.083 --     2 C    0.960
     4   9 F    1.071 --     2 C    0.943
     5   9 F    1.059 --     2 C    0.930
     6   6 C    3.986 --     7 C    1.443     1 C    1.413    47 H    0.965
                             9 C    0.109
     7   6 C    3.987 --     6 C    1.443     8 C    1.434    48 H    0.968
                            10 C    0.108
     8   6 C    3.989 --     9 C    1.446     7 C    1.434    49 H    0.968
                             1 C    0.105
     9   6 C    3.989 --     8 C    1.446    10 C    1.411    50 H    0.964
                             6 C    0.109
    10   6 C    3.986 --     9 C    1.411     1 C    1.385    11 C    0.992
                             7 C    0.108
    11   6 C    3.965 --    10 C    0.992    37 N    0.961    51 H    0.952
                            12 C    0.950
    12   6 C    3.967 --    13 C    0.993    23 N    0.959    52 H    0.953
                            11 C    0.950
    13   6 C    3.986 --    22 C    1.411    14 C    1.386    12 C    0.993
                            20 C    0.108
    14   6 C    3.971 --    19 C    1.414    13 C    1.386    15 C    0.952
                            21 C    0.105
    15   6 C    3.821 --    18 F    0.956    16 F    0.953    14 C    0.952
                            17 F    0.922
    16   9 F    1.083 --    15 C    0.953
    17   9 F    1.048 --    15 C    0.922
    18   9 F    1.079 --    15 C    0.956
    19   6 C    3.987 --    20 C    1.442    14 C    1.414    53 H    0.965
                            22 C    0.109
    20   6 C    3.989 --    19 C    1.442    21 C    1.434    54 H    0.969
                            13 C    0.108
    21   6 C    3.990 --    22 C    1.447    20 C    1.434    55 H    0.969
                            14 C    0.105
    22   6 C    3.989 --    21 C    1.447    13 C    1.411    56 H    0.965
                            19 C    0.109
    23   7 N    3.440 --    24 C    1.178    33 C    1.002    12 C    0.959
                            32 O    0.183
    24   6 C    3.947 --    32 O    1.714    23 N    1.178    25 C    0.967
    25   6 C    3.986 --    31 C    1.400    26 C    1.366    24 C    0.967
                            29 C    0.108
    26   6 C    3.884 --    28 C    1.405    25 C    1.366    27 F    0.947
    27   9 F    1.079 --    26 C    0.947
    28   6 C    3.988 --    29 C    1.436    26 C    1.405    57 H    0.965
                            31 C    0.111
    29   6 C    3.990 --    30 C    1.437    28 C    1.436    58 H    0.969
                            25 C    0.108
    30   6 C    3.990 --    31 C    1.445    29 C    1.437    59 H    0.968
    31   6 C    3.985 --    30 C    1.445    25 C    1.400    60 H    0.965
                            28 C    0.111
    32   8 O    2.043 --    24 C    1.714    23 N    0.183
    33   6 C    3.956 --    23 N    1.002    37 N    0.966    61 H    0.936
                            34 C    0.883
    34   6 C    3.932 --    36 O    1.774    35 O    1.211    33 C    0.883
    35   8 O    2.237 --    34 C    1.211    62 H    0.756    36 O    0.185
    36   8 O    2.082 --    34 C    1.774    35 O    0.185
    37   7 N    3.505 --    38 C    1.272    33 C    0.966    11 C    0.961
                            46 O    0.188
    38   6 C    3.945 --    46 O    1.607    37 N    1.272    39 C    0.966
    39   6 C    3.985 --    40 C    1.404    44 C    1.362    38 C    0.966
                            42 C    0.109
    40   6 C    3.989 --    41 C    1.443    39 C    1.404    63 H    0.969
                            43 C    0.111
    41   6 C    3.990 --    40 C    1.443    42 C    1.436    64 H    0.968
    42   6 C    3.989 --    43 C    1.441    41 C    1.436    65 H    0.969
                            39 C    0.109
    43   6 C    3.987 --    42 C    1.441    44 C    1.399    66 H    0.963
                            40 C    0.111
    44   6 C    3.890 --    43 C    1.399    39 C    1.362    45 F    0.964
    45   9 F    1.098 --    44 C    0.964
    46   8 O    2.035 --    38 C    1.607    37 N    0.188
    47   1 H    0.994 --     6 C    0.965
    48   1 H    0.995 --     7 C    0.968
    49   1 H    0.995 --     8 C    0.968
    50   1 H    0.996 --     9 C    0.964
    51   1 H    0.995 --    11 C    0.952
    52   1 H    0.995 --    12 C    0.953
    53   1 H    0.995 --    19 C    0.965
    54   1 H    0.996 --    20 C    0.969
    55   1 H    0.996 --    21 C    0.969
    56   1 H    0.996 --    22 C    0.965
    57   1 H    0.995 --    28 C    0.965
    58   1 H    0.997 --    29 C    0.969
    59   1 H    0.996 --    30 C    0.968
    60   1 H    0.994 --    31 C    0.965
    61   1 H    0.993 --    33 C    0.936
    62   1 H    0.864 --    35 O    0.756
    63   1 H    0.998 --    40 C    0.969
    64   1 H    0.996 --    41 C    0.968
    65   1 H    0.996 --    42 C    0.969
    66   1 H    0.993 --    43 C    0.963
 ---------------------------------------------------------------------------

molecular dipole:
                 x           y           z       tot (Debye)
 q only:        1.616       0.327      -0.765
   full:        1.777       0.401      -1.049       5.342

           -------------------------------------------------
          | TOTAL ENERGY             -138.776912224197 Eh   |
          | GRADIENT NORM               0.000358959603 Eh/Î± |
          | HOMO-LUMO GAP               3.306011979592 eV   |
           -------------------------------------------------

 * finished run on 2022/03/16 at 21:25:40.644
