   * xtb version 6.3.3 (4ae9cef) compiled by 'conda@95abc7406d43' on 2020-10-14
          program call               : xtb acid_147.xyz --opt --chrg 0 --uhf 0 --gfn 2
          number of atoms            :                    72
          number of electrons        :                   218
          charge                     :                     0
          spin                       :                   0.0

   ID    Z sym.   atoms
    1    6 C      1-22, 24-27, 29, 30, 32, 33, 37-40, 42, 43
    2    7 N      23, 36
    3    8 O      28, 31, 34, 35, 41, 44
    4    1 H      45-72

          :  Hamiltonian                  GFN2-xTB          :
 * total energy  :  -121.6300808 Eh     change       -0.5192035E-08 Eh
 * total energy  :  -121.6466584 Eh     change       -0.1657761E-01 Eh
 * total energy  :  -121.6520431 Eh     change       -0.5384694E-02 Eh
 * total energy  :  -121.6539399 Eh     change       -0.1896860E-02 Eh
 * total energy  :  -121.6553330 Eh     change       -0.1393082E-02 Eh
 * total energy  :  -121.6560851 Eh     change       -0.7520863E-03 Eh
 * total energy  :  -121.6567499 Eh     change       -0.6648166E-03 Eh
 * total energy  :  -121.6574992 Eh     change       -0.7492604E-03 Eh
 * total energy  :  -121.6583484 Eh     change       -0.8492174E-03 Eh
 * total energy  :  -121.6591490 Eh     change       -0.8005973E-03 Eh
 * total energy  :  -121.6643092 Eh     change       -0.4182307E-04 Eh
 * total energy  :  -121.6643530 Eh     change       -0.4379226E-04 Eh
 * total energy  :  -121.6643958 Eh     change       -0.4278373E-04 Eh
 * total energy  :  -121.6644206 Eh     change       -0.2474112E-04 Eh
 * total energy  :  -121.6644042 Eh     change        0.1632889E-04 Eh
 * total energy  :  -121.6644411 Eh     change       -0.3685828E-04 Eh
 * total energy  :  -121.6644512 Eh     change       -0.1014312E-04 Eh
 * total energy  :  -121.6644673 Eh     change       -0.1603549E-04 Eh
 * total energy  :  -121.6644722 Eh     change       -0.4964557E-05 Eh
   *** GEOMETRY OPTIMIZATION CONVERGED AFTER 56 ITERATIONS ***

 final structure:
================
72
 xtb: 6.3.3 (4ae9cef)
C        -5.09253022056940    1.74125053007556   -2.27958306064570
C        -5.37840181494672    0.44354520528196   -2.59509125173026
C        -4.42164192889247   -0.55418409352782   -2.36553895477565
C        -3.20905703226633   -0.24590664127525   -1.81222894766826
C        -2.88818317069635    1.08172363049075   -1.45494935516246
C        -3.85048987142660    2.09388877713797   -1.71249865119946
C        -3.54834261033222    3.43687789550701   -1.40517926575183
C        -2.33783749869378    3.76664634057737   -0.87187252863887
C        -1.39093100920680    2.77069455697613   -0.59186697550343
C        -1.65322209948368    1.45101842551734   -0.84765337715365
C        -0.64417871114517    0.37103131420077   -0.56996139917535
C         0.69770618606245    0.75037153369465    0.09628854603602
C         1.72281178796100    1.30876101220111   -0.85476060223947
C         2.10307615445004    0.53165360435213   -1.92164783219246
C         3.00941064676296    0.99093027724648   -2.88327274958593
C         3.53044631808546    2.24767502087074   -2.77895416241329
C         3.19778892029331    3.07056256820547   -1.68444396374034
C         2.30125329007353    2.59650643293158   -0.68571257579720
C         2.06180197580898    3.43405194391964    0.42652692138701
C         2.63211890010302    4.67265071578566    0.52246902466148
C         3.47831919677486    5.15114426229718   -0.48705965648798
C         3.76057944250573    4.35874794529352   -1.56185750434932
N         1.11784033899017   -0.54095028293404    0.65986740983347
C         2.30116167807669   -0.67588054235484    1.31149964961615
C         2.55185061579171   -1.99401795831031    1.93891067364669
C         3.66132352292709   -2.76622251377476    1.71257902252293
C         4.79765575751046   -2.56707018309551    0.78012113999212
O         3.61584678307707   -3.87360881663710    2.47666839480356
C         2.49747808212496   -3.80777099649963    3.22075317723511
C         1.79812221313555   -2.67900344579664    2.93772829368052
O         3.10912380415905    0.22996156104051    1.35379741178366
C         0.04641686194570   -1.51046282219803    0.53767305274381
C         0.25925642485576   -2.48669172748093   -0.63149211921579
O         1.52420855173414   -2.87673156305281   -0.73506368894673
O        -0.62128662084578   -2.88502373571696   -1.34292773301920
N        -1.11939062840823   -0.69916094514697    0.31571785200991
C        -2.05922658421167   -0.49725138053992    1.29941641937061
C        -2.26134217115814   -1.69137854635837    2.15929339393857
C        -2.84768587391001   -2.87576619710425    1.79393843337388
C        -3.41834972691133   -3.32115548298155    0.49717341381744
O        -2.90726915729529   -3.69985401012837    2.85762312438145
C        -2.36594045791220   -3.05544276753375    3.90770593409071
C        -1.95823163896968   -1.81138629423638    3.54564221397211
O        -2.70017152679165    0.51836663755292    1.42027302661052
H        -5.81626318150830    2.52352540252345   -2.45999836962037
H        -6.33340551663808    0.17993554668264   -3.02588466654274
H        -4.64649356695923   -1.57704507569712   -2.63205419734870
H        -2.49523729898782   -1.03787204888797   -1.65167050422660
H        -4.29128364824285    4.19551833657621   -1.60567161494723
H        -2.09548608659915    4.79508053024722   -0.64846243388595
H        -0.44673177083895    3.07419498571013   -0.17140378622600
H        -0.41631807400913   -0.11564399391901   -1.53046464982962
H         0.51045185962194    1.42766160765245    0.93378595738139
H         1.70264877074547   -0.46661216851026   -2.02911251113111
H         3.28022069123571    0.34739853449179   -3.70742961394446
H         4.21605314534592    2.62541798994221   -3.52378612624116
H         1.44548532807732    3.09211054631317    1.24298085783996
H         2.43683630710703    5.28967358008480    1.38736004722357
H         3.91336819072769    6.13570406982519   -0.39880789786755
H         4.43005602907153    4.70203801116314   -2.33787466174162
H         4.67899575784271   -3.18375491449594   -0.11089095714546
H         4.83603590984903   -1.52188296680665    0.48704121451243
H         5.73058702933221   -2.84545569794065    1.26553714425393
H         2.31518397974781   -4.60877450920353    3.90872764763927
H         0.89233981701693   -2.35689794984617    3.41232076852462
H        -0.05583889600599   -2.12855151243389    1.43701643034025
H         1.63408542718539   -3.51577784374779   -1.45913962651018
H        -2.64092042062249   -3.40321435747502   -0.26097362394141
H        -3.89688430166823   -4.28827366172185    0.62666764848698
H        -4.15270861700648   -2.59821883367397    0.14542813131932
H        -2.33202120231367   -3.57755133021561    4.84263114185470
H        -1.50464776065381   -1.06586952112055    4.16608007767155

          :  Hamiltonian                  GFN2-xTB          :
         :: total energy            -121.664472239999 Eh    ::
         :: gradient norm              0.000804455964 Eh/a0 ::
         :: HOMO-LUMO gap              2.649898286992 eV    ::
         :: SCC energy              -123.489237250700 Eh    ::
         :: -> dispersion             -0.105604518592 Eh    ::
         :: repulsion energy           1.821221212826 Eh    ::

    * Orbital Energies and Occupations

         #    Occupation            Energy/Eh            Energy/eV
      -------------------------------------------------------------
         1        2.0000           -0.7845500             -21.3487
       ...           ...                  ...                  ...
        97        2.0000           -0.4195207             -11.4157
        98        2.0000           -0.4177893             -11.3686
        99        2.0000           -0.4104851             -11.1699
       100        2.0000           -0.4069359             -11.0733
       101        2.0000           -0.4020303             -10.9398
       102        2.0000           -0.4004488             -10.8968
       103        2.0000           -0.3997297             -10.8772
       104        2.0000           -0.3987156             -10.8496
       105        2.0000           -0.3944683             -10.7340
       106        2.0000           -0.3936409             -10.7115
       107        2.0000           -0.3928945             -10.6912
       108        2.0000           -0.3769356             -10.2569
       109        2.0000           -0.3709897             -10.0951 (HOMO)
       110                         -0.2736078              -7.4452 (LUMO)
       111                         -0.2620729              -7.1314
       112                         -0.2549777              -6.9383
       113                         -0.2371915              -6.4543
       114                         -0.2321214              -6.3163
       115                         -0.2291161              -6.2346
       116                         -0.2224318              -6.0527
       117                         -0.2178270              -5.9274
       118                         -0.2140838              -5.8255
       119                         -0.1925068              -5.2384
       120                         -0.1857392              -5.0542
       ...                                ...                  ...
       204                          0.6985943              19.0097
      -------------------------------------------------------------
                  HL-Gap            0.0973820 Eh            2.6499 eV

     #   Z          covCN         q      C6AA      Î±(0)
     1   6 C        2.921    -0.033    28.833     8.806
     2   6 C        2.915    -0.030    28.757     8.794
     3   6 C        2.917    -0.031    28.768     8.795
     4   6 C        2.917    -0.039    28.966     8.826
     5   6 C        2.987     0.016    27.647     8.625
     6   6 C        2.988     0.018    27.589     8.616
     7   6 C        2.919    -0.034    28.844     8.807
     8   6 C        2.915    -0.028    28.693     8.784
     9   6 C        2.920    -0.035    28.881     8.813
    10   6 C        2.965     0.011    27.770     8.644
    11   6 C        3.867     0.046    19.763     6.322
    12   6 C        3.828     0.044    19.813     6.333
    13   6 C        2.965     0.008    27.845     8.655
    14   6 C        2.925    -0.034    28.845     8.808
    15   6 C        2.913    -0.031    28.775     8.796
    16   6 C        2.921    -0.035    28.871     8.811
    17   6 C        2.989     0.017    27.631     8.623
    18   6 C        2.983     0.019    27.585     8.615
    19   6 C        2.917    -0.028    28.694     8.784
    20   6 C        2.917    -0.027    28.686     8.783
    21   6 C        2.915    -0.028    28.706     8.786
    22   6 C        2.922    -0.033    28.829     8.805
    23   7 N        2.769    -0.127    23.756     7.239
    24   6 C        2.756     0.277    22.322     7.737
    25   6 C        3.074    -0.063    29.482     8.902
    26   6 C        3.101     0.127    25.092     8.209
    27   6 C        3.753    -0.120    22.865     6.819
    28   8 O        1.731    -0.179    17.002     5.567
    29   6 C        3.057     0.063    26.532     8.447
    30   6 C        3.006    -0.071    29.742     8.946
    31   8 O        0.860    -0.429    22.258     6.325
    32   6 C        3.803     0.088    19.124     6.226
    33   6 C        2.688     0.352    21.030     7.505
    34   8 O        1.659    -0.359    20.073     6.048
    35   8 O        0.856    -0.390    21.485     6.215
    36   7 N        2.770    -0.131    23.828     7.250
    37   6 C        2.757     0.283    22.202     7.716
    38   6 C        3.078    -0.069    29.628     8.924
    39   6 C        3.091     0.117    25.334     8.250
    40   6 C        3.753    -0.126    22.971     6.834
    41   8 O        1.731    -0.180    17.013     5.569
    42   6 C        3.053     0.061    26.576     8.455
    43   6 C        3.004    -0.062    29.532     8.914
    44   8 O        0.858    -0.394    21.563     6.226
    45   1 H        0.926     0.033     2.545     2.495
    46   1 H        0.926     0.030     2.586     2.515
    47   1 H        0.926     0.030     2.590     2.517
    48   1 H        0.926     0.041     2.440     2.443
    49   1 H        0.926     0.036     2.509     2.477
    50   1 H        0.926     0.035     2.521     2.483
    51   1 H        0.926     0.037     2.491     2.468
    52   1 H        0.923     0.051     2.308     2.376
    53   1 H        0.924     0.057     2.231     2.336
    54   1 H        0.926     0.019     2.753     2.595
    55   1 H        0.926     0.031     2.568     2.506
    56   1 H        0.926     0.036     2.506     2.475
    57   1 H        0.926     0.036     2.507     2.476
    58   1 H        0.926     0.034     2.524     2.484
    59   1 H        0.926     0.033     2.543     2.494
    60   1 H        0.926     0.034     2.534     2.489
    61   1 H        0.925     0.060     2.199     2.319
    62   1 H        0.925     0.076     2.019     2.222
    63   1 H        0.925     0.069     2.094     2.263
    64   1 H        0.926     0.053     2.282     2.362
    65   1 H        0.926     0.035     2.523     2.484
    66   1 H        0.924     0.080     1.979     2.200
    67   1 H        0.804     0.345     0.600     1.217
    68   1 H        0.925     0.077     2.006     2.215
    69   1 H        0.925     0.068     2.110     2.272
    70   1 H        0.925     0.068     2.110     2.271
    71   1 H        0.926     0.054     2.275     2.359
    72   1 H        0.926     0.044     2.393     2.419

Wiberg/Mayer (AO) data.
largest (>0.10) Wiberg bond orders for each atom

     #   Z sym  total        # sym  WBO       # sym  WBO       # sym  WBO
 ---------------------------------------------------------------------------
     1   6 C    3.991 --     2 C    1.554     6 C    1.282    45 H    0.968
                             4 C    0.118
     2   6 C    3.992 --     1 C    1.554     3 C    1.326    46 H    0.971
     3   6 C    3.992 --     4 C    1.550     2 C    1.326    47 H    0.971
     4   6 C    3.991 --     3 C    1.550     5 C    1.289    48 H    0.963
                             1 C    0.118
     5   6 C    3.989 --     4 C    1.289     6 C    1.258    10 C    1.240
     6   6 C    3.990 --     1 C    1.282     7 C    1.272     5 C    1.258
     7   6 C    3.991 --     8 C    1.562     6 C    1.272    49 H    0.968
                            10 C    0.114
     8   6 C    3.992 --     7 C    1.562     9 C    1.317    50 H    0.970
     9   6 C    3.989 --    10 C    1.534     8 C    1.317    51 H    0.962
    10   6 C    3.983 --     9 C    1.534     5 C    1.240    11 C    0.997
                             7 C    0.114
    11   6 C    3.960 --    10 C    0.997    12 C    0.958    36 N    0.948
                            52 H    0.940
    12   6 C    3.961 --    13 C    0.995    11 C    0.958    53 H    0.947
                            23 N    0.944
    13   6 C    3.985 --    14 C    1.519    18 C    1.253    12 C    0.995
                            16 C    0.115
    14   6 C    3.991 --    13 C    1.519    15 C    1.330    54 H    0.965
    15   6 C    3.992 --    16 C    1.550    14 C    1.330    55 H    0.971
    16   6 C    3.990 --    15 C    1.550    17 C    1.281    56 H    0.968
                            13 C    0.115
    17   6 C    3.990 --    16 C    1.281    22 C    1.279    18 C    1.252
    18   6 C    3.988 --    19 C    1.282    13 C    1.253    17 C    1.252
    19   6 C    3.992 --    20 C    1.554    18 C    1.282    57 H    0.958
                            22 C    0.118
    20   6 C    3.990 --    19 C    1.554    21 C    1.322    58 H    0.971
    21   6 C    3.992 --    22 C    1.558    20 C    1.322    59 H    0.971
    22   6 C    3.991 --    21 C    1.558    17 C    1.279    60 H    0.968
                            19 C    0.118
    23   7 N    3.455 --    24 C    1.209    32 C    0.975    12 C    0.944
                            31 O    0.190
    24   6 C    3.949 --    31 O    1.677    23 N    1.209    25 C    0.984
    25   6 C    3.973 --    26 C    1.530    30 C    1.245    24 C    0.984
    26   6 C    3.916 --    25 C    1.530    28 O    1.131    27 C    1.033
                            29 C    0.133
    27   6 C    3.991 --    26 C    1.033    62 H    0.977    63 H    0.972
                            61 H    0.964
    28   8 O    2.447 --    26 C    1.131    29 C    1.127
    29   6 C    3.906 --    30 C    1.621    28 O    1.127    64 H    0.966
                            26 C    0.133
    30   6 C    3.981 --    29 C    1.621    25 C    1.245    65 H    0.969
    31   8 O    2.012 --    24 C    1.677    23 N    0.190
    32   6 C    3.975 --    36 N    0.998    23 N    0.975    33 C    0.921
                            66 H    0.918
    33   6 C    3.918 --    35 O    1.768    34 O    1.161    32 C    0.921
    34   8 O    2.225 --    33 C    1.161    67 H    0.855    35 O    0.182
    35   8 O    2.056 --    33 C    1.768    34 O    0.182
    36   7 N    3.415 --    37 C    1.160    32 C    0.998    11 C    0.948
                            44 O    0.177
    37   6 C    3.943 --    44 O    1.735    36 N    1.160    38 C    0.972
    38   6 C    3.972 --    39 C    1.526    43 C    1.251    37 C    0.972
    39   6 C    3.915 --    38 C    1.526    41 O    1.131    40 C    1.032
                            42 C    0.138
    40   6 C    3.990 --    39 C    1.032    69 H    0.982    70 H    0.967
                            68 H    0.959
    41   8 O    2.447 --    39 C    1.131    42 C    1.126
    42   6 C    3.904 --    43 C    1.618    41 O    1.126    71 H    0.966
                            39 C    0.138
    43   6 C    3.982 --    42 C    1.618    38 C    1.251    72 H    0.974
    44   8 O    2.056 --    37 C    1.735    36 N    0.177
    45   1 H    0.998 --     1 C    0.968
    46   1 H    0.998 --     2 C    0.971
    47   1 H    0.999 --     3 C    0.971
    48   1 H    0.998 --     4 C    0.963
    49   1 H    0.998 --     7 C    0.968
    50   1 H    0.998 --     8 C    0.970
    51   1 H    0.998 --     9 C    0.962
    52   1 H    0.997 --    11 C    0.940
    53   1 H    0.996 --    12 C    0.947
    54   1 H    0.999 --    14 C    0.965
    55   1 H    0.998 --    15 C    0.971
    56   1 H    0.998 --    16 C    0.968
    57   1 H    0.998 --    19 C    0.958
    58   1 H    0.998 --    20 C    0.971
    59   1 H    0.998 --    21 C    0.971
    60   1 H    0.998 --    22 C    0.968
    61   1 H    0.996 --    27 C    0.964
    62   1 H    0.994 --    27 C    0.977
    63   1 H    0.995 --    27 C    0.972
    64   1 H    0.996 --    29 C    0.966
    65   1 H    0.999 --    30 C    0.969
    66   1 H    0.993 --    32 C    0.918
    67   1 H    0.880 --    34 O    0.855
    68   1 H    0.994 --    40 C    0.959
    69   1 H    0.995 --    40 C    0.982
    70   1 H    0.995 --    40 C    0.967
    71   1 H    0.996 --    42 C    0.966
    72   1 H    0.998 --    43 C    0.974
 ---------------------------------------------------------------------------

molecular dipole:
                 x           y           z       tot (Debye)
 q only:        0.507      -0.959      -0.927
   full:        0.617      -1.494      -0.673       4.450

           -------------------------------------------------
          | TOTAL ENERGY             -121.664472239999 Eh   |
          | GRADIENT NORM               0.000804455964 Eh/Î± |
          | HOMO-LUMO GAP               2.649898286992 eV   |
           -------------------------------------------------

 * finished run on 2022/03/16 at 21:51:34.072
