   * xtb version 6.3.3 (4ae9cef) compiled by 'conda@95abc7406d43' on 2020-10-14
          program call               : xtb acid_252.xyz --opt --chrg 0 --uhf 0 --gfn 2
          number of atoms            :                    84
          number of electrons        :                   238
          charge                     :                     0
          spin                       :                   0.0

   ID    Z sym.   atoms
    1    6 C      1-22, 24-32, 34, 35, 39-47
    2    7 N      23, 38
    3    8 O      33, 36, 37, 48
    4    1 H      49-84

          :  Hamiltonian                  GFN2-xTB          :
 * total energy  :  -130.4418477 Eh     change       -0.5395918E-08 Eh
 * total energy  :  -130.4601867 Eh     change       -0.1833893E-01 Eh
 * total energy  :  -130.4657408 Eh     change       -0.5554109E-02 Eh
 * total energy  :  -130.4673246 Eh     change       -0.1583820E-02 Eh
 * total energy  :  -130.4684765 Eh     change       -0.1151936E-02 Eh
 * total energy  :  -130.4690454 Eh     change       -0.5689132E-03 Eh
 * total energy  :  -130.4693829 Eh     change       -0.3374914E-03 Eh
 * total energy  :  -130.4696627 Eh     change       -0.2797876E-03 Eh
 * total energy  :  -130.4699643 Eh     change       -0.3016170E-03 Eh
 * total energy  :  -130.4703049 Eh     change       -0.3406143E-03 Eh
 * total energy  :  -130.4768537 Eh     change       -0.7502485E-05 Eh
 * total energy  :  -130.4768614 Eh     change       -0.7680386E-05 Eh
 * total energy  :  -130.4768687 Eh     change       -0.7248995E-05 Eh
 * total energy  :  -130.4768754 Eh     change       -0.6762019E-05 Eh
 * total energy  :  -130.4768822 Eh     change       -0.6805415E-05 Eh
 * total energy  :  -130.4768891 Eh     change       -0.6890524E-05 Eh
 * total energy  :  -130.4768956 Eh     change       -0.6499869E-05 Eh
 * total energy  :  -130.4769011 Eh     change       -0.5464190E-05 Eh
 * total energy  :  -130.4769056 Eh     change       -0.4517226E-05 Eh
   *** GEOMETRY OPTIMIZATION CONVERGED AFTER 83 ITERATIONS ***

 final structure:
================
84
 xtb: 6.3.3 (4ae9cef)
C        -2.00603505884518   -4.65170654076497   -1.23824569936385
C        -2.55844511394326   -3.84282271729638   -2.18958279923136
C        -2.46161593596024   -2.45097808302326   -2.05731541874715
C        -1.82655012857993   -1.89241795955820   -0.98225750222023
C        -1.25366437085582   -2.69718219691518    0.02820791221657
C        -1.34306249332087   -4.10971915441072   -0.11700794202851
C        -0.76634668805236   -4.95266650338864    0.85477148840020
C        -0.12557958497639   -4.42488230314651    1.93751381245587
C        -0.04663616942432   -3.03632813053038    2.09450856719410
C        -0.59807571751465   -2.17682403417623    1.17787267141718
C        -0.40554790421804   -0.70103699310385    1.39957459911320
C         0.58176507903526   -0.08301570158870    0.38589516286308
C         1.99646712161423   -0.08825644043401    0.90329509043665
C         2.40087456821902    0.90927384694551    1.75458108020918
C         3.71088412491044    0.96458866637475    2.24379199438593
C         4.61381020771763    0.00709527234876    1.88163956985844
C         4.23267904248571   -1.05632042346539    1.03877645465031
C         2.90145065829410   -1.12154936308821    0.54193597783614
C         2.55355260836087   -2.22135333236162   -0.27340517856878
C         3.46819673018322   -3.18732201326366   -0.58756390034353
C         4.78301561959462   -3.11155410958252   -0.10705886087298
C         5.15348172957265   -2.06720819528008    0.69069820824514
N         0.04597996472468    1.25083406848698    0.17904211830503
C         0.51690078256673    2.18818832740217   -0.67526387797242
C         1.85811669549945    1.89271955905372   -1.25959969637382
C         2.94662602028943    2.65294867785613   -0.85036021044205
C         4.20694415384866    2.38010955960380   -1.34368154385812
C         4.40565694973042    1.35888983138384   -2.26476254181267
C         5.78785926063183    1.03561099393064   -2.75225186800972
C         6.49159962622863    0.09952638252222   -1.76821473602931
C         3.30663530246130    0.62779088908934   -2.69498451083792
C         2.04161982423208    0.89104836213701   -2.20278438332758
O        -0.11310733069581    3.20755334447195   -0.88928225855727
C        -1.23342779072853    1.44818429419364    0.83669948209816
C        -2.21463717622431    2.15378116036427   -0.12095377712136
O        -2.33033400346479    1.48870137822860   -1.27207057755427
O        -2.82638323386915    3.14520497120791    0.14843421050052
N        -1.60577651241587    0.11380119911349    1.24456131924635
C        -2.80470772233566   -0.29438155090539    1.74892020988351
C        -3.91706616531511    0.67722975446159    1.53560977187440
C        -4.13751980701497    1.71899950128288    2.42545478214100
C        -5.16278641507307    2.61551521079058    2.19515578295869
C        -5.98737408351765    2.48472397287252    1.08552660097525
C        -7.04051314394189    3.51173291629273    0.78914873359695
C        -6.48959964485578    4.54972212419378   -0.19126318310033
C        -5.78142327296123    1.41684703621148    0.22120080044141
C        -4.75891262415186    0.51424432433421    0.44262825277930
O        -2.94285474975376   -1.37376673197728    2.28102050637287
H        -2.07027123278798   -5.72704218293284   -1.32630972363566
H        -3.06888086260665   -4.26521385744581   -3.04274535072103
H        -2.89524058497738   -1.81352297270896   -2.81457278884176
H        -1.77982287266272   -0.81828340430956   -0.91405042720210
H        -0.84457468030021   -6.02250722707457    0.72476712221860
H         0.31878267592058   -5.06705959053728    2.68302440940248
H         0.45782656901763   -2.63753852918712    2.96286566814744
H        -0.01099798741443   -0.55332232538541    2.41709444914288
H         0.52538534637077   -0.63278190123874   -0.55748222173871
H         1.70188859877780    1.68234953516327    2.03992608726507
H         3.99670859210311    1.77129272675399    2.90192217323622
H         5.63099129824803    0.04197615651286    2.24423804059988
H         1.54691681656368   -2.32580411634757   -0.64549715294400
H         3.17649936220888   -4.02132848332906   -1.20858165118477
H         5.49292883180074   -3.88230024258616   -0.36840603421103
H         6.16137533878017   -1.99916859979788    1.07449209508418
H         2.79850898068841    3.45230988611259   -0.13998622158152
H         5.04931638576275    2.97023042349728   -1.01288904691196
H         5.73507247689678    0.55639624350419   -3.73139775778079
H         6.36828125204897    1.95512185278611   -2.85182467577508
H         5.93780662725825   -0.83147526321063   -1.67060850755100
H         6.55159782986016    0.56176493876435   -0.78554007931569
H         7.49874798998384   -0.12546663592735   -2.11122703272659
H         3.44126947149091   -0.15752900879787   -3.42478776947832
H         1.19515812372810    0.32643994835274   -2.56644400901036
H        -1.11713075297029    2.12102877277343    1.70810213195591
H        -2.90824967883307    1.97821432887783   -1.87814606048839
H        -3.50039045182291    1.83143780678167    3.29061766984520
H        -5.31923252037128    3.43493550566893    2.88108253657012
H        -7.34179961871904    4.01064455489131    1.71187343247470
H        -7.92093556931930    3.03267083174028    0.35503282378490
H        -5.57636971858886    4.98857490670086    0.20272311765626
H        -7.21795644363995    5.33934783018903   -0.36123662300379
H        -6.25442355146955    4.08225501650731   -1.14452553500296
H        -6.42681915106295    1.29398531512577   -0.63734870872904
H        -4.59809611815048   -0.31420938681232   -0.23271007364609

          :  Hamiltonian                  GFN2-xTB          :
         :: total energy            -130.476905608708 Eh    ::
         :: gradient norm              0.000182136978 Eh/a0 ::
         :: HOMO-LUMO gap              2.738632432807 eV    ::
         :: SCC energy              -132.610803933723 Eh    ::
         :: -> dispersion             -0.127864145120 Eh    ::
         :: repulsion energy           2.128550615675 Eh    ::

    * Orbital Energies and Occupations

         #    Occupation            Energy/Eh            Energy/eV
      -------------------------------------------------------------
         1        2.0000           -0.7549554             -20.5434
       ...           ...                  ...                  ...
       107        2.0000           -0.4184744             -11.3873
       108        2.0000           -0.4171703             -11.3518
       109        2.0000           -0.4116932             -11.2027
       110        2.0000           -0.4082149             -11.1081
       111        2.0000           -0.4046805             -11.0119
       112        2.0000           -0.4033413             -10.9755
       113        2.0000           -0.4016334             -10.9290
       114        2.0000           -0.3990543             -10.8588
       115        2.0000           -0.3971185             -10.8061
       116        2.0000           -0.3960635             -10.7774
       117        2.0000           -0.3906687             -10.6306
       118        2.0000           -0.3894208             -10.5967
       119        2.0000           -0.3754743             -10.2172 (HOMO)
       120                         -0.2748314              -7.4785 (LUMO)
       121                         -0.2620405              -7.1305
       122                         -0.2488761              -6.7723
       123                         -0.2429216              -6.6102
       124                         -0.2405808              -6.5465
       125                         -0.2322424              -6.3196
       126                         -0.2297536              -6.2519
       127                         -0.2225244              -6.0552
       128                         -0.2219530              -6.0396
       129                         -0.2136568              -5.8139
       130                         -0.2122259              -5.7750
       ...                                ...                  ...
       228                          0.6925879              18.8463
      -------------------------------------------------------------
                  HL-Gap            0.1006429 Eh            2.7386 eV

     #   Z          covCN         q      C6AA      Î±(0)
     1   6 C        2.921    -0.033    28.830     8.805
     2   6 C        2.914    -0.030    28.745     8.792
     3   6 C        2.917    -0.030    28.752     8.793
     4   6 C        2.916    -0.040    28.997     8.830
     5   6 C        2.983     0.015    27.669     8.628
     6   6 C        2.988     0.016    27.635     8.623
     7   6 C        2.921    -0.034    28.850     8.808
     8   6 C        2.914    -0.027    28.674     8.781
     9   6 C        2.925    -0.029    28.734     8.791
    10   6 C        2.966     0.009    27.805     8.649
    11   6 C        3.835     0.054    19.647     6.306
    12   6 C        3.818     0.037    19.931     6.354
    13   6 C        2.968    -0.008    28.226     8.714
    14   6 C        2.923    -0.035    28.859     8.810
    15   6 C        2.914    -0.030    28.744     8.792
    16   6 C        2.921    -0.036    28.889     8.814
    17   6 C        2.989     0.016    27.648     8.625
    18   6 C        2.984     0.007    27.848     8.656
    19   6 C        2.917    -0.035    28.883     8.813
    20   6 C        2.917    -0.028    28.696     8.784
    21   6 C        2.915    -0.029    28.730     8.789
    22   6 C        2.921    -0.033    28.825     8.804
    23   7 N        2.769    -0.114    23.478     7.197
    24   6 C        2.766     0.273    22.383     7.748
    25   6 C        2.978    -0.016    28.414     8.744
    26   6 C        2.923    -0.024    28.592     8.769
    27   6 C        2.925    -0.035    28.868     8.811
    28   6 C        2.971     0.018    27.608     8.619
    29   6 C        3.807    -0.059    21.638     6.622
    30   6 C        3.754    -0.098    22.434     6.754
    31   6 C        2.925    -0.036    28.891     8.815
    32   6 C        2.921    -0.029    28.725     8.789
    33   8 O        0.860    -0.429    22.263     6.326
    34   6 C        3.763     0.101    18.955     6.206
    35   6 C        2.687     0.369    20.749     7.455
    36   8 O        1.659    -0.367    20.213     6.069
    37   8 O        0.856    -0.380    21.294     6.187
    38   7 N        2.764    -0.123    23.673     7.226
    39   6 C        2.761     0.276    22.333     7.739
    40   6 C        2.980    -0.026    28.647     8.779
    41   6 C        2.921    -0.024    28.609     8.771
    42   6 C        2.926    -0.028    28.693     8.784
    43   6 C        2.972     0.023    27.488     8.600
    44   6 C        3.807    -0.058    21.614     6.618
    45   6 C        3.755    -0.100    22.460     6.758
    46   6 C        2.925    -0.035    28.877     8.812
    47   6 C        2.922    -0.028    28.700     8.785
    48   8 O        0.859    -0.415    21.974     6.285
    49   1 H        0.926     0.033     2.543     2.494
    50   1 H        0.926     0.031     2.576     2.510
    51   1 H        0.926     0.029     2.605     2.524
    52   1 H        0.926     0.042     2.421     2.433
    53   1 H        0.926     0.036     2.497     2.471
    54   1 H        0.926     0.036     2.500     2.472
    55   1 H        0.926     0.030     2.583     2.513
    56   1 H        0.923     0.042     2.419     2.432
    57   1 H        0.924     0.058     2.222     2.331
    58   1 H        0.926     0.033     2.544     2.494
    59   1 H        0.926     0.039     2.467     2.456
    60   1 H        0.926     0.038     2.475     2.460
    61   1 H        0.926     0.029     2.596     2.519
    62   1 H        0.926     0.035     2.513     2.479
    63   1 H        0.926     0.036     2.505     2.475
    64   1 H        0.926     0.037     2.483     2.464
    65   1 H        0.926     0.042     2.429     2.437
    66   1 H        0.926     0.040     2.453     2.449
    67   1 H        0.924     0.040     2.455     2.450
    68   1 H        0.924     0.042     2.428     2.437
    69   1 H        0.925     0.036     2.506     2.475
    70   1 H        0.925     0.036     2.503     2.474
    71   1 H        0.925     0.040     2.453     2.449
    72   1 H        0.926     0.037     2.484     2.465
    73   1 H        0.926     0.032     2.554     2.499
    74   1 H        0.922     0.053     2.278     2.361
    75   1 H        0.804     0.342     0.607     1.224
    76   1 H        0.926     0.032     2.564     2.504
    77   1 H        0.926     0.042     2.416     2.431
    78   1 H        0.924     0.039     2.467     2.456
    79   1 H        0.924     0.038     2.480     2.463
    80   1 H        0.925     0.049     2.338     2.391
    81   1 H        0.925     0.037     2.494     2.469
    82   1 H        0.925     0.035     2.514     2.479
    83   1 H        0.926     0.036     2.506     2.475
    84   1 H        0.926     0.035     2.516     2.480

Wiberg/Mayer (AO) data.
largest (>0.10) Wiberg bond orders for each atom

     #   Z sym  total        # sym  WBO       # sym  WBO       # sym  WBO
 ---------------------------------------------------------------------------
     1   6 C    3.991 --     2 C    1.555     6 C    1.281    49 H    0.968
                             4 C    0.118
     2   6 C    3.992 --     1 C    1.555     3 C    1.324    50 H    0.971
     3   6 C    3.992 --     4 C    1.552     2 C    1.324    51 H    0.971
     4   6 C    3.991 --     3 C    1.552     5 C    1.285    52 H    0.961
                             1 C    0.118
     5   6 C    3.989 --     4 C    1.285     6 C    1.253    10 C    1.249
     6   6 C    3.990 --     1 C    1.281     7 C    1.278     5 C    1.253
     7   6 C    3.990 --     8 C    1.553     6 C    1.278    53 H    0.968
                            10 C    0.114
     8   6 C    3.992 --     7 C    1.553     9 C    1.327    54 H    0.970
     9   6 C    3.989 --    10 C    1.521     8 C    1.327    55 H    0.968
    10   6 C    3.983 --     9 C    1.521     5 C    1.249    11 C    0.996
                             7 C    0.114
    11   6 C    3.964 --    10 C    0.996    38 N    0.954    56 H    0.953
                            12 C    0.947
    12   6 C    3.963 --    13 C    0.992    23 N    0.961    11 C    0.947
                            57 H    0.943
    13   6 C    3.984 --    14 C    1.520    18 C    1.253    12 C    0.992
                            16 C    0.114
    14   6 C    3.990 --    13 C    1.520    15 C    1.329    58 H    0.968
    15   6 C    3.992 --    16 C    1.551    14 C    1.329    59 H    0.970
    16   6 C    3.989 --    15 C    1.551    17 C    1.280    60 H    0.968
                            13 C    0.114
    17   6 C    3.990 --    16 C    1.280    22 C    1.278    18 C    1.252
    18   6 C    3.988 --    19 C    1.283    13 C    1.253    17 C    1.252
    19   6 C    3.992 --    20 C    1.555    18 C    1.283    61 H    0.961
                            22 C    0.119
    20   6 C    3.991 --    19 C    1.555    21 C    1.322    62 H    0.971
    21   6 C    3.992 --    22 C    1.556    20 C    1.322    63 H    0.971
    22   6 C    3.991 --    21 C    1.556    17 C    1.278    64 H    0.968
                            19 C    0.119
    23   7 N    3.469 --    24 C    1.227    34 C    0.973    12 C    0.961
                            33 O    0.189
    24   6 C    3.942 --    33 O    1.664    23 N    1.227    25 C    0.964
    25   6 C    3.987 --    32 C    1.405    26 C    1.398    24 C    0.964
                            28 C    0.107
    26   6 C    3.990 --    27 C    1.453    25 C    1.398    65 H    0.969
                            31 C    0.108
    27   6 C    3.991 --    26 C    1.453    28 C    1.406    66 H    0.968
                            32 C    0.108
    28   6 C    3.988 --    31 C    1.411    27 C    1.406    29 C    1.014
                            25 C    0.107
    29   6 C    3.997 --    28 C    1.014    30 C    1.000    67 H    0.975
                            68 H    0.972
    30   6 C    3.996 --    29 C    1.000    70 H    0.988    69 H    0.986
                            71 H    0.986
    31   6 C    3.991 --    32 C    1.446    28 C    1.411    72 H    0.968
                            26 C    0.108
    32   6 C    3.991 --    31 C    1.446    25 C    1.405    73 H    0.968
                            27 C    0.108
    33   8 O    2.037 --    24 C    1.664    23 N    0.189
    34   6 C    3.966 --    38 N    0.984    23 N    0.973    74 H    0.943
                            35 C    0.915
    35   6 C    3.926 --    37 O    1.780    36 O    1.136    34 C    0.915
    36   8 O    2.204 --    35 C    1.136    75 H    0.858    37 O    0.172
    37   8 O    2.069 --    35 C    1.780    36 O    0.172
    38   7 N    3.445 --    39 C    1.193    34 C    0.984    11 C    0.954
                            48 O    0.188
    39   6 C    3.941 --    48 O    1.706    38 N    1.193    40 C    0.959
    40   6 C    3.985 --    41 C    1.404    47 C    1.397    39 C    0.959
                            43 C    0.106
    41   6 C    3.991 --    42 C    1.449    40 C    1.404    76 H    0.970
                            46 C    0.108
    42   6 C    3.991 --    41 C    1.449    43 C    1.408    77 H    0.968
                            47 C    0.108
    43   6 C    3.987 --    42 C    1.408    46 C    1.408    44 C    1.014
                            40 C    0.106
    44   6 C    3.997 --    43 C    1.014    45 C    0.999    78 H    0.975
                            79 H    0.973
    45   6 C    3.995 --    44 C    0.999    82 H    0.988    80 H    0.987
                            81 H    0.986
    46   6 C    3.991 --    47 C    1.450    43 C    1.408    83 H    0.968
                            41 C    0.108
    47   6 C    3.991 --    46 C    1.450    40 C    1.397    84 H    0.970
                            42 C    0.108
    48   8 O    2.034 --    39 C    1.706    38 N    0.188
    49   1 H    0.998 --     1 C    0.968
    50   1 H    0.998 --     2 C    0.971
    51   1 H    0.999 --     3 C    0.971
    52   1 H    0.998 --     4 C    0.961
    53   1 H    0.998 --     7 C    0.968
    54   1 H    0.998 --     8 C    0.970
    55   1 H    0.999 --     9 C    0.968
    56   1 H    0.998 --    11 C    0.953
    57   1 H    0.996 --    12 C    0.943
    58   1 H    0.998 --    14 C    0.968
    59   1 H    0.997 --    15 C    0.970
    60   1 H    0.998 --    16 C    0.968
    61   1 H    0.999 --    19 C    0.961
    62   1 H    0.998 --    20 C    0.971
    63   1 H    0.998 --    21 C    0.971
    64   1 H    0.998 --    22 C    0.968
    65   1 H    0.998 --    26 C    0.969
    66   1 H    0.998 --    27 C    0.968
    67   1 H    0.998 --    29 C    0.975
    68   1 H    0.998 --    29 C    0.972
    69   1 H    0.999 --    30 C    0.986
    70   1 H    0.999 --    30 C    0.988
    71   1 H    0.997 --    30 C    0.986
    72   1 H    0.998 --    31 C    0.968
    73   1 H    0.999 --    32 C    0.968
    74   1 H    0.997 --    34 C    0.943
    75   1 H    0.883 --    36 O    0.858
    76   1 H    0.999 --    41 C    0.970
    77   1 H    0.997 --    42 C    0.968
    78   1 H    0.998 --    44 C    0.975
    79   1 H    0.998 --    44 C    0.973
    80   1 H    0.998 --    45 C    0.987
    81   1 H    0.998 --    45 C    0.986
    82   1 H    0.999 --    45 C    0.988
    83   1 H    0.998 --    46 C    0.968
    84   1 H    0.998 --    47 C    0.970
 ---------------------------------------------------------------------------

molecular dipole:
                 x           y           z       tot (Debye)
 q only:        1.693      -0.869      -0.747
   full:        1.679      -0.739      -0.758       5.045

           -------------------------------------------------
          | TOTAL ENERGY             -130.476905608708 Eh   |
          | GRADIENT NORM               0.000182136978 Eh/Î± |
          | HOMO-LUMO GAP               2.738632432807 eV   |
           -------------------------------------------------

 * finished run on 2022/03/16 at 23:01:14.348
