   * xtb version 6.3.3 (4ae9cef) compiled by 'conda@95abc7406d43' on 2020-10-14
          program call               : xtb acid_447.xyz --opt --chrg 0 --uhf 0 --gfn 2
          number of atoms            :                    60
          number of electrons        :                   218
          charge                     :                     0
          spin                       :                   0.0

   ID    Z sym.   atoms
    1    6 C      1, 2, 6-15, 19-22, 24-26, 28, 29, 31, 32, 36-38, 40, 41
    2    9 F      3-5, 16-18
    3    7 N      23, 35
    4   16 S      27, 39
    5    8 O      30, 33, 34, 42
    6    1 H      43-60

          :  Hamiltonian                  GFN2-xTB          :
 * total energy  :  -126.1574193 Eh     change       -0.2502503E-08 Eh
 * total energy  :  -126.1725765 Eh     change       -0.1515721E-01 Eh
 * total energy  :  -126.1772070 Eh     change       -0.4630535E-02 Eh
 * total energy  :  -126.1783753 Eh     change       -0.1168219E-02 Eh
 * total energy  :  -126.1790304 Eh     change       -0.6551718E-03 Eh
 * total energy  :  -126.1794305 Eh     change       -0.4000778E-03 Eh
 * total energy  :  -126.1798481 Eh     change       -0.4175485E-03 Eh
 * total energy  :  -126.1803100 Eh     change       -0.4619777E-03 Eh
 * total energy  :  -126.1807915 Eh     change       -0.4814257E-03 Eh
 * total energy  :  -126.1811787 Eh     change       -0.3872540E-03 Eh
 * total energy  :  -126.1902554 Eh     change       -0.7130504E-05 Eh
 * total energy  :  -126.1902652 Eh     change       -0.9888562E-05 Eh
 * total energy  :  -126.1902770 Eh     change       -0.1175898E-04 Eh
 * total energy  :  -126.1902843 Eh     change       -0.7263603E-05 Eh
 * total energy  :  -126.1902896 Eh     change       -0.5324411E-05 Eh
 * total energy  :  -126.1902958 Eh     change       -0.6215477E-05 Eh
 * total energy  :  -126.1903036 Eh     change       -0.7775458E-05 Eh
 * total energy  :  -126.1903096 Eh     change       -0.6066875E-05 Eh
 * total energy  :  -126.1903130 Eh     change       -0.3394498E-05 Eh
   *** GEOMETRY OPTIMIZATION CONVERGED AFTER 80 ITERATIONS ***

 final structure:
================
60
 xtb: 6.3.3 (4ae9cef)
C        -2.13168213454322    1.44655829724467   -2.02134681633052
C        -2.14169459506384    2.35716524832957   -0.82413637145286
F        -2.99961661398846    1.95236934610082    0.13616981975203
F        -2.52065116835902    3.60687693940605   -1.13079511574212
F        -0.95352689452405    2.49669583831737   -0.20636244718328
C        -2.86628822696600    1.87582495301036   -3.12368997603860
C        -2.94621706517442    1.10374458604331   -4.26505408793291
C        -2.29524003093627   -0.11562650302853   -4.30850702906075
C        -1.57853649510572   -0.54971451910427   -3.21144936237937
C        -1.48012064992935    0.21054488910326   -2.05047357082166
C        -0.64253742051919   -0.36742973329693   -0.93605892943526
C         0.76255451045644    0.25587492049315   -0.82844740069544
C         1.81919622233145   -0.64006517608733   -1.42802618840340
C         2.51065392909678   -0.31835679283284   -2.59671010584155
C         2.23197135314374    0.95869200913122   -3.34079019706640
F         0.93366304361349    1.05654488092398   -3.72134690078878
F         2.48636589362254    2.06990314415536   -2.63555120112295
F         2.94049641687531    1.06783963911640   -4.47250930020258
C         3.47482165241531   -1.18249987136038   -3.10308142311309
C         3.75520946774966   -2.37063042653462   -2.45558128111539
C         3.06602006632661   -2.70307150653903   -1.30209604627356
C         2.10505651207514   -1.84725874132129   -0.79866920446012
N         0.95623952064273    0.42019798986252    0.60721574876348
C         2.17841947311962    0.74960000445750    1.10654601854006
C         2.21763092520667    0.93644981704913    2.58268868270269
C         1.62401343023606    1.96114926531320    3.25539370301113
S         1.93318764487786    1.89162930224639    4.94045136374946
C         2.87447931233156    0.46770821568132    4.74343293260037
C         2.95200331015502    0.08112133341280    3.44588148392253
O         3.15452804579054    0.85969712517342    0.39947508226753
C        -0.24081949752047    0.17866428977286    1.37731501206988
C         0.00570590166404   -0.97036433058331    2.37973855267916
O        -0.18384666709926   -0.59246399310005    3.63741656338669
O         0.34478303956924   -2.07405298676622    2.05296144988743
N        -1.22143650684055   -0.20754681539970    0.39039137758135
C        -2.37788387353290   -0.89056112207477    0.65930041309469
C        -2.79556429804574   -0.88655981833972    2.08243338702886
C        -3.04711257168334   -2.04226995715572    2.76106302363604
S        -3.51563046369942   -1.75064299654683    4.38334205085431
C        -3.41350276642134   -0.05048426579502    4.14139463642397
C        -3.01813068188117    0.26525196305367    2.88518256613315
O        -2.99268811697560   -1.45003954704176   -0.22139651525909
H        -3.37462905809359    2.82668282197925   -3.08445522576075
H        -3.51629133946491    1.45462950340974   -5.11069854940801
H        -2.34957783554536   -0.73180905769643   -5.19235006695080
H        -1.08068086788432   -1.50657478602292   -3.24763916095665
H        -0.55066724267953   -1.44537858397742   -1.13477213284741
H         0.78727081098205    1.24704087097067   -1.29002110794444
H         4.00781124318758   -0.91814514634288   -4.00299606057872
H         4.51090022886457   -3.03100516435596   -2.85128761456519
H         3.27721740909087   -3.62945176351603   -0.79008249863984
H         1.57656225873076   -2.11070927287487    0.10575364542941
H         1.04402147347501    2.76799182246608    2.85367148978992
H         3.32397789041328    0.00822611462767    5.60091503822765
H         3.49867795318991   -0.77592634081558    3.09680646975677
H        -0.55891013245339    1.06925205849781    1.93793965036355
H        -0.02007655796324   -1.32285257541059    4.25786237798556
H        -2.96059142783992   -3.04561023307597    2.39473687757480
H        -3.65490859451157    0.61200734350067    4.94789678599426
H        -2.92438114399583    1.27116549413603    2.52300668517578

          :  Hamiltonian                  GFN2-xTB          :
         :: total energy            -126.190313045321 Eh    ::
         :: gradient norm              0.000329782193 Eh/a0 ::
         :: HOMO-LUMO gap              3.310669350942 eV    ::
         :: SCC energy              -127.603412210919 Eh    ::
         :: -> dispersion             -0.095233568664 Eh    ::
         :: repulsion energy           1.409807730275 Eh    ::

    * Orbital Energies and Occupations

         #    Occupation            Energy/Eh            Energy/eV
      -------------------------------------------------------------
         1        2.0000           -0.8844465             -24.0670
       ...           ...                  ...                  ...
        97        2.0000           -0.4511511             -12.2764
        98        2.0000           -0.4407961             -11.9947
        99        2.0000           -0.4392963             -11.9539
       100        2.0000           -0.4368673             -11.8878
       101        2.0000           -0.4339801             -11.8092
       102        2.0000           -0.4252403             -11.5714
       103        2.0000           -0.4170807             -11.3493
       104        2.0000           -0.4158627             -11.3162
       105        2.0000           -0.4153963             -11.3035
       106        2.0000           -0.4143778             -11.2758
       107        2.0000           -0.4116671             -11.2020
       108        2.0000           -0.4094954             -11.1429
       109        2.0000           -0.4061381             -11.0516 (HOMO)
       110                         -0.2844733              -7.7409 (LUMO)
       111                         -0.2690539              -7.3213
       112                         -0.2678655              -7.2890
       113                         -0.2640992              -7.1865
       114                         -0.2630737              -7.1586
       115                         -0.2569429              -6.9918
       116                         -0.2524180              -6.8686
       117                         -0.2412188              -6.5639
       118                         -0.2358776              -6.4186
       119                         -0.2157202              -5.8700
       120                         -0.2135790              -5.8118
       ...                                ...                  ...
       196                          0.6875664              18.7096
      -------------------------------------------------------------
                  HL-Gap            0.1216649 Eh            3.3107 eV

     #   Z          covCN         q      C6AA      Î±(0)
     1   6 C        2.974    -0.026    28.651     8.780
     2   6 C        3.337     0.488    17.249     6.575
     3   9 F        0.791    -0.215    11.386     3.986
     4   9 F        0.793    -0.204    11.271     3.966
     5   9 F        0.792    -0.216    11.406     3.989
     6   6 C        2.927    -0.021    28.525     8.759
     7   6 C        2.920    -0.020    28.503     8.755
     8   6 C        2.918    -0.013    28.350     8.731
     9   6 C        2.931    -0.020    28.508     8.756
    10   6 C        2.967     0.023    27.492     8.600
    11   6 C        3.830     0.049    19.734     6.321
    12   6 C        3.818     0.048    19.763     6.327
    13   6 C        2.972     0.022    27.505     8.603
    14   6 C        2.975    -0.026    28.650     8.780
    15   6 C        3.335     0.485    17.307     6.590
    16   9 F        0.791    -0.227    11.514     4.008
    17   9 F        0.791    -0.199    11.229     3.958
    18   9 F        0.792    -0.201    11.248     3.962
    19   6 C        2.923    -0.021    28.539     8.761
    20   6 C        2.920    -0.023    28.576     8.766
    21   6 C        2.919    -0.017    28.445     8.746
    22   6 C        2.926    -0.029    28.722     8.789
    23   7 N        2.766    -0.111    23.429     7.189
    24   6 C        2.760     0.275    22.353     7.742
    25   6 C        3.176    -0.036    28.470     8.713
    26   6 C        2.942    -0.026    28.663     8.781
    27  16 S        2.311     0.022   140.153    19.925
    28   6 C        2.941    -0.027    28.674     8.782
    29   6 C        3.118    -0.041    28.846     8.797
    30   8 O        0.859    -0.406    21.798     6.260
    31   6 C        3.747     0.090    19.147     6.241
    32   6 C        2.689     0.351    21.039     7.507
    33   8 O        1.659    -0.362    20.127     6.056
    34   8 O        0.856    -0.388    21.438     6.208
    35   7 N        2.761    -0.122    23.647     7.222
    36   6 C        2.767     0.276    22.325     7.738
    37   6 C        3.174    -0.035    28.475     8.715
    38   6 C        2.943    -0.019    28.477     8.752
    39  16 S        2.307     0.013   140.538    19.953
    40   6 C        2.941    -0.022    28.553     8.764
    41   6 C        3.116    -0.046    28.966     8.816
    42   8 O        0.859    -0.410    21.876     6.271
    43   1 H        0.926     0.068     2.106     2.269
    44   1 H        0.926     0.060     2.197     2.318
    45   1 H        0.926     0.061     2.191     2.315
    46   1 H        0.926     0.054     2.265     2.354
    47   1 H        0.923     0.068     2.106     2.270
    48   1 H        0.924     0.072     2.062     2.246
    49   1 H        0.926     0.067     2.119     2.277
    50   1 H        0.926     0.056     2.241     2.341
    51   1 H        0.926     0.057     2.239     2.340
    52   1 H        0.926     0.069     2.093     2.262
    53   1 H        0.926     0.053     2.287     2.365
    54   1 H        0.926     0.054     2.268     2.355
    55   1 H        0.926     0.049     2.334     2.389
    56   1 H        0.923     0.078     2.005     2.214
    57   1 H        0.804     0.348     0.592     1.209
    58   1 H        0.926     0.060     2.196     2.317
    59   1 H        0.926     0.058     2.225     2.333
    60   1 H        0.926     0.055     2.255     2.348

Wiberg/Mayer (AO) data.
largest (>0.10) Wiberg bond orders for each atom

     #   Z sym  total        # sym  WBO       # sym  WBO       # sym  WBO
 ---------------------------------------------------------------------------
     1   6 C    3.968 --     6 C    1.408    10 C    1.388     2 C    0.953
                             8 C    0.105
     2   6 C    3.819 --     1 C    0.953     4 F    0.953     5 F    0.938
                             3 F    0.935
     3   9 F    1.065 --     2 C    0.935
     4   9 F    1.075 --     2 C    0.953
     5   9 F    1.064 --     2 C    0.938
     6   6 C    3.987 --     7 C    1.447     1 C    1.408    43 H    0.966
                             9 C    0.109
     7   6 C    3.988 --     6 C    1.447     8 C    1.431    44 H    0.968
                            10 C    0.108
     8   6 C    3.989 --     9 C    1.450     7 C    1.431    45 H    0.968
                             1 C    0.105
     9   6 C    3.988 --     8 C    1.450    10 C    1.407    46 H    0.966
                             6 C    0.109
    10   6 C    3.986 --     9 C    1.407     1 C    1.388    11 C    0.993
                             7 C    0.108
    11   6 C    3.966 --    10 C    0.993    35 N    0.960    12 C    0.953
                            47 H    0.948
    12   6 C    3.965 --    13 C    0.991    23 N    0.957    11 C    0.953
                            48 H    0.952
    13   6 C    3.986 --    22 C    1.408    14 C    1.387    12 C    0.991
                            20 C    0.108
    14   6 C    3.969 --    19 C    1.412    13 C    1.387    15 C    0.951
                            21 C    0.105
    15   6 C    3.821 --    18 F    0.955    17 F    0.952    14 C    0.951
                            16 F    0.925
    16   9 F    1.051 --    15 C    0.925
    17   9 F    1.083 --    15 C    0.952
    18   9 F    1.077 --    15 C    0.955
    19   6 C    3.987 --    20 C    1.444    14 C    1.412    49 H    0.966
                            22 C    0.110
    20   6 C    3.989 --    19 C    1.444    21 C    1.432    50 H    0.969
                            13 C    0.108
    21   6 C    3.990 --    22 C    1.449    20 C    1.432    51 H    0.969
                            14 C    0.105
    22   6 C    3.987 --    21 C    1.449    13 C    1.408    52 H    0.959
                            19 C    0.110
    23   7 N    3.459 --    24 C    1.197    31 C    0.984    12 C    0.957
                            30 O    0.191
    24   6 C    3.946 --    30 O    1.702    23 N    1.197    25 C    0.960
    25   6 C    3.982 --    26 C    1.584    29 C    1.238    24 C    0.960
    26   6 C    3.952 --    25 C    1.584    27 S    1.210    53 H    0.970
                            28 C    0.114
    27  16 S    2.662 --    26 C    1.210    28 C    1.200
    28   6 C    3.951 --    29 C    1.635    27 S    1.200    54 H    0.970
                            26 C    0.114
    29   6 C    3.986 --    28 C    1.635    25 C    1.238    55 H    0.964
    30   8 O    2.044 --    24 C    1.702    23 N    0.191
    31   6 C    3.968 --    35 N    0.985    23 N    0.984    56 H    0.942
                            32 C    0.908
    32   6 C    3.919 --    34 O    1.770    33 O    1.161    31 C    0.908
    33   8 O    2.224 --    32 C    1.161    57 H    0.852    34 O    0.181
    34   8 O    2.062 --    32 C    1.770    33 O    0.181
    35   7 N    3.432 --    36 C    1.174    31 C    0.985    11 C    0.960
                            42 O    0.180
    36   6 C    3.945 --    42 O    1.707    35 N    1.174    37 C    0.976
    37   6 C    3.982 --    38 C    1.576    41 C    1.230    36 C    0.976
    38   6 C    3.953 --    37 C    1.576    39 S    1.215    58 H    0.969
                            40 C    0.110
    39  16 S    2.654 --    38 C    1.215    40 C    1.191
    40   6 C    3.951 --    41 C    1.647    39 S    1.191    59 H    0.969
                            38 C    0.110
    41   6 C    3.986 --    40 C    1.647    37 C    1.230    60 H    0.961
    42   8 O    2.033 --    36 C    1.707    35 N    0.180
    43   1 H    0.995 --     6 C    0.966
    44   1 H    0.995 --     7 C    0.968
    45   1 H    0.995 --     8 C    0.968
    46   1 H    0.997 --     9 C    0.966
    47   1 H    0.995 --    11 C    0.948
    48   1 H    0.994 --    12 C    0.952
    49   1 H    0.995 --    19 C    0.966
    50   1 H    0.996 --    20 C    0.969
    51   1 H    0.996 --    21 C    0.969
    52   1 H    0.995 --    22 C    0.959
    53   1 H    0.997 --    26 C    0.970
    54   1 H    0.997 --    28 C    0.970
    55   1 H    0.998 --    29 C    0.964
    56   1 H    0.993 --    31 C    0.942
    57   1 H    0.878 --    33 O    0.852
    58   1 H    0.996 --    38 C    0.969
    59   1 H    0.996 --    40 C    0.969
    60   1 H    0.997 --    41 C    0.961
 ---------------------------------------------------------------------------

molecular dipole:
                 x           y           z       tot (Debye)
 q only:       -0.195      -1.492       1.068
   full:       -0.115      -1.388       1.022       4.390

           -------------------------------------------------
          | TOTAL ENERGY             -126.190313045321 Eh   |
          | GRADIENT NORM               0.000329782193 Eh/Î± |
          | HOMO-LUMO GAP               3.310669350942 eV   |
           -------------------------------------------------

 * finished run on 2022/03/17 at 01:20:42.543
