   * xtb version 6.3.3 (4ae9cef) compiled by 'conda@95abc7406d43' on 2020-10-14
          program call               : xtb acid_274.xyz --opt --chrg 0 --uhf 0 --gfn 2
          number of atoms            :                    72
          number of electrons        :                   218
          charge                     :                     0
          spin                       :                   0.0

   ID    Z sym.   atoms
    1    6 C      1-14, 16-25, 28, 29, 33-42
    2    7 N      15, 32
    3    8 O      26, 27, 30, 31, 43, 44
    4    1 H      45-72

          :  Hamiltonian                  GFN2-xTB          :
 * total energy  :  -121.6670019 Eh     change       -0.6271279E-08 Eh
 * total energy  :  -121.6805403 Eh     change       -0.1353841E-01 Eh
 * total energy  :  -121.6848639 Eh     change       -0.4323622E-02 Eh
 * total energy  :  -121.6860857 Eh     change       -0.1221824E-02 Eh
 * total energy  :  -121.6867345 Eh     change       -0.6487898E-03 Eh
 * total energy  :  -121.6870819 Eh     change       -0.3473522E-03 Eh
 * total energy  :  -121.6873984 Eh     change       -0.3165396E-03 Eh
 * total energy  :  -121.6876951 Eh     change       -0.2966891E-03 Eh
 * total energy  :  -121.6880007 Eh     change       -0.3055786E-03 Eh
 * total energy  :  -121.6882818 Eh     change       -0.2810699E-03 Eh
 * total energy  :  -121.6941332 Eh     change       -0.2034069E-04 Eh
 * total energy  :  -121.6941577 Eh     change       -0.2443398E-04 Eh
 * total energy  :  -121.6941829 Eh     change       -0.2521534E-04 Eh
 * total energy  :  -121.6942065 Eh     change       -0.2365688E-04 Eh
 * total energy  :  -121.6942212 Eh     change       -0.1460219E-04 Eh
 * total energy  :  -121.6942182 Eh     change        0.2969620E-05 Eh
 * total energy  :  -121.6942275 Eh     change       -0.9324963E-05 Eh
 * total energy  :  -121.6942334 Eh     change       -0.5925267E-05 Eh
 * total energy  :  -121.6942374 Eh     change       -0.3982490E-05 Eh
   *** GEOMETRY OPTIMIZATION CONVERGED AFTER 87 ITERATIONS ***

 final structure:
================
72
 xtb: 6.3.3 (4ae9cef)
C        -0.45560030783193   -3.94780096169204   -0.94163491736372
C        -0.31361905608869   -4.79614082543289   -2.02572207813263
C        -0.02771005648072   -4.28118337519760   -3.27819261004391
C         0.11306843609169   -2.91363422128828   -3.44450300580528
C        -0.02830345129419   -2.06510168751502   -2.36174228706849
C        -0.31215437219961   -2.57776772981529   -1.10146774940933
C        -0.45869197769850   -1.64642247003237    0.07641137481305
C         0.85062237984748   -0.87948322590978    0.38135402445125
C         1.20317478455760   -0.88783949120542    1.85225825882088
C         1.35811073587782    0.28222782153250    2.57901172636535
C         1.69131401580720    0.23279070815386    3.92156854608097
C         1.87820496550734   -0.98567415067269    4.54855351939240
C         1.74020210668136   -2.15784008220224    3.82407993586402
C         1.40722125985485   -2.10882762607338    2.48342145202275
N         0.59477153829598    0.44421197330797   -0.14557760416566
C         1.43449859274709    1.27012439224850   -0.83370456366710
C         2.87613561272570    1.02463296637379   -0.71221437492777
C         3.89654819320355    1.63025021042808   -1.40299755965925
C         3.81089815942268    2.62797685792246   -2.49784467383702
C         5.10496931632602    1.09659657294422   -0.85150663245786
C         6.46401104658036    1.29194884921055   -1.09812032156827
C         7.36883171681363    0.59138001962825   -0.33317617365206
C         6.95003160640263   -0.29307385904321    0.66526966192897
C         5.61250889353799   -0.50520671325793    0.92889492543453
C         4.70160016740630    0.20053577140588    0.15715473479657
O         3.35732979637337    0.15478714537168    0.23478782684240
O         0.99550740146375    2.20178666060312   -1.48922169677579
C        -0.82650753035871    0.70190178062358   -0.17388210101577
C        -1.27033096216924    1.45226998404378    1.09971668289611
O        -0.89826195569258    2.72560928364568    1.07064864107999
O        -1.86397203628092    0.94517308904791    2.00957872616415
N        -1.42982976672456   -0.59988806969329   -0.21662864069356
C        -2.75228664484330   -0.91680563907921   -0.13430655266673
C        -3.73036145486666    0.16617765364972   -0.28426048706264
C        -5.09495819304054    0.09111857899474   -0.16925355637964
C        -5.93861434790977   -1.10083869137119    0.09147367140786
C        -5.57474739608054    1.42753687075403   -0.35800885293885
C        -4.43035592807132    2.21688221052496   -0.57667464732537
C        -4.50287207166703    3.58297425396016   -0.80077974147216
C        -5.76157407559775    4.14943227974442   -0.80129964804739
C        -6.90917992313496    3.38177746724837   -0.58670693160671
C        -6.83472480943145    2.02479053375702   -0.36433343439972
O        -3.31719172576697    1.45306090702566   -0.53402719633743
O        -3.09499106708116   -2.07668927199697    0.02969638364576
H        -0.69501670997056   -4.34816268843411    0.03206684676709
H        -0.43239786322937   -5.86134249424814   -1.89314864104371
H         0.07970382725206   -4.94287674085817   -4.12499588380097
H         0.33060627702171   -2.50614940969023   -4.42090559687765
H         0.07625957895954   -0.99802294026403   -2.49837903430110
H        -0.80672850086826   -2.21248762314970    0.94782339001871
H         1.67253205406532   -1.34269317238469   -0.17516567097445
H         1.23508832921329    1.23941024991679    2.09460539220725
H         1.80779267546424    1.15104700708347    4.47813858481124
H         2.13650381023547   -1.02267733475566    5.59633494021506
H         1.89414698517759   -3.11278181901418    4.30457975693773
H         1.31024840889009   -3.02373921008293    1.91624525703690
H         2.77508190629663    2.89290019807291   -2.68231864321598
H         4.36798990121347    3.52329407365886   -2.22495148723818
H         4.25318620256160    2.22222955571565   -3.40739454333413
H         6.78940932900122    1.97528612634946   -1.86713720699988
H         8.42706624249831    0.72413965441636   -0.50177978852530
H         7.69310078975374   -0.82119017094891    1.24331596426267
H         5.27687554988932   -1.18224920157904    1.69800829714898
H        -1.05174140743831    1.33258310203824   -1.04590839107638
H        -1.18466619957728    3.19036862153301    1.87417896457014
H        -6.57113389213412   -1.30270654883108   -0.77246258544855
H        -5.31096290103689   -1.96460424194420    0.28350213670083
H        -6.58597437214464   -0.91690275678356    0.94746266441092
H        -3.61096063293528    4.16556879689799   -0.96748904903470
H        -5.86364905262329    5.21050445731539   -0.97196549388760
H        -7.87257080851545    3.86946412311714   -0.59726326862740
H        -7.72251114223899    1.43405363618066   -0.19976196421141

          :  Hamiltonian                  GFN2-xTB          :
         :: total energy            -121.694237416383 Eh    ::
         :: gradient norm              0.000570194806 Eh/a0 ::
         :: HOMO-LUMO gap              2.885309388889 eV    ::
         :: SCC energy              -123.520771514153 Eh    ::
         :: -> dispersion             -0.098839550778 Eh    ::
         :: repulsion energy           1.824382902545 Eh    ::

    * Orbital Energies and Occupations

         #    Occupation            Energy/Eh            Energy/eV
      -------------------------------------------------------------
         1        2.0000           -0.7607257             -20.7004
       ...           ...                  ...                  ...
        97        2.0000           -0.4234804             -11.5235
        98        2.0000           -0.4106794             -11.1752
        99        2.0000           -0.4098229             -11.1518
       100        2.0000           -0.4086403             -11.1197
       101        2.0000           -0.4067410             -11.0680
       102        2.0000           -0.4058525             -11.0438
       103        2.0000           -0.4027889             -10.9604
       104        2.0000           -0.4019323             -10.9371
       105        2.0000           -0.3984039             -10.8411
       106        2.0000           -0.3934129             -10.7053
       107        2.0000           -0.3899101             -10.6100
       108        2.0000           -0.3887368             -10.5781
       109        2.0000           -0.3815888             -10.3836 (HOMO)
       110                         -0.2755556              -7.4983 (LUMO)
       111                         -0.2670307              -7.2663
       112                         -0.2492709              -6.7830
       113                         -0.2321756              -6.3178
       114                         -0.2280042              -6.2043
       115                         -0.2268041              -6.1717
       116                         -0.2247243              -6.1151
       117                         -0.2238078              -6.0901
       118                         -0.2200090              -5.9868
       119                         -0.2135360              -5.8106
       120                         -0.2058655              -5.6019
       ...                                ...                  ...
       204                          0.7179646              19.5368
      -------------------------------------------------------------
                  HL-Gap            0.1060332 Eh            2.8853 eV

     #   Z          covCN         q      C6AA      Î±(0)
     1   6 C        2.924    -0.028    28.706     8.786
     2   6 C        2.920    -0.027    28.664     8.780
     3   6 C        2.920    -0.029    28.737     8.791
     4   6 C        2.919    -0.028    28.709     8.786
     5   6 C        2.924    -0.033    28.829     8.805
     6   6 C        2.974     0.007    27.851     8.657
     7   6 C        3.833     0.042    19.851     6.339
     8   6 C        3.824     0.038    19.920     6.351
     9   6 C        2.971     0.007    27.851     8.657
    10   6 C        2.923    -0.026    28.656     8.779
    11   6 C        2.920    -0.026    28.642     8.776
    12   6 C        2.920    -0.029    28.730     8.790
    13   6 C        2.920    -0.026    28.662     8.779
    14   6 C        2.926    -0.035    28.878     8.813
    15   7 N        2.764    -0.105    23.295     7.168
    16   6 C        2.760     0.262    22.590     7.783
    17   6 C        3.086     0.076    26.206     8.392
    18   6 C        3.025     0.001    27.974     8.676
    19   6 C        3.754    -0.114    22.745     6.800
    20   6 C        3.083    -0.022    28.454     8.745
    21   6 C        2.912    -0.032    28.800     8.800
    22   6 C        2.921    -0.037    28.927     8.820
    23   6 C        2.927    -0.031    28.767     8.796
    24   6 C        2.907    -0.051    29.275     8.872
    25   6 C        3.096     0.129    25.076     8.207
    26   8 O        1.719    -0.224    17.720     5.684
    27   8 O        0.860    -0.439    22.485     6.358
    28   6 C        3.772     0.092    19.093     6.227
    29   6 C        2.689     0.362    20.864     7.475
    30   8 O        1.659    -0.355    19.988     6.035
    31   8 O        0.856    -0.393    21.547     6.223
    32   7 N        2.763    -0.108    23.351     7.177
    33   6 C        2.762     0.266    22.509     7.770
    34   6 C        3.080     0.080    26.140     8.382
    35   6 C        3.025     0.004    27.918     8.667
    36   6 C        3.754    -0.115    22.750     6.801
    37   6 C        3.081    -0.020    28.415     8.739
    38   6 C        3.092     0.131    25.041     8.202
    39   6 C        2.907    -0.053    29.308     8.877
    40   6 C        2.927    -0.032    28.798     8.801
    41   6 C        2.920    -0.038    28.939     8.822
    42   6 C        2.912    -0.032    28.797     8.800
    43   8 O        1.718    -0.238    17.936     5.718
    44   8 O        0.860    -0.438    22.448     6.352
    45   1 H        0.926     0.041     2.429     2.437
    46   1 H        0.926     0.037     2.484     2.465
    47   1 H        0.926     0.035     2.522     2.483
    48   1 H        0.926     0.035     2.523     2.484
    49   1 H        0.926     0.031     2.571     2.507
    50   1 H        0.924     0.073     2.055     2.242
    51   1 H        0.924     0.066     2.125     2.279
    52   1 H        0.926     0.028     2.617     2.530
    53   1 H        0.926     0.035     2.521     2.483
    54   1 H        0.926     0.036     2.502     2.474
    55   1 H        0.926     0.037     2.487     2.466
    56   1 H        0.926     0.033     2.545     2.495
    57   1 H        0.925     0.081     1.973     2.197
    58   1 H        0.925     0.058     2.228     2.334
    59   1 H        0.925     0.055     2.257     2.349
    60   1 H        0.926     0.044     2.400     2.423
    61   1 H        0.926     0.040     2.446     2.446
    62   1 H        0.926     0.043     2.411     2.428
    63   1 H        0.926     0.047     2.358     2.402
    64   1 H        0.923     0.107     1.719     2.050
    65   1 H        0.804     0.339     0.613     1.230
    66   1 H        0.925     0.056     2.240     2.341
    67   1 H        0.925     0.083     1.953     2.185
    68   1 H        0.925     0.056     2.252     2.347
    69   1 H        0.926     0.050     2.324     2.384
    70   1 H        0.926     0.042     2.425     2.435
    71   1 H        0.926     0.039     2.464     2.455
    72   1 H        0.926     0.043     2.407     2.426

Wiberg/Mayer (AO) data.
largest (>0.10) Wiberg bond orders for each atom

     #   Z sym  total        # sym  WBO       # sym  WBO       # sym  WBO
 ---------------------------------------------------------------------------
     1   6 C    3.989 --     2 C    1.441     6 C    1.417    45 H    0.968
                             4 C    0.111
     2   6 C    3.992 --     3 C    1.442     1 C    1.441    46 H    0.971
                             5 C    0.112
     3   6 C    3.990 --     2 C    1.442     4 C    1.436    47 H    0.971
                             6 C    0.110
     4   6 C    3.992 --     5 C    1.448     3 C    1.436    48 H    0.971
                             1 C    0.111
     5   6 C    3.992 --     4 C    1.448     6 C    1.410    49 H    0.969
                             2 C    0.112
     6   6 C    3.985 --     1 C    1.417     5 C    1.410     7 C    0.987
                             3 C    0.110
     7   6 C    3.961 --     6 C    0.987    32 N    0.959    50 H    0.952
                             8 C    0.951
     8   6 C    3.964 --     9 C    0.984    15 N    0.974     7 C    0.951
                            51 H    0.946
     9   6 C    3.986 --    10 C    1.421    14 C    1.406     8 C    0.984
                            12 C    0.110
    10   6 C    3.992 --    11 C    1.437     9 C    1.421    52 H    0.966
                            13 C    0.110
    11   6 C    3.992 --    12 C    1.445    10 C    1.437    53 H    0.971
                            14 C    0.113
    12   6 C    3.992 --    11 C    1.445    13 C    1.433    54 H    0.971
                             9 C    0.110
    13   6 C    3.992 --    14 C    1.451    12 C    1.433    55 H    0.971
                            10 C    0.110
    14   6 C    3.991 --    13 C    1.451     9 C    1.406    56 H    0.969
                            11 C    0.113
    15   7 N    3.467 --    16 C    1.192    28 C    0.979     8 C    0.974
                            27 O    0.181
    16   6 C    3.954 --    27 O    1.632    15 N    1.192    17 C    1.037
    17   6 C    3.903 --    18 C    1.540    26 O    1.051    16 C    1.037
    18   6 C    3.982 --    17 C    1.540    20 C    1.193    19 C    1.041
    19   6 C    3.991 --    18 C    1.041    57 H    0.975    58 H    0.966
                            59 H    0.965
    20   6 C    3.985 --    21 C    1.326    25 C    1.271    18 C    1.193
    21   6 C    3.984 --    22 C    1.507    20 C    1.326    60 H    0.969
                            24 C    0.116
    22   6 C    3.991 --    21 C    1.507    23 C    1.376    61 H    0.971
    23   6 C    3.980 --    24 C    1.487    22 C    1.376    62 H    0.971
    24   6 C    3.988 --    23 C    1.487    25 C    1.348    63 H    0.967
                            21 C    0.116
    25   6 C    3.922 --    24 C    1.348    20 C    1.271    26 O    1.092
    26   8 O    2.380 --    25 C    1.092    17 C    1.051
    27   8 O    1.987 --    16 C    1.632    15 N    0.181
    28   6 C    3.962 --    32 N    0.993    15 N    0.979    64 H    0.928
                            29 C    0.906
    29   6 C    3.914 --    31 O    1.775    30 O    1.159    28 C    0.906
    30   8 O    2.224 --    29 C    1.159    65 H    0.858    31 O    0.180
    31   8 O    2.058 --    29 C    1.775    30 O    0.180
    32   7 N    3.457 --    33 C    1.195    28 C    0.993     7 C    0.959
                            44 O    0.181
    33   6 C    3.956 --    44 O    1.633    32 N    1.195    34 C    1.036
    34   6 C    3.903 --    35 C    1.548    43 O    1.046    33 C    1.036
    35   6 C    3.983 --    34 C    1.548    37 C    1.187    36 C    1.040
    36   6 C    3.990 --    35 C    1.040    67 H    0.974    68 H    0.968
                            66 H    0.964
    37   6 C    3.985 --    42 C    1.330    38 C    1.272    35 C    1.187
    38   6 C    3.919 --    39 C    1.353    37 C    1.272    43 O    1.082
    39   6 C    3.987 --    40 C    1.482    38 C    1.353    69 H    0.967
                            42 C    0.115
    40   6 C    3.980 --    39 C    1.482    41 C    1.380    70 H    0.971
    41   6 C    3.991 --    42 C    1.503    40 C    1.380    71 H    0.971
    42   6 C    3.984 --    41 C    1.503    37 C    1.330    72 H    0.969
                            39 C    0.115
    43   8 O    2.370 --    38 C    1.082    34 C    1.046
    44   8 O    1.981 --    33 C    1.633    32 N    0.181
    45   1 H    0.998 --     1 C    0.968
    46   1 H    0.998 --     2 C    0.971
    47   1 H    0.998 --     3 C    0.971
    48   1 H    0.998 --     4 C    0.971
    49   1 H    0.999 --     5 C    0.969
    50   1 H    0.993 --     7 C    0.952
    51   1 H    0.995 --     8 C    0.946
    52   1 H    0.999 --    10 C    0.966
    53   1 H    0.998 --    11 C    0.971
    54   1 H    0.998 --    12 C    0.971
    55   1 H    0.998 --    13 C    0.971
    56   1 H    0.999 --    14 C    0.969
    57   1 H    0.993 --    19 C    0.975
    58   1 H    0.995 --    19 C    0.966
    59   1 H    0.997 --    19 C    0.965
    60   1 H    0.998 --    21 C    0.969
    61   1 H    0.998 --    22 C    0.971
    62   1 H    0.998 --    23 C    0.971
    63   1 H    0.997 --    24 C    0.967
    64   1 H    0.988 --    28 C    0.928
    65   1 H    0.884 --    30 O    0.858
    66   1 H    0.996 --    36 C    0.964
    67   1 H    0.993 --    36 C    0.974
    68   1 H    0.996 --    36 C    0.968
    69   1 H    0.997 --    39 C    0.967
    70   1 H    0.998 --    40 C    0.971
    71   1 H    0.998 --    41 C    0.971
    72   1 H    0.998 --    42 C    0.969
 ---------------------------------------------------------------------------

molecular dipole:
                 x           y           z       tot (Debye)
 q only:        1.113       0.261       0.066
   full:        1.212       0.530       0.206       3.403

           -------------------------------------------------
          | TOTAL ENERGY             -121.694237416383 Eh   |
          | GRADIENT NORM               0.000570194806 Eh/Î± |
          | HOMO-LUMO GAP               2.885309388889 eV   |
           -------------------------------------------------

 * finished run on 2022/03/16 at 23:15:25.950
