   * xtb version 6.3.3 (4ae9cef) compiled by 'conda@95abc7406d43' on 2020-10-14
          program call               : xtb acid_236.xyz --opt --chrg 0 --uhf 0 --gfn 2
          number of atoms            :                    84
          number of electrons        :                   310
          charge                     :                     0
          spin                       :                   0.0

   ID    Z sym.   atoms
    1    6 C      1-22, 24-28, 32-34, 38, 40, 41, 45-49, 53-55, 59
    2    7 N      23, 44
    3    9 F      29-31, 35-37, 50-52, 56-58
    4    8 O      39, 42, 43, 60
    5    1 H      61-84

          :  Hamiltonian                  GFN2-xTB          :
 * total energy  :  -181.1503144 Eh     change       -0.2939970E-08 Eh
 * total energy  :  -181.1733755 Eh     change       -0.2306117E-01 Eh
 * total energy  :  -181.1809630 Eh     change       -0.7587496E-02 Eh
 * total energy  :  -181.1828415 Eh     change       -0.1878471E-02 Eh
 * total energy  :  -181.1840617 Eh     change       -0.1220216E-02 Eh
 * total energy  :  -181.1845989 Eh     change       -0.5371795E-03 Eh
 * total energy  :  -181.1850253 Eh     change       -0.4264234E-03 Eh
 * total energy  :  -181.1854824 Eh     change       -0.4570887E-03 Eh
 * total energy  :  -181.1859109 Eh     change       -0.4284780E-03 Eh
 * total energy  :  -181.1862221 Eh     change       -0.3112582E-03 Eh
 * total energy  :  -181.1885428 Eh     change       -0.1291241E-04 Eh
 * total energy  :  -181.1885579 Eh     change       -0.1514293E-04 Eh
 * total energy  :  -181.1885765 Eh     change       -0.1860269E-04 Eh
 * total energy  :  -181.1885967 Eh     change       -0.2013088E-04 Eh
 * total energy  :  -181.1886152 Eh     change       -0.1854488E-04 Eh
 * total energy  :  -181.1886303 Eh     change       -0.1508712E-04 Eh
 * total energy  :  -181.1886362 Eh     change       -0.5859354E-05 Eh
 * total energy  :  -181.1886443 Eh     change       -0.8102093E-05 Eh
 * total energy  :  -181.1886476 Eh     change       -0.3334907E-05 Eh
   *** GEOMETRY OPTIMIZATION CONVERGED AFTER 70 ITERATIONS ***

 final structure:
================
84
 xtb: 6.3.3 (4ae9cef)
C         4.31519026258425    4.28433841858468   -2.75513765584521
C         5.29880527873185    3.91449750510561   -1.88364234273078
C         4.96520514254360    3.19201000859638   -0.73027086094807
C         3.66608856488893    2.85899595792637   -0.46054735980047
C         2.61954571520207    3.22981882259171   -1.33392779118324
C         2.96607359476360    3.95359718492203   -2.50984953845605
C         1.96219599387018    4.33065302280650   -3.42418443642490
C         0.65873074867370    4.01073763280467   -3.18629426647539
C         0.30723596702193    3.30973564201002   -2.02423556836120
C         1.24751072861540    2.92238568638404   -1.10052994491041
C         0.85125546319448    2.13230196304472    0.13284766949616
C        -0.64110641659699    2.23362343444603    0.52549738260763
C        -0.84983140618491    2.37239650404166    2.02137460897698
C        -1.04784856937683    3.65995660661825    2.46266689339617
C        -1.22412237026175    3.96561178176949    3.81590303386427
C        -1.21632487211099    2.96444381906793    4.74254177378250
C        -1.01935760428890    1.62751352232756    4.34468207984854
C        -0.81988168254997    1.31225634477491    2.96885118143472
C        -0.61212139984822   -0.04702650520057    2.64810060826039
C        -0.61733720671821   -1.02678273577530    3.60198442189035
C        -0.82077708260758   -0.70722820226097    4.95044577688613
C        -1.01296482564454    0.59585121366044    5.30769745208088
N        -1.22254306212922    1.04445445749998   -0.09421272444003
C        -2.55550477876399    0.80274718089763   -0.05946170567511
C        -2.94549974742182   -0.52183295264804   -0.66502582241566
C        -3.61071854553813   -0.56128829196239   -1.88127160761976
C        -3.90553745411587   -1.78590013543479   -2.46642369413729
C        -4.56479543233031   -1.77548067810854   -3.82117064417249
F        -4.79279057906649   -2.99432826133448   -4.31204567640044
F        -3.79731668554152   -1.13009196819564   -4.72295234773312
F        -5.74071048286932   -1.13193021722964   -3.80803354207071
C        -3.56759420505335   -2.97951857274513   -1.84688612798511
C        -2.94916945260468   -2.92444136443030   -0.60695870413043
C        -2.57257135543825   -4.18335289019683    0.12719109276875
F        -1.30816307830014   -4.10602959876713    0.60028725680590
F        -3.35298394289331   -4.40174856160276    1.19449207096991
F        -2.62896749559528   -5.27870705971359   -0.62936780113573
C        -2.64169908218050   -1.70885683146268   -0.01075851072519
O        -3.35205806672894    1.57619985014687    0.41514044382359
C        -0.20016832104583    0.24726484123313   -0.73835410171784
C        -0.12568360672155    0.42364067618028   -2.27479376762294
O        -1.27989341479584    0.79404735046197   -2.80973623235011
O         0.86055555206262    0.16134214980776   -2.90158892358669
N         1.01942599368068    0.69901167898331   -0.12565163069715
C         1.90809382505378   -0.04408333195364    0.59364555190125
C         1.83492544169859   -1.52926567933064    0.41917691321961
C         1.98760663158474   -2.30894565208922    1.56150375311805
C         1.88713060448383   -3.68947686668140    1.47555612418118
C         2.03358108786318   -4.49872704726481    2.73866945489904
F         3.16749003856203   -4.20815026453479    3.39339649999203
F         2.03783681580343   -5.81613789408099    2.52258321101856
F         1.03016400307846   -4.25091731514816    3.59931490679477
C         1.61347204837501   -4.31219212186037    0.26626261732772
C         1.49055103323210   -3.52498056929218   -0.86815821844419
C         1.09827226296612   -4.13040812539178   -2.18944188828902
F         1.88370356472502   -3.74017211314819   -3.19805499202114
F         1.09039280882279   -5.46240364733596   -2.18850812344510
F        -0.15755869853487   -3.73816277690963   -2.51857946102593
C         1.62661224664443   -2.14370749244407   -0.80970333514063
O         2.70632229724197    0.46345254624109    1.34989362947080
H         4.55249173946541    4.83744247333202   -3.65253175621998
H         6.32984141764644    4.17039256048547   -2.07691493251460
H         5.74545083233278    2.89259679902298   -0.04666869410967
H         3.46078789890837    2.28779552841819    0.42891502630068
H         2.24543545698040    4.87375258459091   -4.31377267003771
H        -0.11649549884549    4.29522511569449   -3.88227504272015
H        -0.74043028127078    3.09392459749911   -1.87975095327340
H         1.48538677429610    2.40247512139682    0.98013258461308
H        -1.10224330463679    3.12013936339964    0.08071614796342
H        -1.07050141895790    4.46863423477754    1.74608755886638
H        -1.37489047059291    4.99270930139839    4.11094435488825
H        -1.36213019550775    3.17750778843843    5.79119544076968
H        -0.43869363844007   -0.33581203067338    1.62769876194230
H        -0.46381692175901   -2.05880865481173    3.32037590940977
H        -0.81869251290767   -1.49273288140869    5.69016554204550
H        -1.16518335472445    0.86413006107789    6.34313255710122
H        -3.88500949190114    0.35808779942640   -2.37498769015928
H        -3.77932972818700   -3.92765965714776   -2.31631851078176
H        -2.17476560910378   -1.69354544733437    0.96378801629101
H        -0.36378991397763   -0.82906866877320   -0.58283696526702
H        -1.21346618301950    0.85197683360050   -3.77886889299384
H         2.18167931650549   -1.82499853940029    2.50755532736810
H         1.49960336728922   -5.38357719562450    0.20933757445169
H         1.58839092827556   -1.56119716579439   -1.71906775464616

          :  Hamiltonian                  GFN2-xTB          :
         :: total energy            -181.188647591495 Eh    ::
         :: gradient norm              0.000756562815 Eh/a0 ::
         :: HOMO-LUMO gap              2.204676189227 eV    ::
         :: SCC energy              -183.242501550977 Eh    ::
         :: -> dispersion             -0.130863001607 Eh    ::
         :: repulsion energy           2.047326487183 Eh    ::

    * Orbital Energies and Occupations

         #    Occupation            Energy/Eh            Energy/eV
      -------------------------------------------------------------
         1        2.0000           -0.9052751             -24.6338
       ...           ...                  ...                  ...
       143        2.0000           -0.4477987             -12.1852
       144        2.0000           -0.4442550             -12.0888
       145        2.0000           -0.4386537             -11.9364
       146        2.0000           -0.4375839             -11.9073
       147        2.0000           -0.4348948             -11.8341
       148        2.0000           -0.4325205             -11.7695
       149        2.0000           -0.4319231             -11.7532
       150        2.0000           -0.4236302             -11.5276
       151        2.0000           -0.4229519             -11.5091
       152        2.0000           -0.4176733             -11.3655
       153        2.0000           -0.4171459             -11.3511
       154        2.0000           -0.3956799             -10.7670
       155        2.0000           -0.3941201             -10.7246 (HOMO)
       156                         -0.3130997              -8.5199 (LUMO)
       157                         -0.3115871              -8.4787
       158                         -0.3077019              -8.3730
       159                         -0.3058138              -8.3216
       160                         -0.2892629              -7.8712
       161                         -0.2800638              -7.6209
       162                         -0.2774542              -7.5499
       163                         -0.2500950              -6.8054
       164                         -0.2455117              -6.6807
       165                         -0.2452124              -6.6726
       166                         -0.2448227              -6.6620
       ...                                ...                  ...
       264                          0.6786611              18.4673
      -------------------------------------------------------------
                  HL-Gap            0.0810204 Eh            2.2047 eV

     #   Z          covCN         q      C6AA      Î±(0)
     1   6 C        2.922    -0.033    28.827     8.805
     2   6 C        2.914    -0.026    28.658     8.778
     3   6 C        2.917    -0.025    28.627     8.774
     4   6 C        2.916    -0.042    29.042     8.837
     5   6 C        2.984     0.012    27.750     8.641
     6   6 C        2.989     0.017    27.615     8.620
     7   6 C        2.920    -0.032    28.794     8.800
     8   6 C        2.914    -0.033    28.830     8.805
     9   6 C        2.920    -0.044    29.099     8.846
    10   6 C        2.964    -0.010    28.264     8.720
    11   6 C        3.845     0.033    19.996     6.361
    12   6 C        3.828     0.036    19.953     6.356
    13   6 C        2.962    -0.002    28.085     8.693
    14   6 C        2.929    -0.032    28.806     8.802
    15   6 C        2.913    -0.027    28.666     8.780
    16   6 C        2.922    -0.032    28.794     8.800
    17   6 C        2.990     0.018    27.591     8.616
    18   6 C        2.980     0.015    27.676     8.629
    19   6 C        2.919    -0.040    28.991     8.830
    20   6 C        2.917    -0.032    28.789     8.799
    21   6 C        2.915    -0.026    28.658     8.778
    22   6 C        2.923    -0.030    28.752     8.793
    23   7 N        2.764    -0.109    23.377     7.181
    24   6 C        2.759     0.277    22.321     7.737
    25   6 C        2.976     0.001    27.999     8.680
    26   6 C        2.925    -0.010    28.256     8.717
    27   6 C        2.979    -0.011    28.294     8.725
    28   6 C        3.336     0.488    17.249     6.576
    29   9 F        0.791    -0.191    11.148     3.944
    30   9 F        0.791    -0.207    11.306     3.972
    31   9 F        0.791    -0.196    11.191     3.952
    32   6 C        2.918    -0.016    28.412     8.741
    33   6 C        2.978    -0.014    28.366     8.736
    34   6 C        3.337     0.490    17.230     6.572
    35   9 F        0.791    -0.219    11.435     3.995
    36   9 F        0.791    -0.194    11.168     3.948
    37   9 F        0.791    -0.189    11.123     3.940
    38   6 C        2.925    -0.023    28.573     8.766
    39   8 O        0.859    -0.390    21.484     6.214
    40   6 C        3.777     0.088    19.147     6.234
    41   6 C        2.686     0.351    21.047     7.508
    42   8 O        1.659    -0.360    20.083     6.050
    43   8 O        0.856    -0.378    21.248     6.180
    44   7 N        2.766    -0.104    23.281     7.166
    45   6 C        2.761     0.276    22.324     7.737
    46   6 C        2.974    -0.001    28.058     8.689
    47   6 C        2.927    -0.006    28.180     8.706
    48   6 C        2.977    -0.009    28.234     8.716
    49   6 C        3.336     0.489    17.246     6.577
    50   9 F        0.791    -0.197    11.207     3.954
    51   9 F        0.791    -0.194    11.170     3.948
    52   9 F        0.791    -0.200    11.237     3.960
    53   6 C        2.919    -0.012    28.324     8.727
    54   6 C        2.979    -0.014    28.351     8.734
    55   6 C        3.337     0.489    17.236     6.573
    56   9 F        0.791    -0.192    11.156     3.945
    57   9 F        0.791    -0.189    11.121     3.939
    58   9 F        0.791    -0.220    11.448     3.997
    59   6 C        2.922    -0.029    28.723     8.789
    60   8 O        0.859    -0.398    21.639     6.237
    61   1 H        0.926     0.037     2.484     2.464
    62   1 H        0.926     0.037     2.484     2.464
    63   1 H        0.926     0.040     2.444     2.445
    64   1 H        0.926     0.061     2.186     2.312
    65   1 H        0.926     0.041     2.431     2.438
    66   1 H        0.926     0.035     2.516     2.480
    67   1 H        0.926     0.032     2.565     2.504
    68   1 H        0.924     0.089     1.886     2.147
    69   1 H        0.924     0.075     2.030     2.228
    70   1 H        0.926     0.036     2.505     2.475
    71   1 H        0.926     0.043     2.414     2.430
    72   1 H        0.926     0.043     2.409     2.427
    73   1 H        0.926     0.006     2.956     2.689
    74   1 H        0.926     0.032     2.563     2.504
    75   1 H        0.926     0.043     2.405     2.425
    76   1 H        0.926     0.042     2.427     2.436
    77   1 H        0.926     0.090     1.877     2.143
    78   1 H        0.926     0.098     1.800     2.098
    79   1 H        0.926     0.075     2.034     2.230
    80   1 H        0.923     0.062     2.176     2.307
    81   1 H        0.804     0.357     0.573     1.189
    82   1 H        0.926     0.097     1.815     2.107
    83   1 H        0.926     0.099     1.793     2.094
    84   1 H        0.926     0.091     1.865     2.136

Wiberg/Mayer (AO) data.
largest (>0.10) Wiberg bond orders for each atom

     #   Z sym  total        # sym  WBO       # sym  WBO       # sym  WBO
 ---------------------------------------------------------------------------
     1   6 C    3.991 --     2 C    1.555     6 C    1.280    61 H    0.968
                             4 C    0.119
     2   6 C    3.991 --     1 C    1.555     3 C    1.325    62 H    0.970
     3   6 C    3.991 --     4 C    1.552     2 C    1.325    63 H    0.970
     4   6 C    3.989 --     3 C    1.552     5 C    1.286    64 H    0.954
                             1 C    0.119
     5   6 C    3.988 --     4 C    1.286     6 C    1.252    10 C    1.249
     6   6 C    3.990 --     1 C    1.280     7 C    1.279     5 C    1.252
     7   6 C    3.990 --     8 C    1.556     6 C    1.279    65 H    0.967
                            10 C    0.113
     8   6 C    3.991 --     7 C    1.556     9 C    1.321    66 H    0.970
     9   6 C    3.990 --    10 C    1.524     8 C    1.321    67 H    0.961
    10   6 C    3.981 --     9 C    1.524     5 C    1.249    11 C    0.982
                             7 C    0.113
    11   6 C    3.950 --    10 C    0.982    12 C    0.959    68 H    0.947
                            44 N    0.944
    12   6 C    3.953 --    13 C    0.986    11 C    0.959    23 N    0.950
                            69 H    0.944
    13   6 C    3.982 --    14 C    1.517    18 C    1.258    12 C    0.986
                            16 C    0.115
    14   6 C    3.989 --    13 C    1.517    15 C    1.332    70 H    0.967
    15   6 C    3.991 --    16 C    1.549    14 C    1.332    71 H    0.970
    16   6 C    3.989 --    15 C    1.549    17 C    1.283    72 H    0.967
                            13 C    0.115
    17   6 C    3.990 --    16 C    1.283    22 C    1.280    18 C    1.247
    18   6 C    3.989 --    19 C    1.284    13 C    1.258    17 C    1.247
    19   6 C    3.992 --    20 C    1.552    18 C    1.284    73 H    0.959
                            22 C    0.117
    20   6 C    3.992 --    19 C    1.552    21 C    1.322    74 H    0.969
    21   6 C    3.991 --    22 C    1.557    20 C    1.322    75 H    0.970
    22   6 C    3.990 --    21 C    1.557    17 C    1.280    76 H    0.967
                            19 C    0.117
    23   7 N    3.477 --    24 C    1.218    40 C    0.983    12 C    0.950
                            39 O    0.201
    24   6 C    3.956 --    39 O    1.712    23 N    1.218    25 C    0.945
    25   6 C    3.985 --    26 C    1.412    38 C    1.408    24 C    0.945
                            32 C    0.109
    26   6 C    3.983 --    27 C    1.414    25 C    1.412    77 H    0.962
                            33 C    0.106
    27   6 C    3.981 --    32 C    1.419    26 C    1.414    28 C    0.949
                            38 C    0.106
    28   6 C    3.837 --    29 F    0.963    31 F    0.952    27 C    0.949
                            30 F    0.939
    29   9 F    1.088 --    28 C    0.963
    30   9 F    1.068 --    28 C    0.939
    31   9 F    1.082 --    28 C    0.952
    32   6 C    3.982 --    27 C    1.419    33 C    1.415    78 H    0.959
                            25 C    0.109
    33   6 C    3.979 --    38 C    1.417    32 C    1.415    34 C    0.949
                            26 C    0.106
    34   6 C    3.833 --    37 F    0.965    36 F    0.953    33 C    0.949
                            35 F    0.931
    35   9 F    1.057 --    34 C    0.931
    36   9 F    1.084 --    34 C    0.953
    37   9 F    1.091 --    34 C    0.965
    38   6 C    3.987 --    33 C    1.417    25 C    1.408    79 H    0.960
                            27 C    0.106
    39   8 O    2.047 --    24 C    1.712    23 N    0.201
    40   6 C    3.976 --    44 N    0.998    23 N    0.983    80 H    0.920
                            41 C    0.907
    41   6 C    3.924 --    43 O    1.775    42 O    1.163    40 C    0.907
    42   8 O    2.225 --    41 C    1.163    81 H    0.846    43 O    0.182
    43   8 O    2.072 --    41 C    1.775    42 O    0.182
    44   7 N    3.469 --    45 C    1.198    40 C    0.998    11 C    0.944
                            60 O    0.191
    45   6 C    3.951 --    60 O    1.693    44 N    1.198    46 C    0.975
    46   6 C    3.986 --    59 C    1.401    47 C    1.398    45 C    0.975
                            53 C    0.105
    47   6 C    3.980 --    48 C    1.424    46 C    1.398    82 H    0.959
                            54 C    0.105
    48   6 C    3.981 --    47 C    1.424    53 C    1.413    49 C    0.948
                            59 C    0.104
    49   6 C    3.839 --    51 F    0.960    50 F    0.951    48 C    0.948
                            52 F    0.944
    50   9 F    1.080 --    49 C    0.951
    51   9 F    1.085 --    49 C    0.960
    52   9 F    1.076 --    49 C    0.944
    53   6 C    3.981 --    54 C    1.418    48 C    1.413    83 H    0.959
                            46 C    0.105
    54   6 C    3.979 --    53 C    1.418    59 C    1.414    55 C    0.949
                            47 C    0.105
    55   6 C    3.834 --    57 F    0.966    56 F    0.958    54 C    0.949
                            58 F    0.925
    56   9 F    1.087 --    55 C    0.958
    57   9 F    1.091 --    55 C    0.966
    58   9 F    1.055 --    55 C    0.925
    59   6 C    3.983 --    54 C    1.414    46 C    1.401    84 H    0.953
                            48 C    0.104
    60   8 O    2.041 --    45 C    1.693    44 N    0.191
    61   1 H    0.998 --     1 C    0.968
    62   1 H    0.998 --     2 C    0.970
    63   1 H    0.998 --     3 C    0.970
    64   1 H    0.996 --     4 C    0.954
    65   1 H    0.997 --     7 C    0.967
    66   1 H    0.998 --     8 C    0.970
    67   1 H    0.998 --     9 C    0.961
    68   1 H    0.991 --    11 C    0.947
    69   1 H    0.994 --    12 C    0.944
    70   1 H    0.998 --    14 C    0.967
    71   1 H    0.997 --    15 C    0.970
    72   1 H    0.997 --    16 C    0.967
    73   1 H    1.000 --    19 C    0.959
    74   1 H    0.999 --    20 C    0.969
    75   1 H    0.997 --    21 C    0.970
    76   1 H    0.998 --    22 C    0.967
    77   1 H    0.991 --    26 C    0.962
    78   1 H    0.990 --    32 C    0.959
    79   1 H    0.994 --    38 C    0.960
    80   1 H    0.996 --    40 C    0.920
    81   1 H    0.872 --    42 O    0.846
    82   1 H    0.990 --    47 C    0.959
    83   1 H    0.990 --    53 C    0.959
    84   1 H    0.991 --    59 C    0.953
 ---------------------------------------------------------------------------

molecular dipole:
                 x           y           z       tot (Debye)
 q only:        0.516       2.630       0.026
   full:        0.360       2.194      -0.345       5.719

           -------------------------------------------------
          | TOTAL ENERGY             -181.188647591495 Eh   |
          | GRADIENT NORM               0.000756562815 Eh/Î± |
          | HOMO-LUMO GAP               2.204676189227 eV   |
           -------------------------------------------------

 * finished run on 2022/03/16 at 22:48:51.284
