   * xtb version 6.3.3 (4ae9cef) compiled by 'conda@95abc7406d43' on 2020-10-14
          program call               : xtb acid_15.xyz --opt --chrg 0 --uhf 0 --gfn 2
          number of atoms            :                    68
          number of electrons        :                   214
          charge                     :                     0
          spin                       :                   0.0

   ID    Z sym.   atoms
    1    6 C      1, 3-16, 18, 20-22, 24-27, 29, 30, 34-40
    2    8 O      2, 17, 28, 31, 32, 42
    3    7 N      19, 33
    4    9 F      23, 41
    5    1 H      43-68

          :  Hamiltonian                  GFN2-xTB          :
 * total energy  :  -121.5098204 Eh     change       -0.1434643E-08 Eh
 * total energy  :  -121.5241476 Eh     change       -0.1432717E-01 Eh
 * total energy  :  -121.5284778 Eh     change       -0.4330201E-02 Eh
 * total energy  :  -121.5295040 Eh     change       -0.1026253E-02 Eh
 * total energy  :  -121.5301669 Eh     change       -0.6628513E-03 Eh
 * total energy  :  -121.5305857 Eh     change       -0.4188611E-03 Eh
 * total energy  :  -121.5309639 Eh     change       -0.3781873E-03 Eh
 * total energy  :  -121.5313314 Eh     change       -0.3675074E-03 Eh
 * total energy  :  -121.5316246 Eh     change       -0.2931790E-03 Eh
 * total energy  :  -121.5318310 Eh     change       -0.2063604E-03 Eh
 * total energy  :  -121.5355345 Eh     change       -0.2919015E-04 Eh
 * total energy  :  -121.5355591 Eh     change       -0.2456236E-04 Eh
 * total energy  :  -121.5355745 Eh     change       -0.1540622E-04 Eh
 * total energy  :  -121.5355866 Eh     change       -0.1214660E-04 Eh
 * total energy  :  -121.5355871 Eh     change       -0.4625108E-06 Eh
 * total energy  :  -121.5355969 Eh     change       -0.9841923E-05 Eh
 * total energy  :  -121.5356053 Eh     change       -0.8401079E-05 Eh
 * total energy  :  -121.5356188 Eh     change       -0.1350394E-04 Eh
 * total energy  :  -121.5356197 Eh     change       -0.8320067E-06 Eh
   *** GEOMETRY OPTIMIZATION CONVERGED AFTER 68 ITERATIONS ***

 final structure:
================
68
 xtb: 6.3.3 (4ae9cef)
C         0.82788498615435   -1.97626008616340    2.60533502942485
O         0.47811890157560   -3.11149162164512    1.94511680455084
C         0.63622008135683   -4.34667685959346    2.60137065748736
C         1.10574644665819   -1.91372955318207    3.96689504060199
C         1.42121867060677   -0.70452264474916    4.56192710227115
C         1.46267976814264    0.45680977960437    3.81420069472657
C         1.19845921133671    0.39874091339552    2.45702790507312
C         0.88675723427954   -0.80219477640618    1.84190814845841
C         0.63828776975728   -0.85809800684417    0.35506520266243
C        -0.64065206706543   -0.09198783339980   -0.04473058603602
C        -1.51259481007708   -0.84583053217167   -1.01899185205903
C        -1.00134129589245   -1.35937217357454   -2.19905505372819
C        -1.81560629378070   -2.01807621553781   -3.10391080235281
C        -3.15784382932696   -2.17636635452168   -2.81939286402504
C        -3.68358943670818   -1.70009197068143   -1.63068014292020
C        -2.87067345940163   -1.03644279635588   -0.72017455615673
O        -3.30602712556614   -0.55107738695484    0.48149702768563
C        -4.62617897012116   -0.82735499351323    0.88115906170271
N        -0.11638094188124    1.15072108411826   -0.59069854183808
C        -0.63850873399195    2.39083682475380   -0.44872382117046
C        -2.07095983626835    2.42651367158290   -0.01309688364523
C        -3.08378578166069    2.16731748050505   -0.92728650200544
F        -2.76710459277487    1.79903430207517   -2.18483801141393
C        -4.41856929566470    2.28624632507314   -0.58872297083367
C        -4.75247413726045    2.65927118234621    0.70145742545957
C        -3.75872111964994    2.91463740746549    1.63120883727572
C        -2.42625390490346    2.80913913842084    1.27312446287939
O         0.00150238681933    3.39703565493074   -0.67401412677260
C         1.23468348492927    0.98711290536121   -1.05959300987816
C         1.28852856331347    0.85389087084979   -2.59671531570980
O         0.30915268506507    1.53851504514869   -3.16581102031971
O         2.13244498454400    0.25048331426858   -3.19762963912962
N         1.71322938161560   -0.17548878250489   -0.36160842754985
C         2.98423564283395   -0.64585134197943   -0.27251698430952
C         4.02649766757757    0.18810208444487   -0.95123922156051
C         4.36514895614121    1.44712790481035   -0.47046694932347
C         5.36866301869602    2.18506736505108   -1.07297987993277
C         6.04777912584909    1.67211294323406   -2.16576576144108
C         5.73813872524526    0.41330491093140   -2.64849701857770
C         4.74009383309139   -0.31849496401649   -2.03073658531908
F         4.45390709341055   -1.54111634303047   -2.49986740355100
O         3.24937637773795   -1.65528489192551    0.34200738179195
H         0.42120536202768   -5.10594109097160    1.85096924724806
H        -0.06694303509871   -4.45447127881879    3.43441399774694
H         1.65997074071215   -4.47635720804424    2.96365581798482
H         1.08175428337100   -2.80543158350281    4.57311630679946
H         1.63721121358486   -0.67694174535154    5.61976393367562
H         1.70736417488040    1.39920500657874    4.28000103903611
H         1.24178970300969    1.30106272637363    1.86322769222722
H         0.59707928399117   -1.90670131508130    0.04658294599047
H        -1.23979823704967    0.13467315746145    0.84176999345339
H         0.05125617890337   -1.25537726088671   -2.41202025363811
H        -1.40114877550619   -2.40452437376734   -4.02180355339159
H        -3.80678221796212   -2.68173470442904   -3.51884146241961
H        -4.73151455559163   -1.84910738073040   -1.42434161260814
H        -5.35660914990933   -0.36247014911738    0.21217031211559
H        -4.81027668238027   -1.90488557318869    0.93521266577759
H        -4.72549036369229   -0.39185870944842    1.87419846856242
H        -5.17263121188769    2.08882168955982   -1.33505110351347
H        -5.79170314419017    2.75445823072033    0.97829123643250
H        -4.02178609371042    3.20707680330730    2.63624451225304
H        -1.64866141240919    3.02301390572313    1.99091476152429
H         1.80770066340735    1.90233510437817   -0.82882299726659
H         0.35240693346210    1.48745503729499   -4.13436899669312
H         3.85169478671907    1.83925575984073    0.39587754546024
H         5.62039838275991    3.16163702543325   -0.68850844632204
H         6.82495463572886    2.25133787377449   -2.64074948521028
H         6.25706917208683   -0.01073692672829   -3.49346541572897

          :  Hamiltonian                  GFN2-xTB          :
         :: total energy            -121.535619672740 Eh    ::
         :: gradient norm              0.000645884750 Eh/a0 ::
         :: HOMO-LUMO gap              3.417190320440 eV    ::
         :: SCC energy              -123.179752188180 Eh    ::
         :: -> dispersion             -0.096864091299 Eh    ::
         :: repulsion energy           1.640441741298 Eh    ::

    * Orbital Energies and Occupations

         #    Occupation            Energy/Eh            Energy/eV
      -------------------------------------------------------------
         1        2.0000           -0.8216209             -22.3574
       ...           ...                  ...                  ...
        95        2.0000           -0.4298941             -11.6980
        96        2.0000           -0.4291326             -11.6773
        97        2.0000           -0.4190030             -11.4017
        98        2.0000           -0.4167145             -11.3394
        99        2.0000           -0.4155972             -11.3090
       100        2.0000           -0.4103083             -11.1651
       101        2.0000           -0.4043063             -11.0017
       102        2.0000           -0.4032400             -10.9727
       103        2.0000           -0.4008864             -10.9087
       104        2.0000           -0.3925862             -10.6828
       105        2.0000           -0.3910738             -10.6417
       106        2.0000           -0.3869069             -10.5283
       107        2.0000           -0.3793070             -10.3215 (HOMO)
       108                         -0.2537276              -6.9043 (LUMO)
       109                         -0.2507693              -6.8238
       110                         -0.2442675              -6.6469
       111                         -0.2435735              -6.6280
       112                         -0.2382748              -6.4838
       113                         -0.2305765              -6.2743
       114                         -0.2285145              -6.2182
       115                         -0.2240375              -6.0964
       116                         -0.2188581              -5.9554
       117                         -0.2165353              -5.8922
       118                         -0.2018789              -5.4934
       ...                                ...                  ...
       194                          0.6681431              18.1811
      -------------------------------------------------------------
                  HL-Gap            0.1255794 Eh            3.4172 eV

     #   Z          covCN         q      C6AA      Î±(0)
     1   6 C        2.868     0.147    24.797     8.163
     2   8 O        1.705    -0.265    18.399     5.791
     3   6 C        3.645     0.037    20.293     6.475
     4   6 C        2.918    -0.064    29.584     8.919
     5   6 C        2.921    -0.031    28.771     8.796
     6   6 C        2.917    -0.042    29.038     8.837
     7   6 C        2.924    -0.035    28.865     8.811
     8   6 C        2.974    -0.015    28.384     8.739
     9   6 C        3.828     0.042    19.845     6.339
    10   6 C        3.820     0.035    19.973     6.360
    11   6 C        2.970    -0.019    28.475     8.753
    12   6 C        2.924    -0.030    28.740     8.792
    13   6 C        2.917    -0.037    28.927     8.820
    14   6 C        2.921    -0.028    28.708     8.787
    15   6 C        2.917    -0.063    29.563     8.916
    16   6 C        2.867     0.140    24.938     8.186
    17   8 O        1.705    -0.284    18.718     5.841
    18   6 C        3.643     0.038    20.272     6.473
    19   7 N        2.768    -0.099    23.179     7.151
    20   6 C        2.765     0.282    22.230     7.721
    21   6 C        2.973    -0.024    28.600     8.772
    22   6 C        2.789     0.177    24.198     8.058
    23   9 F        0.787    -0.222    11.470     4.000
    24   6 C        2.917    -0.045    29.108     8.847
    25   6 C        2.924    -0.027    28.666     8.780
    26   6 C        2.918    -0.031    28.782     8.798
    27   6 C        2.926    -0.021    28.539     8.761
    28   8 O        0.859    -0.424    22.163     6.312
    29   6 C        3.764     0.092    19.094     6.228
    30   6 C        2.687     0.354    20.983     7.497
    31   8 O        1.660    -0.346    19.823     6.010
    32   8 O        0.856    -0.393    21.532     6.221
    33   7 N        2.763    -0.113    23.465     7.194
    34   6 C        2.762     0.284    22.194     7.715
    35   6 C        2.972    -0.029    28.729     8.792
    36   6 C        2.926    -0.032    28.803     8.801
    37   6 C        2.918    -0.034    28.855     8.809
    38   6 C        2.923    -0.027    28.683     8.783
    39   6 C        2.918    -0.046    29.134     8.851
    40   6 C        2.788     0.188    23.983     8.022
    41   9 F        0.787    -0.203    11.271     3.966
    42   8 O        0.859    -0.411    21.904     6.275
    43   1 H        0.925     0.064     2.149     2.292
    44   1 H        0.924     0.039     2.466     2.456
    45   1 H        0.924     0.050     2.316     2.380
    46   1 H        0.926     0.041     2.431     2.438
    47   1 H        0.926     0.038     2.469     2.457
    48   1 H        0.926     0.036     2.496     2.471
    49   1 H        0.926     0.031     2.579     2.511
    50   1 H        0.924     0.087     1.911     2.162
    51   1 H        0.924     0.071     2.075     2.253
    52   1 H        0.926     0.044     2.393     2.419
    53   1 H        0.926     0.044     2.396     2.420
    54   1 H        0.926     0.042     2.423     2.434
    55   1 H        0.926     0.040     2.443     2.444
    56   1 H        0.924     0.042     2.425     2.436
    57   1 H        0.924     0.046     2.367     2.406
    58   1 H        0.925     0.061     2.191     2.315
    59   1 H        0.926     0.058     2.217     2.328
    60   1 H        0.926     0.048     2.343     2.394
    61   1 H        0.926     0.049     2.326     2.385
    62   1 H        0.926     0.053     2.288     2.365
    63   1 H        0.923     0.091     1.868     2.137
    64   1 H        0.804     0.345     0.601     1.218
    65   1 H        0.926     0.042     2.428     2.437
    66   1 H        0.926     0.048     2.346     2.395
    67   1 H        0.926     0.049     2.333     2.388
    68   1 H        0.926     0.064     2.147     2.291

Wiberg/Mayer (AO) data.
largest (>0.10) Wiberg bond orders for each atom

     #   Z sym  total        # sym  WBO       # sym  WBO       # sym  WBO
 ---------------------------------------------------------------------------
     1   6 C    3.937 --     4 C    1.375     8 C    1.324     2 O    1.070
     2   8 O    2.241 --     1 C    1.070     3 C    0.980
     3   6 C    3.943 --     2 O    0.980    43 H    0.979    45 H    0.977
                            44 H    0.976
     4   6 C    3.987 --     5 C    1.440     1 C    1.375    46 H    0.965
                             7 C    0.102
     5   6 C    3.990 --     4 C    1.440     6 C    1.440    47 H    0.971
                             8 C    0.106
     6   6 C    3.991 --     5 C    1.440     7 C    1.428    48 H    0.971
     7   6 C    3.990 --     8 C    1.437     6 C    1.428    49 H    0.968
                             4 C    0.102
     8   6 C    3.983 --     7 C    1.437     1 C    1.324     9 C    0.989
                             5 C    0.106
     9   6 C    3.961 --     8 C    0.989    10 C    0.956    33 N    0.954
                            50 H    0.950
    10   6 C    3.963 --    11 C    0.988    19 N    0.958     9 C    0.956
                            51 H    0.953
    11   6 C    3.983 --    12 C    1.437    16 C    1.327    10 C    0.988
                            14 C    0.107
    12   6 C    3.991 --    11 C    1.437    13 C    1.427    52 H    0.962
                            15 C    0.103
    13   6 C    3.991 --    14 C    1.443    12 C    1.427    53 H    0.970
    14   6 C    3.990 --    13 C    1.443    15 C    1.435    54 H    0.971
                            11 C    0.107
    15   6 C    3.987 --    14 C    1.435    16 C    1.383    55 H    0.965
                            12 C    0.103
    16   6 C    3.932 --    15 C    1.383    11 C    1.327    17 O    1.052
    17   8 O    2.220 --    16 C    1.052    18 C    0.982
    18   6 C    3.944 --    17 O    0.982    58 H    0.979    57 H    0.976
                            56 H    0.975
    19   7 N    3.483 --    20 C    1.223    29 C    0.989    10 C    0.958
                            28 O    0.193
    20   6 C    3.949 --    28 O    1.685    19 N    1.223    21 C    0.956
    21   6 C    3.987 --    27 C    1.410    22 C    1.363    20 C    0.956
                            25 C    0.109
    22   6 C    3.888 --    24 C    1.400    21 C    1.363    23 F    0.962
    23   9 F    1.095 --    22 C    0.962
    24   6 C    3.989 --    25 C    1.439    22 C    1.400    59 H    0.966
                            27 C    0.110
    25   6 C    3.991 --    24 C    1.439    26 C    1.438    60 H    0.970
                            21 C    0.109
    26   6 C    3.991 --    27 C    1.441    25 C    1.438    61 H    0.969
    27   6 C    3.989 --    26 C    1.441    21 C    1.410    62 H    0.969
                            24 C    0.110
    28   8 O    2.020 --    20 C    1.685    19 N    0.193
    29   6 C    3.969 --    33 N    0.992    19 N    0.989    63 H    0.917
                            30 C    0.910
    30   6 C    3.921 --    32 O    1.766    31 O    1.172    29 C    0.910
    31   8 O    2.239 --    30 C    1.172    64 H    0.855    32 O    0.185
    32   8 O    2.058 --    30 C    1.766    31 O    0.185
    33   7 N    3.465 --    34 C    1.207    29 C    0.992     9 C    0.954
                            42 O    0.193
    34   6 C    3.949 --    42 O    1.700    33 N    1.207    35 C    0.959
    35   6 C    3.987 --    36 C    1.406    40 C    1.362    34 C    0.959
                            38 C    0.109
    36   6 C    3.990 --    37 C    1.443    35 C    1.406    65 H    0.968
                            39 C    0.109
    37   6 C    3.991 --    36 C    1.443    38 C    1.434    66 H    0.969
    38   6 C    3.991 --    39 C    1.443    37 C    1.434    67 H    0.970
                            35 C    0.109
    39   6 C    3.988 --    38 C    1.443    40 C    1.395    68 H    0.966
                            36 C    0.109
    40   6 C    3.895 --    39 C    1.395    35 C    1.362    41 F    0.979
    41   9 F    1.118 --    40 C    0.979
    42   8 O    2.029 --    34 C    1.700    33 N    0.193
    43   1 H    0.995 --     3 C    0.979
    44   1 H    0.998 --     3 C    0.976
    45   1 H    0.997 --     3 C    0.977
    46   1 H    0.998 --     4 C    0.965
    47   1 H    0.998 --     5 C    0.971
    48   1 H    0.998 --     6 C    0.971
    49   1 H    0.998 --     7 C    0.968
    50   1 H    0.992 --     9 C    0.950
    51   1 H    0.994 --    10 C    0.953
    52   1 H    0.997 --    12 C    0.962
    53   1 H    0.998 --    13 C    0.970
    54   1 H    0.998 --    14 C    0.971
    55   1 H    0.998 --    15 C    0.965
    56   1 H    0.998 --    18 C    0.975
    57   1 H    0.998 --    18 C    0.976
    58   1 H    0.996 --    18 C    0.979
    59   1 H    0.996 --    24 C    0.966
    60   1 H    0.997 --    25 C    0.970
    61   1 H    0.997 --    26 C    0.969
    62   1 H    0.997 --    27 C    0.969
    63   1 H    0.991 --    29 C    0.917
    64   1 H    0.881 --    31 O    0.855
    65   1 H    0.998 --    36 C    0.968
    66   1 H    0.997 --    37 C    0.969
    67   1 H    0.997 --    38 C    0.970
    68   1 H    0.995 --    39 C    0.966
 ---------------------------------------------------------------------------

molecular dipole:
                 x           y           z       tot (Debye)
 q only:       -2.223      -0.022       1.118
   full:       -2.448       0.049       1.057       6.778

           -------------------------------------------------
          | TOTAL ENERGY             -121.535619672740 Eh   |
          | GRADIENT NORM               0.000645884750 Eh/Î± |
          | HOMO-LUMO GAP               3.417190320440 eV   |
           -------------------------------------------------

 * finished run on 2022/03/16 at 21:52:54.987
