   * xtb version 6.3.3 (4ae9cef) compiled by 'conda@95abc7406d43' on 2020-10-14
          program call               : xtb acid_294.xyz --opt --chrg 0 --uhf 0 --gfn 2
          number of atoms            :                    66
          number of electrons        :                   230
          charge                     :                     0
          spin                       :                   0.0

   ID    Z sym.   atoms
    1    6 C      1, 2, 6-15, 19-22, 24-26, 28-30, 32, 33, 37-39, 41-43
    2    9 F      3-5, 16-18
    3    7 N      23, 36
    4   16 S      27, 40
    5    8 O      31, 34, 35, 44
    6    1 H      45-66

          :  Hamiltonian                  GFN2-xTB          :
 * total energy  :  -132.4984326 Eh     change       -0.3817519E-08 Eh
 * total energy  :  -132.5143815 Eh     change       -0.1594887E-01 Eh
 * total energy  :  -132.5193946 Eh     change       -0.5013100E-02 Eh
 * total energy  :  -132.5208181 Eh     change       -0.1423464E-02 Eh
 * total energy  :  -132.5217013 Eh     change       -0.8832759E-03 Eh
 * total energy  :  -132.5221430 Eh     change       -0.4417008E-03 Eh
 * total energy  :  -132.5224471 Eh     change       -0.3040855E-03 Eh
 * total energy  :  -132.5227035 Eh     change       -0.2563731E-03 Eh
 * total energy  :  -132.5228883 Eh     change       -0.1847554E-03 Eh
 * total energy  :  -132.5230052 Eh     change       -0.1169870E-03 Eh
 * total energy  :  -132.5241221 Eh     change       -0.3781840E-04 Eh
 * total energy  :  -132.5241609 Eh     change       -0.3883383E-04 Eh
 * total energy  :  -132.5241869 Eh     change       -0.2603882E-04 Eh
 * total energy  :  -132.5242081 Eh     change       -0.2115877E-04 Eh
 * total energy  :  -132.5242211 Eh     change       -0.1304802E-04 Eh
 * total energy  :  -132.5242319 Eh     change       -0.1077731E-04 Eh
 * total energy  :  -132.5242392 Eh     change       -0.7278315E-05 Eh
 * total energy  :  -132.5242474 Eh     change       -0.8169176E-05 Eh
 * total energy  :  -132.5242520 Eh     change       -0.4675615E-05 Eh
   *** GEOMETRY OPTIMIZATION CONVERGED AFTER 44 ITERATIONS ***

 final structure:
================
66
 xtb: 6.3.3 (4ae9cef)
C         1.36812445494521   -3.66975580960693    0.04051757370401
C         1.22477702152221   -3.89321899549776   -1.44038850599270
F        -0.05423070528254   -3.75804609276463   -1.86381202718307
F         1.59434897883758   -5.12453036365313   -1.81806603034640
F         1.94807069317686   -3.04449192013169   -2.18579278440649
C         1.90196035599798   -4.69286358204505    0.81616852517123
C         2.05627909820328   -4.52718898867264    2.17893669490147
C         1.67540185662917   -3.33613104050299    2.77323775774850
C         1.14041374406622   -2.32214476341749    2.00384769371600
C         0.98490334587719   -2.46407532402434    0.62855642843058
C         0.37804864322794   -1.33237800169333   -0.15319177923590
C        -1.10829988113996   -1.11681934773256    0.20741848447324
C        -2.07109606938588   -2.02357114112955   -0.51678608144574
C        -2.62943351394997   -1.82401065302535   -1.78106449116108
C        -2.32934913614357   -0.62781597293968   -2.64139756176400
F        -2.68698267866291   -0.81484928530654   -3.92225648475912
F        -2.95701704990970    0.49547986444722   -2.25854702829712
F        -1.01619417269393   -0.32870930821577   -2.69199878257890
C        -3.51777843580360   -2.75615714540478   -2.31015644711478
C        -3.83856674151719   -3.90492551230086   -1.61641157025857
C        -3.26899111049949   -4.12912194097557   -0.37629171435457
C        -2.40760468067320   -3.19420464406509    0.16011660338353
N        -1.28942088074787    0.31939224533528    0.04138869046287
C        -2.47109722615306    0.88283807114273    0.44548979121676
C        -2.44577032884103    2.36379273059261    0.54168955063047
C        -3.02616120124376    3.20464754194307   -0.35122345163410
S        -2.77693007050948    4.85006754307207    0.06345099191319
C        -1.89600547569927    4.41072846358817    1.49133118673886
C        -1.33797504926096    5.44744572028256    2.39940426426026
C        -1.80512259176318    3.05978020760380    1.60460113081719
O        -3.42999613083953    0.18961820563241    0.70184621100563
C        -0.01087626185374    0.99336281776409   -0.05891174137574
C         0.18985180037213    1.64756804942822   -1.44900922131487
O         1.22392066601669    1.13146395267153   -2.09743496664942
O        -0.48605723091647    2.54669052869195   -1.85737571719735
N         0.95155727411481   -0.04253055738188    0.21718000026044
C         2.30104653092433    0.13952152655936    0.32492853283939
C         2.71770385674117    1.54688632203923    0.56724984953029
C         2.31396838765826    2.32994166059444    1.60499897132598
S         3.04190807706549    3.88588673132573    1.56201132429558
C         3.91601307613064    3.48461760176701    0.11628093783625
C         4.81262958034443    4.47964490893066   -0.52686469285600
C         3.64666958858998    2.21291826911886   -0.27526889666277
O         3.08537540668674   -0.78040921694308    0.26798059500069
H         2.20081380449140   -5.61704765906416    0.34682060888809
H         2.47773233086804   -5.32345504755362    2.77202075770522
H         1.79805397572133   -3.19634150113435    3.83644639404299
H         0.85663163879051   -1.38949786488989    2.46839354716101
H         0.49292505711168   -1.47835296160404   -1.23116529279165
H        -1.23899159970072   -1.33794152858164    1.27877514690362
H        -3.95388731261461   -2.57871964991950   -3.28073039792625
H        -4.52562507656249   -4.61750231380344   -2.04449198330703
H        -3.50141050927456   -5.02533674463114    0.17804406643437
H        -1.97818854849448   -3.37110079486489    1.13546109097213
H        -3.55521702523368    2.94708546941276   -1.24503172268018
H        -0.92174665724377    4.98102246467532    3.28925863138088
H        -2.11100435109487    6.15294319524063    2.69883541106381
H        -0.54901632869924    6.00888941979751    1.89914784824598
H        -1.33083628740722    2.56765413108035    2.43736897389843
H         0.05198743239582    1.81392321515999    0.66864871942821
H         1.31022311423745    1.51921100069004   -2.98351036302755
H         1.66097001016992    2.08156951544152    2.41849982738421
H         5.34000756629593    4.01903779492275   -1.35840267846924
H         4.23982133153980    5.32831676823887   -0.90080847280725
H         5.54207009569162    4.85888918508999    0.18738224939573
H         4.08267452537082    1.74241155120286   -1.13734117497230

          :  Hamiltonian                  GFN2-xTB          :
         :: total energy            -132.524252038387 Eh    ::
         :: gradient norm              0.000432320835 Eh/a0 ::
         :: HOMO-LUMO gap              3.182466684851 eV    ::
         :: SCC energy              -134.034760211133 Eh    ::
         :: -> dispersion             -0.100537452739 Eh    ::
         :: repulsion energy           1.506828633496 Eh    ::

    * Orbital Energies and Occupations

         #    Occupation            Energy/Eh            Energy/eV
      -------------------------------------------------------------
         1        2.0000           -0.8796581             -23.9367
       ...           ...                  ...                  ...
       103        2.0000           -0.4516977             -12.2913
       104        2.0000           -0.4443841             -12.0923
       105        2.0000           -0.4408651             -11.9965
       106        2.0000           -0.4379681             -11.9177
       107        2.0000           -0.4328403             -11.7782
       108        2.0000           -0.4219297             -11.4813
       109        2.0000           -0.4117537             -11.2044
       110        2.0000           -0.4093921             -11.1401
       111        2.0000           -0.4067002             -11.0669
       112        2.0000           -0.4035972             -10.9824
       113        2.0000           -0.4000686             -10.8864
       114        2.0000           -0.3950833             -10.7508
       115        2.0000           -0.3870195             -10.5313 (HOMO)
       116                         -0.2700660              -7.3489 (LUMO)
       117                         -0.2657594              -7.2317
       118                         -0.2643362              -7.1930
       119                         -0.2603108              -7.0834
       120                         -0.2600761              -7.0770
       121                         -0.2525713              -6.8728
       122                         -0.2447125              -6.6590
       123                         -0.2341341              -6.3711
       124                         -0.2295922              -6.2475
       125                         -0.2145902              -5.8393
       126                         -0.1982859              -5.3956
       ...                                ...                  ...
       208                          0.7003566              19.0577
      -------------------------------------------------------------
                  HL-Gap            0.1169535 Eh            3.1825 eV

     #   Z          covCN         q      C6AA      Î±(0)
     1   6 C        2.976    -0.027    28.660     8.782
     2   6 C        3.335     0.486    17.299     6.588
     3   9 F        0.791    -0.224    11.485     4.003
     4   9 F        0.792    -0.202    11.251     3.962
     5   9 F        0.791    -0.200    11.231     3.959
     6   6 C        2.923    -0.021    28.527     8.759
     7   6 C        2.920    -0.022    28.565     8.765
     8   6 C        2.918    -0.018    28.450     8.747
     9   6 C        2.927    -0.022    28.566     8.765
    10   6 C        2.972     0.026    27.414     8.588
    11   6 C        3.834     0.048    19.753     6.323
    12   6 C        3.838     0.051    19.700     6.314
    13   6 C        2.965     0.024    27.458     8.595
    14   6 C        2.975    -0.021    28.514     8.759
    15   6 C        3.337     0.490    17.217     6.569
    16   9 F        0.793    -0.205    11.285     3.968
    17   9 F        0.791    -0.205    11.287     3.969
    18   9 F        0.792    -0.218    11.426     3.993
    19   6 C        2.927    -0.019    28.484     8.752
    20   6 C        2.920    -0.020    28.505     8.755
    21   6 C        2.918    -0.016    28.403     8.740
    22   6 C        2.933    -0.026    28.642     8.777
    23   7 N        2.763    -0.129    23.799     7.245
    24   6 C        2.762     0.281    22.241     7.723
    25   6 C        3.175    -0.035    28.446     8.710
    26   6 C        2.939    -0.011    28.279     8.722
    27  16 S        2.345     0.001   141.004    19.986
    28   6 C        2.981     0.025    27.443     8.593
    29   6 C        3.775    -0.111    22.655     6.782
    30   6 C        3.125    -0.064    29.393     8.878
    31   8 O        0.859    -0.413    21.933     6.279
    32   6 C        3.766     0.087    19.171     6.241
    33   6 C        2.686     0.354    20.998     7.499
    34   8 O        1.659    -0.352    19.933     6.027
    35   8 O        0.856    -0.380    21.282     6.185
    36   7 N        2.771    -0.122    23.644     7.222
    37   6 C        2.758     0.280    22.257     7.726
    38   6 C        3.165    -0.034    28.495     8.724
    39   6 C        2.940    -0.034    28.841     8.808
    40  16 S        2.332    -0.015   141.682    20.034
    41   6 C        2.981     0.028    27.369     8.581
    42   6 C        3.776    -0.111    22.645     6.780
    43   6 C        3.123    -0.053    29.120     8.837
    44   8 O        0.859    -0.408    21.836     6.265
    45   1 H        0.926     0.069     2.102     2.267
    46   1 H        0.926     0.058     2.219     2.330
    47   1 H        0.926     0.056     2.243     2.342
    48   1 H        0.926     0.048     2.339     2.391
    49   1 H        0.924     0.069     2.093     2.263
    50   1 H        0.923     0.059     2.213     2.327
    51   1 H        0.926     0.070     2.086     2.259
    52   1 H        0.926     0.060     2.200     2.320
    53   1 H        0.926     0.057     2.230     2.335
    54   1 H        0.926     0.046     2.372     2.409
    55   1 H        0.927     0.065     2.136     2.285
    56   1 H        0.925     0.052     2.290     2.366
    57   1 H        0.925     0.061     2.185     2.312
    58   1 H        0.925     0.060     2.202     2.320
    59   1 H        0.926     0.025     2.654     2.548
    60   1 H        0.923     0.076     2.025     2.226
    61   1 H        0.804     0.350     0.589     1.205
    62   1 H        0.926     0.039     2.461     2.453
    63   1 H        0.925     0.057     2.230     2.335
    64   1 H        0.925     0.060     2.196     2.317
    65   1 H        0.925     0.061     2.183     2.310
    66   1 H        0.926     0.053     2.288     2.365

Wiberg/Mayer (AO) data.
largest (>0.10) Wiberg bond orders for each atom

     #   Z sym  total        # sym  WBO       # sym  WBO       # sym  WBO
 ---------------------------------------------------------------------------
     1   6 C    3.970 --     6 C    1.411    10 C    1.387     2 C    0.951
                             8 C    0.104
     2   6 C    3.822 --     4 F    0.954     5 F    0.951     1 C    0.951
                             3 F    0.928
     3   9 F    1.055 --     2 C    0.928
     4   9 F    1.077 --     2 C    0.954
     5   9 F    1.081 --     2 C    0.951
     6   6 C    3.987 --     7 C    1.446     1 C    1.411    45 H    0.965
                             9 C    0.110
     7   6 C    3.989 --     6 C    1.446     8 C    1.429    46 H    0.969
                            10 C    0.108
     8   6 C    3.990 --     9 C    1.453     7 C    1.429    47 H    0.969
                             1 C    0.104
     9   6 C    3.990 --     8 C    1.453    10 C    1.404    48 H    0.966
                             6 C    0.110
    10   6 C    3.987 --     9 C    1.404     1 C    1.387    11 C    1.000
                             7 C    0.108
    11   6 C    3.968 --    10 C    1.000    36 N    0.958    49 H    0.952
                            12 C    0.946
    12   6 C    3.969 --    13 C    0.997    23 N    0.962    50 H    0.947
                            11 C    0.946
    13   6 C    3.986 --    22 C    1.402    14 C    1.391    12 C    0.997
                            20 C    0.109
    14   6 C    3.971 --    19 C    1.407    13 C    1.391    15 C    0.952
                            21 C    0.105
    15   6 C    3.820 --    14 C    0.952    16 F    0.950    17 F    0.946
                            18 F    0.933
    16   9 F    1.072 --    15 C    0.950
    17   9 F    1.077 --    15 C    0.946
    18   9 F    1.065 --    15 C    0.933
    19   6 C    3.987 --    20 C    1.448    14 C    1.407    51 H    0.965
                            22 C    0.110
    20   6 C    3.988 --    19 C    1.448    21 C    1.429    52 H    0.968
                            13 C    0.109
    21   6 C    3.990 --    22 C    1.454    20 C    1.429    53 H    0.969
                            14 C    0.105
    22   6 C    3.989 --    21 C    1.454    13 C    1.402    54 H    0.966
                            19 C    0.110
    23   7 N    3.430 --    24 C    1.176    32 C    0.981    12 C    0.962
                            31 O    0.182
    24   6 C    3.939 --    31 O    1.712    23 N    1.176    25 C    0.965
    25   6 C    3.980 --    26 C    1.603    30 C    1.222    24 C    0.965
    26   6 C    3.953 --    25 C    1.603    27 S    1.195    55 H    0.968
                            28 C    0.106
    27  16 S    2.617 --    26 C    1.195    28 C    1.166
    28   6 C    3.954 --    30 C    1.604    27 S    1.166    29 C    1.039
                            26 C    0.106
    29   6 C    3.994 --    28 C    1.039    56 H    0.980    57 H    0.971
                            58 H    0.967
    30   6 C    3.980 --    28 C    1.604    25 C    1.222    59 H    0.963
    31   8 O    2.032 --    24 C    1.712    23 N    0.182
    32   6 C    3.968 --    36 N    0.993    23 N    0.981    60 H    0.926
                            33 C    0.905
    33   6 C    3.923 --    35 O    1.784    34 O    1.167    32 C    0.905
    34   8 O    2.232 --    33 C    1.167    61 H    0.851    35 O    0.186
    35   8 O    2.067 --    33 C    1.784    34 O    0.186
    36   7 N    3.435 --    37 C    1.180    32 C    0.993    11 C    0.958
                            44 O    0.182
    37   6 C    3.944 --    44 O    1.707    36 N    1.180    38 C    0.968
    38   6 C    3.982 --    39 C    1.584    43 C    1.231    37 C    0.968
    39   6 C    3.948 --    38 C    1.584    40 S    1.192    62 H    0.969
                            41 C    0.109
    40  16 S    2.614 --    39 C    1.192    41 C    1.156
    41   6 C    3.953 --    43 C    1.614    40 S    1.156    42 C    1.040
                            39 C    0.109
    42   6 C    3.993 --    41 C    1.040    63 H    0.979    65 H    0.970
                            64 H    0.967
    43   6 C    3.984 --    41 C    1.614    38 C    1.231    66 H    0.962
    44   8 O    2.040 --    37 C    1.707    36 N    0.182
    45   1 H    0.995 --     6 C    0.965
    46   1 H    0.996 --     7 C    0.969
    47   1 H    0.996 --     8 C    0.969
    48   1 H    0.997 --     9 C    0.966
    49   1 H    0.995 --    11 C    0.952
    50   1 H    0.996 --    12 C    0.947
    51   1 H    0.995 --    19 C    0.965
    52   1 H    0.995 --    20 C    0.968
    53   1 H    0.996 --    21 C    0.969
    54   1 H    0.998 --    22 C    0.966
    55   1 H    0.995 --    26 C    0.968
    56   1 H    0.997 --    29 C    0.980
    57   1 H    0.996 --    29 C    0.971
    58   1 H    0.996 --    29 C    0.967
    59   1 H    0.999 --    30 C    0.963
    60   1 H    0.994 --    32 C    0.926
    61   1 H    0.877 --    34 O    0.851
    62   1 H    0.998 --    39 C    0.969
    63   1 H    0.996 --    42 C    0.979
    64   1 H    0.996 --    42 C    0.967
    65   1 H    0.996 --    42 C    0.970
    66   1 H    0.997 --    43 C    0.962
 ---------------------------------------------------------------------------

molecular dipole:
                 x           y           z       tot (Debye)
 q only:        0.768       0.228       1.808
   full:        0.995      -0.030       1.557       4.698

           -------------------------------------------------
          | TOTAL ENERGY             -132.524252038387 Eh   |
          | GRADIENT NORM               0.000432320835 Eh/Î± |
          | HOMO-LUMO GAP               3.182466684851 eV   |
           -------------------------------------------------

 * finished run on 2022/03/16 at 23:28:00.674
