   * xtb version 6.3.3 (4ae9cef) compiled by 'conda@95abc7406d43' on 2020-10-14
          program call               : xtb acid_69.xyz --opt --chrg 0 --uhf 0 --gfn 2
          number of atoms            :                    72
          number of electrons        :                   218
          charge                     :                     0
          spin                       :                   0.0

   ID    Z sym.   atoms
    1    6 C      1-22, 24-29, 32, 33, 37-42
    2    7 N      23, 36
    3   16 S      30, 43
    4    8 O      31, 34, 35, 44
    5    1 H      45-72

          :  Hamiltonian                  GFN2-xTB          :
 * total energy  :  -120.0004923 Eh     change       -0.4602128E-08 Eh
 * total energy  :  -120.0168998 Eh     change       -0.1640748E-01 Eh
 * total energy  :  -120.0213138 Eh     change       -0.4413952E-02 Eh
 * total energy  :  -120.0226874 Eh     change       -0.1373690E-02 Eh
 * total energy  :  -120.0235441 Eh     change       -0.8566613E-03 Eh
 * total energy  :  -120.0240942 Eh     change       -0.5501207E-03 Eh
 * total energy  :  -120.0244473 Eh     change       -0.3530618E-03 Eh
 * total energy  :  -120.0247875 Eh     change       -0.3402428E-03 Eh
 * total energy  :  -120.0251542 Eh     change       -0.3666962E-03 Eh
 * total energy  :  -120.0255699 Eh     change       -0.4156423E-03 Eh
 * total energy  :  -120.0322997 Eh     change       -0.3215766E-04 Eh
 * total energy  :  -120.0323272 Eh     change       -0.2748193E-04 Eh
 * total energy  :  -120.0323449 Eh     change       -0.1770100E-04 Eh
 * total energy  :  -120.0323576 Eh     change       -0.1262966E-04 Eh
 * total energy  :  -120.0323674 Eh     change       -0.9840226E-05 Eh
 * total energy  :  -120.0323764 Eh     change       -0.9002871E-05 Eh
 * total energy  :  -120.0323826 Eh     change       -0.6150361E-05 Eh
 * total energy  :  -120.0323876 Eh     change       -0.5062230E-05 Eh
 * total energy  :  -120.0323919 Eh     change       -0.4327513E-05 Eh
   *** GEOMETRY OPTIMIZATION CONVERGED AFTER 66 ITERATIONS ***

 final structure:
================
72
 xtb: 6.3.3 (4ae9cef)
C        -0.23265568622904   -1.63782617347411   -2.38211329098938
C        -0.09498997760080   -2.59536394409101   -3.34511964544987
C         0.79217949380001   -3.67783706720941   -3.17091682076738
C         0.93323272300579   -4.69896995050613   -4.13285611084002
C         1.79557019615837   -5.73864748755044   -3.92427105177269
C         2.55703636297643   -5.80441140733901   -2.74638011890036
C         2.44664402174313   -4.82776708247398   -1.79716239702631
C         1.56513343834753   -3.74267119388817   -1.98266354982407
C         1.40854285610575   -2.73435604424109   -1.01205273511916
C         0.51684978971151   -1.70939918977477   -1.19096936864102
C         0.31163085692795   -0.68318433629258   -0.10567499767393
C         0.69265805636171    0.74032369386635   -0.53989718473388
C         1.26525755916964    1.59125406288950    0.57160073751354
C         0.85133525381190    1.46459849066732    1.87216329053403
C         1.34694792100477    2.31145805716357    2.88254564594659
C         0.92752645158749    2.19550926731122    4.22403572430987
C         1.41985439602648    3.03571316114743    5.18250503514371
C         2.35415182006062    4.02750740110331    4.84433728222390
C         2.77869687238665    4.16494730027982    3.55258103102224
C         2.28877271747273    3.31506287123764    2.53958443610208
C         2.69625208482722    3.42812712095483    1.19448625238108
C         2.20106662064523    2.58966742836242    0.23775752738696
N        -0.58257240973321    1.28113027602667   -0.99861775786993
C        -0.62966442384666    2.38928525791156   -1.78770040661858
C        -1.97563269230107    2.91524872286410   -2.09478011469119
C        -2.39186670915458    4.20249008600273   -1.89769370491589
C        -1.56697148302666    5.24042258471578   -1.21956624880160
C        -3.72032510244765    4.40369822877811   -2.35419878042907
C        -4.27367519557169    3.29643492908309   -2.90375341754483
S        -3.19908062087460    1.95578046280333   -2.87119400679704
O         0.38176376104847    2.89053267742087   -2.23478302355349
C        -1.66105901130394    0.70321571995846   -0.25273942538223
C        -2.17856013358349    1.65415150281897    0.87359376348599
O        -3.12480733587635    1.13706923443236    1.62529921819091
O        -1.76513543554175    2.77211127490603    0.98768710855406
N        -1.10138200613712   -0.54795504257170    0.24378743711431
C        -1.91230520914783   -1.54857296962307    0.63938149996072
C        -1.27871280857279   -2.86810520200620    0.82807432391281
C        -0.41856006789888   -3.27819580674715    1.80711927064577
C         0.04676657671380   -2.43686371242019    2.95013639377113
C        -0.03569290816857   -4.63292477015777    1.63051782396309
C        -0.61097381637385   -5.21148501238132    0.54857484522527
S        -1.65950271186311   -4.13955495032383   -0.28589032511342
O        -3.11100471982807   -1.35302071215917    0.83314377627409
H        -0.92099808354335   -0.81926130948330   -2.52957414190765
H        -0.67458067084018   -2.53879300383864   -4.25464698108168
H         0.34475568512937   -4.64456662412894   -5.03728639869346
H         1.89825812160493   -6.51872652106078   -4.66408897851716
H         3.23159256268207   -6.63483790350615   -2.59822533102537
H         3.02872628826358   -4.87315816930613   -0.88782434419790
H         1.99353495893964   -2.79520562167396   -0.10473019035666
H         0.88629012332727   -0.97540942962080    0.77740320844187
H         1.38186741851818    0.73502364357218   -1.39021972700178
H         0.12290967783946    0.71901900451654    2.15957776316256
H         0.20374582496884    1.43411370063555    4.47960932849574
H         1.09249162607779    2.94471000626999    6.20787777078706
H         2.73135589297585    4.68344226846652    5.61551653744705
H         3.49448453216038    4.92978511714982    3.28629045409021
H         3.40778699149892    4.19681732496313    0.92980956812397
H         2.50105798387835    2.69548215070559   -0.79318841556109
H        -0.54124755536255    5.19923425812136   -1.57771963541034
H        -1.55459522859412    5.04340980841532   -0.14736393835439
H        -1.97763594532180    6.23087840526712   -1.39614434276558
H        -4.23139105230985    5.34657988997994   -2.27615790662730
H        -5.24643187504576    3.17271285306194   -3.33606742085842
H        -2.53310102131859    0.48132951778219   -0.89222174232010
H        -3.34579570776819    0.19328686402672    1.36729137524914
H         1.11415477571023   -2.22701445821058    2.86893093076783
H        -0.11453070973460   -2.96743781421930    3.88712948786621
H        -0.49728184579264   -1.49645462580866    2.98982235329641
H         0.64101568832188   -5.14157334150023    2.29340630218311
H        -0.48917982107661   -6.21200874803775    0.18487147460066

          :  Hamiltonian                  GFN2-xTB          :
         :: total energy            -120.032391943158 Eh    ::
         :: gradient norm              0.000581725958 Eh/a0 ::
         :: HOMO-LUMO gap              2.826581856404 eV    ::
         :: SCC energy              -121.864726640033 Eh    ::
         :: -> dispersion             -0.113487385700 Eh    ::
         :: repulsion energy           1.828941636963 Eh    ::

    * Orbital Energies and Occupations

         #    Occupation            Energy/Eh            Energy/eV
      -------------------------------------------------------------
         1        2.0000           -0.7515495             -20.4507
       ...           ...                  ...                  ...
        97        2.0000           -0.4268026             -11.6139
        98        2.0000           -0.4180109             -11.3747
        99        2.0000           -0.4162400             -11.3265
       100        2.0000           -0.4146282             -11.2826
       101        2.0000           -0.4092543             -11.1364
       102        2.0000           -0.4065894             -11.0639
       103        2.0000           -0.4060704             -11.0497
       104        2.0000           -0.3997457             -10.8776
       105        2.0000           -0.3970156             -10.8033
       106        2.0000           -0.3938288             -10.7166
       107        2.0000           -0.3911074             -10.6426
       108        2.0000           -0.3860546             -10.5051
       109        2.0000           -0.3798285             -10.3357 (HOMO)
       110                         -0.2759535              -7.5091 (LUMO)
       111                         -0.2707685              -7.3680
       112                         -0.2621017              -7.1321
       113                         -0.2575954              -7.0095
       114                         -0.2518741              -6.8538
       115                         -0.2451715              -6.6715
       116                         -0.2444132              -6.6508
       117                         -0.2312607              -6.2929
       118                         -0.2196309              -5.9765
       119                         -0.2136347              -5.8133
       120                         -0.2042930              -5.5591
       ...                                ...                  ...
       214                          0.6957035              18.9311
      -------------------------------------------------------------
                  HL-Gap            0.1038750 Eh            2.8266 eV

     #   Z          covCN         q      C6AA      Î±(0)
     1   6 C        2.918    -0.034    28.841     8.807
     2   6 C        2.918    -0.031    28.780     8.797
     3   6 C        2.988     0.015    27.669     8.629
     4   6 C        2.918    -0.032    28.809     8.802
     5   6 C        2.916    -0.028    28.695     8.784
     6   6 C        2.916    -0.028    28.695     8.784
     7   6 C        2.918    -0.034    28.858     8.809
     8   6 C        2.987     0.015    27.670     8.629
     9   6 C        2.923    -0.042    29.040     8.837
    10   6 C        2.969    -0.006    28.162     8.705
    11   6 C        3.822     0.034    19.979     6.361
    12   6 C        3.835     0.044    19.806     6.332
    13   6 C        2.968    -0.000    28.036     8.685
    14   6 C        2.922    -0.037    28.916     8.818
    15   6 C        2.987     0.017    27.631     8.623
    16   6 C        2.919    -0.032    28.804     8.801
    17   6 C        2.916    -0.029    28.714     8.787
    18   6 C        2.916    -0.029    28.716     8.787
    19   6 C        2.918    -0.033    28.830     8.805
    20   6 C        2.987     0.016    27.656     8.627
    21   6 C        2.917    -0.032    28.795     8.799
    22   6 C        2.920    -0.031    28.772     8.796
    23   7 N        2.770    -0.112    23.436     7.190
    24   6 C        2.776     0.279    22.272     7.729
    25   6 C        2.999    -0.027    28.655     8.781
    26   6 C        3.145     0.022    27.269     8.544
    27   6 C        3.756    -0.111    22.686     6.791
    28   6 C        3.123    -0.048    29.007     8.820
    29   6 C        2.933    -0.016    28.411     8.742
    30  16 S        2.312    -0.055   143.337    20.150
    31   8 O        0.860    -0.422    22.133     6.308
    32   6 C        3.761     0.080    19.297     6.262
    33   6 C        2.683     0.353    21.011     7.501
    34   8 O        1.654    -0.371    20.299     6.082
    35   8 O        0.856    -0.372    21.131     6.163
    36   7 N        2.767    -0.110    23.403     7.185
    37   6 C        2.793     0.272    22.409     7.754
    38   6 C        3.003    -0.024    28.599     8.772
    39   6 C        3.142     0.003    27.714     8.614
    40   6 C        3.755    -0.101    22.484     6.761
    41   6 C        3.121    -0.053    29.118     8.837
    42   6 C        2.936    -0.022    28.546     8.762
    43  16 S        2.320     0.014   140.497    19.950
    44   8 O        0.860    -0.455    22.806     6.403
    45   1 H        0.926     0.036     2.496     2.471
    46   1 H        0.926     0.043     2.407     2.426
    47   1 H        0.926     0.038     2.476     2.461
    48   1 H        0.926     0.036     2.502     2.474
    49   1 H        0.926     0.035     2.516     2.481
    50   1 H        0.926     0.033     2.544     2.494
    51   1 H        0.925     0.029     2.598     2.520
    52   1 H        0.924     0.060     2.196     2.317
    53   1 H        0.924     0.073     2.049     2.238
    54   1 H        0.925     0.020     2.740     2.589
    55   1 H        0.926     0.030     2.585     2.514
    56   1 H        0.926     0.032     2.554     2.499
    57   1 H        0.926     0.032     2.555     2.499
    58   1 H        0.926     0.034     2.528     2.486
    59   1 H        0.926     0.040     2.449     2.447
    60   1 H        0.926     0.055     2.253     2.347
    61   1 H        0.925     0.064     2.148     2.292
    62   1 H        0.924     0.072     2.066     2.248
    63   1 H        0.925     0.048     2.344     2.394
    64   1 H        0.926     0.045     2.378     2.411
    65   1 H        0.926     0.050     2.322     2.383
    66   1 H        0.923     0.071     2.075     2.253
    67   1 H        0.799     0.366     0.553     1.168
    68   1 H        0.924     0.049     2.328     2.386
    69   1 H        0.925     0.059     2.205     2.322
    70   1 H        0.925     0.039     2.469     2.457
    71   1 H        0.926     0.048     2.345     2.395
    72   1 H        0.926     0.054     2.271     2.357

Wiberg/Mayer (AO) data.
largest (>0.10) Wiberg bond orders for each atom

     #   Z sym  total        # sym  WBO       # sym  WBO       # sym  WBO
 ---------------------------------------------------------------------------
     1   6 C    3.991 --     2 C    1.563    10 C    1.295    45 H    0.967
     2   6 C    3.991 --     1 C    1.563     3 C    1.277    46 H    0.967
                             9 C    0.114
     3   6 C    3.990 --     4 C    1.281     2 C    1.277     8 C    1.250
     4   6 C    3.991 --     5 C    1.557     3 C    1.281    47 H    0.968
                             7 C    0.118
     5   6 C    3.989 --     4 C    1.557     6 C    1.320    48 H    0.971
     6   6 C    3.992 --     7 C    1.559     5 C    1.320    49 H    0.971
     7   6 C    3.989 --     6 C    1.559     8 C    1.278    50 H    0.968
                             4 C    0.118
     8   6 C    3.990 --     9 C    1.283     7 C    1.278     3 C    1.250
     9   6 C    3.989 --    10 C    1.523     8 C    1.283    51 H    0.965
                             2 C    0.114
    10   6 C    3.985 --     9 C    1.523     1 C    1.295    11 C    0.986
    11   6 C    3.958 --    10 C    0.986    12 C    0.965    52 H    0.952
                            36 N    0.951
    12   6 C    3.960 --    13 C    0.981    11 C    0.965    53 H    0.955
                            23 N    0.951
    13   6 C    3.983 --    14 C    1.528    22 C    1.295    12 C    0.981
    14   6 C    3.991 --    13 C    1.528    15 C    1.282    54 H    0.961
                            21 C    0.115
    15   6 C    3.990 --    14 C    1.282    16 C    1.279    20 C    1.251
    16   6 C    3.990 --    17 C    1.558    15 C    1.279    55 H    0.968
                            19 C    0.118
    17   6 C    3.992 --    16 C    1.558    18 C    1.320    56 H    0.971
    18   6 C    3.990 --    19 C    1.557    17 C    1.320    57 H    0.971
    19   6 C    3.992 --    18 C    1.557    20 C    1.281    58 H    0.968
                            16 C    0.118
    20   6 C    3.990 --    19 C    1.281    21 C    1.278    15 C    1.251
    21   6 C    3.991 --    22 C    1.562    20 C    1.278    59 H    0.967
                            14 C    0.115
    22   6 C    3.988 --    21 C    1.562    13 C    1.295    60 H    0.965
    23   7 N    3.459 --    24 C    1.191    32 C    1.003    12 C    0.951
                            31 O    0.181
    24   6 C    3.949 --    31 O    1.676    23 N    1.191    25 C    0.994
    25   6 C    3.935 --    26 C    1.554    30 S    1.129    24 C    0.994
                            29 C    0.116
    26   6 C    3.985 --    25 C    1.554    28 C    1.242    27 C    1.028
    27   6 C    3.993 --    26 C    1.028    63 H    0.983    61 H    0.973
                            62 H    0.959
    28   6 C    3.987 --    29 C    1.638    26 C    1.242    64 H    0.963
    29   6 C    3.948 --    28 C    1.638    30 S    1.182    65 H    0.969
                            25 C    0.116
    30  16 S    2.611 --    29 C    1.182    25 C    1.129
    31   8 O    2.017 --    24 C    1.676    23 N    0.181
    32   6 C    3.958 --    23 N    1.003    36 N    0.965    66 H    0.929
                            33 C    0.887
    33   6 C    3.930 --    35 O    1.774    34 O    1.208    32 C    0.887
    34   8 O    2.236 --    33 C    1.208    67 H    0.759    35 O    0.183
    35   8 O    2.079 --    33 C    1.774    34 O    0.183
    36   7 N    3.498 --    37 C    1.265    32 C    0.965    11 C    0.951
                            44 O    0.186
    37   6 C    3.947 --    44 O    1.590    36 N    1.265    38 C    0.993
    38   6 C    3.940 --    39 C    1.554    43 S    1.146    37 C    0.993
                            42 C    0.110
    39   6 C    3.983 --    38 C    1.554    41 C    1.247    40 C    1.024
    40   6 C    3.996 --    39 C    1.024    70 H    0.983    69 H    0.971
                            68 H    0.968
    41   6 C    3.985 --    42 C    1.632    39 C    1.247    71 H    0.964
    42   6 C    3.950 --    41 C    1.632    43 S    1.202    72 H    0.969
                            38 C    0.110
    43  16 S    2.641 --    42 C    1.202    38 C    1.146
    44   8 O    2.022 --    37 C    1.590    36 N    0.186
    45   1 H    0.998 --     1 C    0.967
    46   1 H    0.997 --     2 C    0.967
    47   1 H    0.998 --     4 C    0.968
    48   1 H    0.998 --     5 C    0.971
    49   1 H    0.998 --     6 C    0.971
    50   1 H    0.998 --     7 C    0.968
    51   1 H    0.999 --     9 C    0.965
    52   1 H    0.996 --    11 C    0.952
    53   1 H    0.993 --    12 C    0.955
    54   1 H    0.999 --    14 C    0.961
    55   1 H    0.999 --    16 C    0.968
    56   1 H    0.998 --    17 C    0.971
    57   1 H    0.999 --    18 C    0.971
    58   1 H    0.998 --    19 C    0.968
    59   1 H    0.997 --    21 C    0.967
    60   1 H    0.996 --    22 C    0.965
    61   1 H    0.996 --    27 C    0.973
    62   1 H    0.995 --    27 C    0.959
    63   1 H    0.998 --    27 C    0.983
    64   1 H    0.997 --    28 C    0.963
    65   1 H    0.997 --    29 C    0.969
    66   1 H    0.994 --    32 C    0.929
    67   1 H    0.866 --    34 O    0.759
    68   1 H    0.997 --    40 C    0.968
    69   1 H    0.996 --    40 C    0.971
    70   1 H    0.998 --    40 C    0.983
    71   1 H    0.997 --    41 C    0.964
    72   1 H    0.996 --    42 C    0.969
 ---------------------------------------------------------------------------

molecular dipole:
                 x           y           z       tot (Debye)
 q only:        1.159      -1.938       0.160
   full:        1.049      -1.966       0.285       5.711

           -------------------------------------------------
          | TOTAL ENERGY             -120.032391943158 Eh   |
          | GRADIENT NORM               0.000581725958 Eh/Î± |
          | HOMO-LUMO GAP               2.826581856404 eV   |
           -------------------------------------------------

 * finished run on 2022/03/17 at 01:59:48.339
