   * xtb version 6.3.3 (4ae9cef) compiled by 'conda@95abc7406d43' on 2020-10-14
          program call               : xtb acid_97.xyz --opt --chrg 0 --uhf 0 --gfn 2
          number of atoms            :                    60
          number of electrons        :                   230
          charge                     :                     0
          spin                       :                   0.0

   ID    Z sym.   atoms
    1    6 C      1, 2, 6-15, 19-22, 24-26, 29, 30, 32, 33, 37-39, 42, 43
    2    9 F      3-5, 16-18
    3    7 N      23, 36
    4   35 Br     27, 40
    5   16 S      28, 41
    6    8 O      31, 34, 35, 44
    7    1 H      45-60

          :  Hamiltonian                  GFN2-xTB          :
 * total energy  :  -133.3118772 Eh     change       -0.2033886E-08 Eh
 * total energy  :  -133.3290035 Eh     change       -0.1712634E-01 Eh
 * total energy  :  -133.3345216 Eh     change       -0.5518149E-02 Eh
 * total energy  :  -133.3359624 Eh     change       -0.1440737E-02 Eh
 * total energy  :  -133.3368472 Eh     change       -0.8848032E-03 Eh
 * total energy  :  -133.3372822 Eh     change       -0.4349720E-03 Eh
 * total energy  :  -133.3375887 Eh     change       -0.3065485E-03 Eh
 * total energy  :  -133.3378143 Eh     change       -0.2255891E-03 Eh
 * total energy  :  -133.3379434 Eh     change       -0.1290966E-03 Eh
 * total energy  :  -133.3380267 Eh     change       -0.8325997E-04 Eh
 * total energy  :  -133.3443239 Eh     change       -0.1680554E-04 Eh
 * total energy  :  -133.3443458 Eh     change       -0.2189178E-04 Eh
 * total energy  :  -133.3443649 Eh     change       -0.1912788E-04 Eh
 * total energy  :  -133.3443777 Eh     change       -0.1280088E-04 Eh
 * total energy  :  -133.3443867 Eh     change       -0.9013392E-05 Eh
 * total energy  :  -133.3443935 Eh     change       -0.6796429E-05 Eh
 * total energy  :  -133.3443992 Eh     change       -0.5713127E-05 Eh
 * total energy  :  -133.3444048 Eh     change       -0.5530156E-05 Eh
 * total energy  :  -133.3444096 Eh     change       -0.4859633E-05 Eh
   *** GEOMETRY OPTIMIZATION CONVERGED AFTER 61 ITERATIONS ***

 final structure:
================
60
 xtb: 6.3.3 (4ae9cef)
C         1.99340899708519   -2.33029353632226    0.24938875302365
C         1.66766516518065   -2.96537598374081   -1.07643906741754
F         2.23405063022030   -4.16708912413344   -1.22822873050532
F         2.06812627175223   -2.23841849385945   -2.13823019584263
F         0.34387888768594   -3.15553326199177   -1.24688514666451
C         2.82437302494599   -3.02740698716828    1.12127749131449
C         3.11644966842469   -2.51477904859294    2.37101335211154
C         2.56007970359486   -1.31019018689938    2.76654350123304
C         1.74057157041797   -0.61233061841623    1.89959519940561
C         1.46097959427873   -1.09367521950814    0.62361937933720
C         0.56200585198364   -0.27636691471442   -0.27091022868950
C        -0.88333695438777   -0.26391367678832    0.28810045305619
C        -1.77346577175782   -1.34756742610810   -0.26564723051702
C        -2.37492084904017   -1.34440070164789   -1.52677285004438
C        -2.26712679188874   -0.20867726472735   -2.50794639460139
F        -2.54223802426599   -0.59274512657312   -3.76385640114799
F        -1.05035217269194    0.36519811923908   -2.58158941572881
F        -3.12464186697695    0.79549612720478   -2.24317067575222
C        -3.17834061104804   -2.41148731743041   -1.91978504106942
C        -3.37238407165726   -3.49607201995123   -1.08847791032979
C        -2.76678226001372   -3.51725345598983    0.15459971084457
C        -1.98403138549837   -2.45277998140764    0.55368512299644
N        -1.35369203904948    1.09066272666200    0.04354713282071
C        -2.59290371622314    1.43314477060905    0.50457744836134
C        -2.92351953497009    2.87785236491457    0.40678542682316
C        -3.21468925079456    3.63631262552252    1.50518574944386
Br       -3.11028112682558    3.08283738875375    3.28890057640425
S        -3.57529950350451    5.27579171210439    1.11151039248672
C        -3.37426493450468    4.92955087816768   -0.55658968162096
C        -3.02615833122440    3.63922071722482   -0.78477187520040
O        -3.35011471832149    0.60143485345214    0.95368687754287
C        -0.25764151248266    1.99633182297397   -0.20282028095681
C        -0.07943269570658    3.03758621301191    0.93023572232275
O         0.20587228319461    2.43163035617466    2.08490496821610
O        -0.31216771938929    4.20504686884291    0.81611766527373
N         0.90564673603881    1.13627532366825   -0.27832081090156
C         2.10812803837789    1.72750436664016   -0.08907116336353
C         3.30892987960002    0.88360622750975   -0.28499879098173
C         4.33793446226784    0.81371188838758    0.61269136602599
Br        4.40045571224867    1.60325341480541    2.30318519209145
S         5.62677450341199   -0.19884997412380    0.06764338260007
C         4.79758552033884   -0.48024287605113   -1.41191495432348
C         3.59739952235606    0.14727029464721   -1.46273409051438
O         2.17537474879600    2.90912191694366    0.19720300688272
H         3.23890752806693   -3.97556885541399    0.81700953186356
H         3.76849917257234   -3.05979583710214    3.03457714895069
H         2.76918419273983   -0.90688424711281    3.74479539672263
H         1.32164995184460    0.33366313137910    2.20966569733669
H         0.57005801864660   -0.65673124088794   -1.29594586098149
H        -0.84148717452997   -0.41507532944424    1.37759424948580
H        -3.65121891061310   -2.38878256899051   -2.88930001905689
H        -3.99619382439235   -4.31450196196666   -1.41108802033610
H        -2.90974402950634   -4.35628997797408    0.81760047874089
H        -1.52563823998681   -2.46943060370635    1.53111792604160
H        -3.52345726635041    5.70936601315648   -1.27594524050508
H        -2.87271740346103    3.22494775949616   -1.76298339505419
H        -0.39263421108861    2.55353066630398   -1.14312263238119
H         0.30165485340104    3.08435243889550    2.79804779035433
H         5.25346605566464   -1.09138053941308   -2.16440849036457
H         2.94176735705299    0.11518737149332   -2.31245549523945

          :  Hamiltonian                  GFN2-xTB          :
         :: total energy            -133.344409616745 Eh    ::
         :: gradient norm              0.000412158533 Eh/a0 ::
         :: HOMO-LUMO gap              2.827926280282 eV    ::
         :: SCC energy              -134.733098205256 Eh    ::
         :: -> dispersion             -0.108461280274 Eh    ::
         :: repulsion energy           1.384569001303 Eh    ::

    * Orbital Energies and Occupations

         #    Occupation            Energy/Eh            Energy/eV
      -------------------------------------------------------------
         1        2.0000           -0.9012956             -24.5255
       ...           ...                  ...                  ...
       103        2.0000           -0.4477602             -12.1842
       104        2.0000           -0.4466297             -12.1534
       105        2.0000           -0.4440997             -12.0846
       106        2.0000           -0.4379932             -11.9184
       107        2.0000           -0.4355759             -11.8526
       108        2.0000           -0.4344825             -11.8229
       109        2.0000           -0.4304632             -11.7135
       110        2.0000           -0.4245747             -11.5533
       111        2.0000           -0.4206716             -11.4471
       112        2.0000           -0.4167520             -11.3404
       113        2.0000           -0.4152173             -11.2986
       114        2.0000           -0.4119282             -11.2091
       115        2.0000           -0.3996027             -10.8737 (HOMO)
       116                         -0.2956783              -8.0458 (LUMO)
       117                         -0.2884214              -7.8483
       118                         -0.2815344              -7.6609
       119                         -0.2731900              -7.4339
       120                         -0.2716227              -7.3912
       121                         -0.2624564              -7.1418
       122                         -0.2613039              -7.1104
       123                         -0.2542676              -6.9190
       124                         -0.2473044              -6.7295
       125                         -0.2455106              -6.6807
       126                         -0.2273665              -6.1870
       ...                                ...                  ...
       212                          0.6725428              18.3008
      -------------------------------------------------------------
                  HL-Gap            0.1039244 Eh            2.8279 eV

     #   Z          covCN         q      C6AA      Î±(0)
     1   6 C        2.974    -0.037    28.920     8.821
     2   6 C        3.335     0.484    17.320     6.593
     3   9 F        0.792    -0.198    11.210     3.955
     4   9 F        0.791    -0.212    11.364     3.982
     5   9 F        0.791    -0.216    11.400     3.988
     6   6 C        2.923    -0.024    28.614     8.772
     7   6 C        2.919    -0.022    28.562     8.764
     8   6 C        2.918    -0.017    28.441     8.745
     9   6 C        2.926    -0.032    28.807     8.802
    10   6 C        2.971     0.005    27.897     8.664
    11   6 C        3.812     0.040    19.894     6.349
    12   6 C        3.835     0.053    19.660     6.308
    13   6 C        2.966     0.023    27.492     8.600
    14   6 C        2.974    -0.024    28.610     8.774
    15   6 C        3.337     0.488    17.237     6.573
    16   9 F        0.793    -0.204    11.273     3.966
    17   9 F        0.792    -0.217    11.417     3.991
    18   9 F        0.791    -0.210    11.341     3.978
    19   6 C        2.927    -0.019    28.483     8.752
    20   6 C        2.920    -0.019    28.475     8.751
    21   6 C        2.918    -0.014    28.353     8.732
    22   6 C        2.931    -0.022    28.550     8.763
    23   7 N        2.759    -0.125    23.704     7.231
    24   6 C        2.765     0.283    22.207     7.717
    25   6 C        3.200    -0.041    28.424     8.688
    26   6 C        2.944     0.077    26.280     8.408
    27  35 Br       1.142    -0.117   188.270    22.124
    28  16 S        2.448     0.058   138.712    19.823
    29   6 C        2.940    -0.022    28.554     8.764
    30   6 C        3.119    -0.043    28.900     8.805
    31   8 O        0.859    -0.408    21.839     6.266
    32   6 C        3.767     0.097    19.010     6.214
    33   6 C        2.687     0.368    20.757     7.456
    34   8 O        1.659    -0.371    20.294     6.081
    35   8 O        0.856    -0.384    21.371     6.198
    36   7 N        2.766    -0.104    23.288     7.167
    37   6 C        2.771     0.280    22.261     7.727
    38   6 C        3.198    -0.037    28.366     8.681
    39   6 C        2.939     0.076    26.292     8.410
    40  35 Br       1.142    -0.101   187.820    22.097
    41  16 S        2.450     0.041   139.387    19.871
    42   6 C        2.938    -0.028    28.688     8.784
    43   6 C        3.115    -0.048    29.012     8.823
    44   8 O        0.861    -0.409    21.855     6.268
    45   1 H        0.926     0.070     2.090     2.261
    46   1 H        0.926     0.064     2.149     2.293
    47   1 H        0.926     0.071     2.070     2.250
    48   1 H        0.926     0.074     2.044     2.236
    49   1 H        0.924     0.068     2.102     2.268
    50   1 H        0.923     0.066     2.136     2.286
    51   1 H        0.926     0.069     2.091     2.262
    52   1 H        0.926     0.062     2.179     2.308
    53   1 H        0.926     0.061     2.190     2.314
    54   1 H        0.926     0.051     2.303     2.373
    55   1 H        0.926     0.066     2.134     2.284
    56   1 H        0.926     0.062     2.177     2.307
    57   1 H        0.923     0.079     1.993     2.208
    58   1 H        0.804     0.350     0.587     1.204
    59   1 H        0.926     0.070     2.083     2.257
    60   1 H        0.926     0.068     2.113     2.273

Wiberg/Mayer (AO) data.
largest (>0.10) Wiberg bond orders for each atom

     #   Z sym  total        # sym  WBO       # sym  WBO       # sym  WBO
 ---------------------------------------------------------------------------
     1   6 C    3.968 --     6 C    1.409    10 C    1.385     2 C    0.949
                             8 C    0.104
     2   6 C    3.820 --     3 F    0.959     1 C    0.949     4 F    0.937
                             5 F    0.937
     3   9 F    1.082 --     2 C    0.959
     4   9 F    1.068 --     2 C    0.937
     5   9 F    1.064 --     2 C    0.937
     6   6 C    3.987 --     7 C    1.445     1 C    1.409    45 H    0.965
                             9 C    0.108
     7   6 C    3.988 --     6 C    1.445     8 C    1.430    46 H    0.968
                            10 C    0.107
     8   6 C    3.988 --     9 C    1.447     7 C    1.430    47 H    0.966
                             1 C    0.104
     9   6 C    3.986 --     8 C    1.447    10 C    1.408    48 H    0.959
                             6 C    0.108
    10   6 C    3.986 --     9 C    1.408     1 C    1.385    11 C    0.995
                             7 C    0.107
    11   6 C    3.968 --    10 C    0.995    36 N    0.965    49 H    0.952
                            12 C    0.944
    12   6 C    3.967 --    13 C    0.995    23 N    0.962    50 H    0.948
                            11 C    0.944
    13   6 C    3.986 --    22 C    1.406    14 C    1.388    12 C    0.995
                            20 C    0.108
    14   6 C    3.969 --    19 C    1.408    13 C    1.388    15 C    0.952
                            21 C    0.105
    15   6 C    3.819 --    14 C    0.952    16 F    0.952    18 F    0.939
                            17 F    0.937
    16   9 F    1.074 --    15 C    0.952
    17   9 F    1.063 --    15 C    0.937
    18   9 F    1.071 --    15 C    0.939
    19   6 C    3.987 --    20 C    1.447    14 C    1.408    51 H    0.965
                            22 C    0.109
    20   6 C    3.988 --    19 C    1.447    21 C    1.431    52 H    0.968
                            13 C    0.108
    21   6 C    3.989 --    22 C    1.450    20 C    1.431    53 H    0.968
                            14 C    0.105
    22   6 C    3.988 --    21 C    1.450    13 C    1.406    54 H    0.966
                            19 C    0.109
    23   7 N    3.439 --    24 C    1.183    32 C    0.982    12 C    0.962
                            31 O    0.184
    24   6 C    3.947 --    31 O    1.704    23 N    1.183    25 C    0.971
    25   6 C    3.979 --    26 C    1.528    30 C    1.236    24 C    0.971
    26   6 C    3.911 --    25 C    1.528    28 S    1.186    27 Br   1.018
                            29 C    0.101
    27  35 Br   1.171 --    26 C    1.018
    28  16 S    2.661 --    29 C    1.195    26 C    1.186
    29   6 C    3.950 --    30 C    1.633    28 S    1.195    55 H    0.968
                            26 C    0.101
    30   6 C    3.985 --    29 C    1.633    25 C    1.236    56 H    0.960
    31   8 O    2.038 --    24 C    1.704    23 N    0.184
    32   6 C    3.958 --    23 N    0.982    36 N    0.977    57 H    0.944
                            33 C    0.904
    33   6 C    3.926 --    35 O    1.775    34 O    1.138    32 C    0.904
    34   8 O    2.203 --    33 C    1.138    58 H    0.852    35 O    0.172
    35   8 O    2.067 --    33 C    1.775    34 O    0.172
    36   7 N    3.474 --    37 C    1.222    32 C    0.977    11 C    0.965
                            44 O    0.188
    37   6 C    3.949 --    44 O    1.653    36 N    1.222    38 C    0.980
    38   6 C    3.979 --    39 C    1.522    43 C    1.232    37 C    0.980
    39   6 C    3.913 --    38 C    1.522    41 S    1.182    40 Br   1.029
                            42 C    0.101
    40  35 Br   1.198 --    39 C    1.029
    41  16 S    2.653 --    42 C    1.189    39 C    1.182
    42   6 C    3.948 --    43 C    1.638    41 S    1.189    59 H    0.967
                            39 C    0.101
    43   6 C    3.985 --    42 C    1.638    38 C    1.232    60 H    0.959
    44   8 O    2.068 --    37 C    1.653    36 N    0.188
    45   1 H    0.995 --     6 C    0.965
    46   1 H    0.995 --     7 C    0.968
    47   1 H    0.994 --     8 C    0.966
    48   1 H    0.994 --     9 C    0.959
    49   1 H    0.995 --    11 C    0.952
    50   1 H    0.995 --    12 C    0.948
    51   1 H    0.995 --    19 C    0.965
    52   1 H    0.995 --    20 C    0.968
    53   1 H    0.995 --    21 C    0.968
    54   1 H    0.997 --    22 C    0.966
    55   1 H    0.995 --    29 C    0.968
    56   1 H    0.996 --    30 C    0.960
    57   1 H    0.993 --    32 C    0.944
    58   1 H    0.877 --    34 O    0.852
    59   1 H    0.994 --    42 C    0.967
    60   1 H    0.995 --    43 C    0.959
 ---------------------------------------------------------------------------

molecular dipole:
                 x           y           z       tot (Debye)
 q only:        1.109      -2.195       0.917
   full:        1.008      -2.224      -0.527       6.349

           -------------------------------------------------
          | TOTAL ENERGY             -133.344409616745 Eh   |
          | GRADIENT NORM               0.000412158533 Eh/Î± |
          | HOMO-LUMO GAP               2.827926280282 eV   |
           -------------------------------------------------

 * finished run on 2022/03/17 at 02:18:12.372
