   * xtb version 6.3.3 (4ae9cef) compiled by 'conda@95abc7406d43' on 2020-10-14
          program call               : xtb alk_5.xyz --opt --chrg 0 --uhf 0 --gfn 2
          number of atoms            :                    29
          number of electrons        :                    80
          charge                     :                     0
          spin                       :                   0.0

   ID    Z sym.   atoms
    1    6 C      1-7, 9, 10, 12, 13, 15
    2    8 O      8, 11, 14
    3    1 H      16-29

          :  Hamiltonian                  GFN2-xTB          :
 * total energy  :   -45.0018295 Eh     change       -0.2518945E-09 Eh
 * total energy  :   -45.0083302 Eh     change       -0.6500706E-02 Eh
 * total energy  :   -45.0092907 Eh     change       -0.9604421E-03 Eh
 * total energy  :   -45.0095342 Eh     change       -0.2434915E-03 Eh
 * total energy  :   -45.0097679 Eh     change       -0.2337378E-03 Eh
 * total energy  :   -45.0098707 Eh     change       -0.1027738E-03 Eh
 * total energy  :   -45.0099700 Eh     change       -0.9934025E-04 Eh
 * total energy  :   -45.0100267 Eh     change       -0.5671318E-04 Eh
 * total energy  :   -45.0100769 Eh     change       -0.5016383E-04 Eh
 * total energy  :   -45.0101275 Eh     change       -0.5061486E-04 Eh
 * total energy  :   -45.0101784 Eh     change       -0.5091001E-04 Eh
 * total energy  :   -45.0102235 Eh     change       -0.4507728E-04 Eh
 * total energy  :   -45.0102521 Eh     change       -0.2858296E-04 Eh
 * total energy  :   -45.0103001 Eh     change       -0.4800700E-04 Eh
 * total energy  :   -45.0103180 Eh     change       -0.1792214E-04 Eh
 * total energy  :   -45.0103267 Eh     change       -0.8674200E-05 Eh
 * total energy  :   -45.0103319 Eh     change       -0.5183681E-05 Eh
 * total energy  :   -45.0103363 Eh     change       -0.4444500E-05 Eh
   *** GEOMETRY OPTIMIZATION CONVERGED AFTER 18 ITERATIONS ***

 final structure:
================
29
 xtb: 6.3.3 (4ae9cef)
C         3.42760377281548    1.22789496949132   -0.31573881664751
C         3.82575671247473    0.41082435733654    0.63991442401925
C         2.99414437407478   -0.66718540444963    1.28017449438376
C         1.61176676410547   -0.77044396077655    0.70614121520309
C         1.32317790988913   -1.65453103383959   -0.32061401293366
C         0.05618001982992   -1.72964054291408   -0.87535594865423
C        -0.96357945792736   -0.90693408126509   -0.41558065923061
O        -2.24873390603275   -0.91279685485973   -0.85877797787283
C        -2.56515270843676   -1.70393507778418   -1.97714788336100
C        -0.66465120362372    0.00148007743339    0.61063043985058
O        -1.66573333062898    0.83953336318159    1.09691994439660
C        -2.19823212771604    1.73238625935886    0.24208892168979
C        -3.36237094640735    2.43654138880487    0.88644240762079
O        -1.78209959668317    1.93799971930728   -0.86372139147327
C         0.59801074622406    0.06510183756107    1.16137988860423
H         4.08242019159045    1.97842491778604   -0.72451731493798
H         2.43357650499388    1.18424578685029   -0.72840252945209
H         4.83230609627433    0.48246081733954    1.03377020532851
H         3.51830245697478   -1.62004098586305    1.16127294276145
H         2.93581726440360   -0.45943930867912    2.35304714944384
H         2.09994468233977   -2.30111829858714   -0.70191830520906
H        -0.12749112286048   -2.43512178913871   -1.66989561140694
H        -3.61252155584445   -1.49993456935981   -2.19318221626120
H        -1.95660814473173   -1.42935046885424   -2.84380382674562
H        -2.44042179901427   -2.77052736834915   -1.76268401846992
H        -4.18214737456130    1.72916566832846    0.98983921794036
H        -3.67440588640154    3.27077346086734    0.26636671061411
H        -3.08236167970186    2.78194105606575    1.87790723446093
H         0.78750334458109    0.78222506500752    1.94544231633903

          :  Hamiltonian                  GFN2-xTB          :
         :: total energy             -45.010336303467 Eh    ::
         :: gradient norm              0.000691600438 Eh/a0 ::
         :: HOMO-LUMO gap              3.938971145950 eV    ::
         :: SCC energy               -45.637760836357 Eh    ::
         :: -> dispersion             -0.026233950555 Eh    ::
         :: repulsion energy           0.627261484776 Eh    ::

    * Orbital Energies and Occupations

         #    Occupation            Energy/Eh            Energy/eV
      -------------------------------------------------------------
         1        2.0000           -0.7370009             -20.0548
       ...           ...                  ...                  ...
        28        2.0000           -0.4801545             -13.0657
        29        2.0000           -0.4747852             -12.9196
        30        2.0000           -0.4723576             -12.8535
        31        2.0000           -0.4631973             -12.6042
        32        2.0000           -0.4558783             -12.4051
        33        2.0000           -0.4462637             -12.1435
        34        2.0000           -0.4423800             -12.0378
        35        2.0000           -0.4307153             -11.7204
        36        2.0000           -0.4235849             -11.5263
        37        2.0000           -0.4141581             -11.2698
        38        2.0000           -0.4052170             -11.0265
        39        2.0000           -0.3984456             -10.8423
        40        2.0000           -0.3785889             -10.3019 (HOMO)
        41                         -0.2338343              -6.3630 (LUMO)
        42                         -0.2213729              -6.0239
        43                         -0.2139560              -5.8220
        44                         -0.1979971              -5.3878
        45                         -0.0978593              -2.6629
        46                          0.0191730               0.5217
        47                          0.0373333               1.0159
        48                          0.1017506               2.7688
        49                          0.1101594               2.9976
        50                          0.1188886               3.2351
        51                          0.1270122               3.4562
       ...                                ...                  ...
        74                          0.6816124              18.5476
      -------------------------------------------------------------
                  HL-Gap            0.1447545 Eh            3.9390 eV

     #   Z          covCN         q      C6AA      Î±(0)
     1   6 C        2.836    -0.094    30.342     9.027
     2   6 C        2.886    -0.026    28.654     8.776
     3   6 C        3.811    -0.063    21.700     6.631
     4   6 C        2.970     0.010    27.786     8.646
     5   6 C        2.925    -0.043    29.060     8.840
     6   6 C        2.918    -0.069    29.710     8.938
     7   6 C        2.864     0.134    25.073     8.208
     8   8 O        1.705    -0.260    18.306     5.777
     9   6 C        3.646     0.039    20.250     6.467
    10   6 C        2.881     0.121    25.342     8.253
    11   8 O        1.708    -0.254    18.213     5.762
    12   6 C        2.720     0.370    20.725     7.453
    13   6 C        3.754    -0.146    23.383     6.895
    14   8 O        0.856    -0.400    21.688     6.244
    15   6 C        2.923    -0.053    29.320     8.880
    16   1 H        0.926     0.037     2.485     2.465
    17   1 H        0.926     0.042     2.425     2.435
    18   1 H        0.925     0.032     2.563     2.503
    19   1 H        0.924     0.050     2.324     2.384
    20   1 H        0.924     0.051     2.306     2.375
    21   1 H        0.926     0.043     2.404     2.425
    22   1 H        0.926     0.045     2.377     2.411
    23   1 H        0.925     0.064     2.155     2.296
    24   1 H        0.924     0.047     2.360     2.402
    25   1 H        0.924     0.040     2.452     2.449
    26   1 H        0.925     0.079     1.987     2.204
    27   1 H        0.925     0.073     2.048     2.238
    28   1 H        0.925     0.074     2.037     2.232
    29   1 H        0.926     0.056     2.243     2.342

Wiberg/Mayer (AO) data.
largest (>0.10) Wiberg bond orders for each atom

     #   Z sym  total        # sym  WBO       # sym  WBO       # sym  WBO
 ---------------------------------------------------------------------------
     1   6 C    3.992 --     2 C    1.981    16 H    0.977    17 H    0.973
     2   6 C    3.989 --     1 C    1.981     3 C    1.006    18 H    0.966
     3   6 C    3.997 --     4 C    1.013     2 C    1.006    19 H    0.958
                            20 H    0.955
     4   6 C    3.988 --     5 C    1.420    15 C    1.388     3 C    1.013
     5   6 C    3.990 --     6 C    1.434     4 C    1.420    21 H    0.969
                            10 C    0.100
     6   6 C    3.986 --     5 C    1.434     7 C    1.379    22 H    0.965
                            15 C    0.100
     7   6 C    3.939 --     6 C    1.379    10 C    1.303     8 O    1.070
     8   8 O    2.239 --     7 C    1.070     9 C    0.982
     9   6 C    3.943 --     8 O    0.982    23 H    0.979    24 H    0.977
                            25 H    0.976
    10   6 C    3.920 --    15 C    1.434     7 C    1.303    11 O    0.965
                             5 C    0.100
    11   8 O    2.333 --    12 C    1.098    10 C    0.965    14 O    0.167
    12   6 C    3.914 --    14 O    1.774    11 O    1.098    13 C    0.987
    13   6 C    3.991 --    12 C    0.987    27 H    0.983    28 H    0.969
                            26 H    0.960
    14   8 O    2.051 --    12 C    1.774    11 O    0.167
    15   6 C    3.987 --    10 C    1.434     4 C    1.388    29 H    0.966
                             6 C    0.100
    16   1 H    0.999 --     1 C    0.977
    17   1 H    0.998 --     1 C    0.973
    18   1 H    0.998 --     2 C    0.966
    19   1 H    0.997 --     3 C    0.958
    20   1 H    0.997 --     3 C    0.955
    21   1 H    0.998 --     5 C    0.969
    22   1 H    0.998 --     6 C    0.965
    23   1 H    0.995 --     9 C    0.979
    24   1 H    0.998 --     9 C    0.977
    25   1 H    0.998 --     9 C    0.976
    26   1 H    0.994 --    13 C    0.960
    27   1 H    0.994 --    13 C    0.983
    28   1 H    0.994 --    13 C    0.969
    29   1 H    0.996 --    15 C    0.966
 ---------------------------------------------------------------------------

molecular dipole:
                 x           y           z       tot (Debye)
 q only:        0.032      -0.719       0.366
   full:       -0.047      -0.830       0.384       2.328

           -------------------------------------------------
          | TOTAL ENERGY              -45.010336303467 Eh   |
          | GRADIENT NORM               0.000691600438 Eh/Î± |
          | HOMO-LUMO GAP               3.938971145950 eV   |
           -------------------------------------------------

 * finished run on 2022/03/17 at 02:19:41.452
