   * xtb version 6.3.3 (4ae9cef) compiled by 'conda@95abc7406d43' on 2020-10-14
          program call               : xtb acid_150.xyz --opt --chrg 0 --uhf 0 --gfn 2
          number of atoms            :                    64
          number of electrons        :                   210
          charge                     :                     0
          spin                       :                   0.0

   ID    Z sym.   atoms
    1    6 C      1-14, 16-20, 24, 25, 27, 28, 32-36, 40, 41
    2    7 N      15, 21, 31, 37
    3    8 O      22, 23, 26, 29, 30, 38, 39, 42
    4    1 H      43-64

          :  Hamiltonian                  GFN2-xTB          :
 * total energy  :  -119.5056823 Eh     change       -0.1406278E-08 Eh
 * total energy  :  -119.5223519 Eh     change       -0.1666964E-01 Eh
 * total energy  :  -119.5266438 Eh     change       -0.4291894E-02 Eh
 * total energy  :  -119.5277531 Eh     change       -0.1109254E-02 Eh
 * total energy  :  -119.5286588 Eh     change       -0.9057031E-03 Eh
 * total energy  :  -119.5291791 Eh     change       -0.5203202E-03 Eh
 * total energy  :  -119.5296202 Eh     change       -0.4411510E-03 Eh
 * total energy  :  -119.5299558 Eh     change       -0.3355837E-03 Eh
 * total energy  :  -119.5302589 Eh     change       -0.3031073E-03 Eh
 * total energy  :  -119.5304546 Eh     change       -0.1956847E-03 Eh
 * total energy  :  -119.5317669 Eh     change       -0.1417680E-04 Eh
 * total energy  :  -119.5317798 Eh     change       -0.1288382E-04 Eh
 * total energy  :  -119.5317915 Eh     change       -0.1176267E-04 Eh
 * total energy  :  -119.5318002 Eh     change       -0.8678632E-05 Eh
 * total energy  :  -119.5318061 Eh     change       -0.5836288E-05 Eh
 * total energy  :  -119.5318112 Eh     change       -0.5162368E-05 Eh
 * total energy  :  -119.5318167 Eh     change       -0.5498021E-05 Eh
 * total energy  :  -119.5318224 Eh     change       -0.5714170E-05 Eh
 * total energy  :  -119.5318238 Eh     change       -0.1363943E-05 Eh
   *** GEOMETRY OPTIMIZATION CONVERGED AFTER 44 ITERATIONS ***

 final structure:
================
64
 xtb: 6.3.3 (4ae9cef)
C         2.87299372252235    1.69143320302980   -0.73242178265697
C         3.56692497323465    2.05433081317452   -1.87306245392773
C         3.02919877107738    1.80039162969119   -3.12297318099893
C         1.78799612099526    1.19539786352400   -3.22925284834408
C         1.09495313715870    0.83114432716314   -2.08980306254570
C         1.63822487308243    1.06536761957115   -0.83234534649132
C         0.89592112107145    0.63376746831892    0.40901794201560
C        -0.42267276991169    1.41860280331815    0.59506079008531
C        -0.69952406212222    1.92997060734036    1.99195180409569
C        -0.22000705722746    1.30763058171265    3.13738467980531
C        -0.55774931594265    1.79392163200216    4.38958575083030
C        -1.37925822962223    2.90034583813173    4.51241499687653
C        -1.86492009006689    3.52241613495233    3.37446736275412
C        -1.52688429211292    3.04092256101337    2.12307910754852
N        -1.45016999931450    0.45695445298806    0.19636317938676
C        -2.59078858244853    0.83967722386620   -0.42500006647097
C        -3.50579085894852   -0.27832626995844   -0.82701142334118
C        -3.23188355159506   -1.04834542954884   -1.95416831306386
C        -4.11487105983854   -2.03414102820860   -2.34984065341387
C        -5.27110903485428   -2.24269917947892   -1.60888555855069
N        -6.19745039700652   -3.27376894784191   -2.01775654264260
O        -7.17080148863895   -3.45977528503979   -1.32088100764929
O        -5.94211371714108   -3.88720400813998   -3.03024595594793
C        -5.55977511531700   -1.47367982006118   -0.48858663668465
C        -4.67531624552804   -0.48553925896281   -0.10362384198882
O        -2.85569794447182    2.00288180086722   -0.63521238358321
C        -0.97310341408019   -0.87214910050093    0.44449137282112
C        -1.33221117666723   -1.38628204761187    1.85413588655775
O        -2.64224982398767   -1.32009299384723    2.06821424951108
O        -0.53552819740581   -1.80675239779982    2.64040514781853
N         0.45865446069009   -0.75528765202948    0.30658729388434
C         1.17270699384749   -1.80208741495770   -0.18268122397746
C         2.64223730133065   -1.55017753504406   -0.29673064092491
C         3.39488164086678   -1.26676884761722    0.83925429837359
C         4.74553045376381   -1.00716769456395    0.72249828342711
C         5.33247219998158   -1.02922437964448   -0.53694256668346
N         6.73166371945692   -0.69950048529946   -0.66949924428151
O         7.34886834034611   -0.45390933926921    0.34397023273758
O         7.19962012877708   -0.67863558821632   -1.78685551498707
C         4.60028601161822   -1.35871164570225   -1.67068429649950
C         3.25406494710175   -1.63398115992002   -1.54343683170836
O         0.64508311669058   -2.84773988629155   -0.49564079397297
H         3.29532316530174    1.88793433611877    0.24234652000187
H         4.53046553362495    2.53274841897660   -1.78556982036178
H         3.57422743767036    2.07659733651624   -4.01236822282448
H         1.35973264382612    1.00583143324775   -4.20190254528091
H         0.12864730913009    0.35529200120189   -2.17623583655075
H         1.54505649344584    0.77290402769510    1.27894489160523
H        -0.47844202581818    2.26197156003603   -0.10239325356163
H         0.41187497904472    0.43507609583474    3.07413674322442
H        -0.17678308575407    1.30007793757877    5.27098384860204
H        -1.64069843317192    3.27506068545381    5.49060203879799
H        -2.50817435556823    4.38502616517368    3.46060072128173
H        -1.91579418033361    3.51728821662620    1.23593928784597
H        -2.33665499698891   -0.86886532604419   -2.53098525934985
H        -3.92633667959147   -2.64425750519196   -3.21989553143112
H        -6.47286357319291   -1.65744051570418    0.05657504590614
H        -4.88364395999994    0.13107341896370    0.75610729709681
H        -1.36629027294197   -1.61130958307612   -0.26908094927921
H        -2.86689449156007   -1.66062790580943    2.95050244412774
H         2.92061867038447   -1.26147686135318    1.80876396791723
H         5.35389829358660   -0.77753496410040    1.58411828594312
H         5.09518611554392   -1.39106718487973   -2.62890251340227
H         2.66513780400274   -1.89751195237269   -2.40762636750451

          :  Hamiltonian                  GFN2-xTB          :
         :: total energy            -119.531823798330 Eh    ::
         :: gradient norm              0.000338895556 Eh/a0 ::
         :: HOMO-LUMO gap              2.340747764312 eV    ::
         :: SCC energy              -121.150181725298 Eh    ::
         :: -> dispersion             -0.093661376518 Eh    ::
         :: repulsion energy           1.615822404461 Eh    ::

    * Orbital Energies and Occupations

         #    Occupation            Energy/Eh            Energy/eV
      -------------------------------------------------------------
         1        2.0000           -0.7913786             -21.5345
       ...           ...                  ...                  ...
        93        2.0000           -0.4552146             -12.3870
        94        2.0000           -0.4532343             -12.3331
        95        2.0000           -0.4496227             -12.2349
        96        2.0000           -0.4487621             -12.2114
        97        2.0000           -0.4434773             -12.0676
        98        2.0000           -0.4369244             -11.8893
        99        2.0000           -0.4363462             -11.8736
       100        2.0000           -0.4336370             -11.7999
       101        2.0000           -0.4301211             -11.7042
       102        2.0000           -0.4271458             -11.6232
       103        2.0000           -0.4264232             -11.6036
       104        2.0000           -0.4218197             -11.4783
       105        2.0000           -0.4198646             -11.4251 (HOMO)
       106                         -0.3338437              -9.0844 (LUMO)
       107                         -0.3321876              -9.0393
       108                         -0.2805146              -7.6332
       109                         -0.2740119              -7.4562
       110                         -0.2736945              -7.4476
       111                         -0.2675528              -7.2805
       112                         -0.2618612              -7.1256
       113                         -0.2580473              -7.0218
       114                         -0.2547950              -6.9333
       115                         -0.2509091              -6.8276
       116                         -0.2453700              -6.6769
       ...                                ...                  ...
       190                          0.6428215              17.4921
      -------------------------------------------------------------
                  HL-Gap            0.0860209 Eh            2.3407 eV

     #   Z          covCN         q      C6AA      Î±(0)
     1   6 C        2.924    -0.038    28.939     8.822
     2   6 C        2.920    -0.027    28.672     8.781
     3   6 C        2.921    -0.027    28.675     8.781
     4   6 C        2.919    -0.027    28.665     8.780
     5   6 C        2.924    -0.032    28.798     8.800
     6   6 C        2.973    -0.006    28.175     8.707
     7   6 C        3.817     0.030    20.049     6.373
     8   6 C        3.833     0.037    19.933     6.352
     9   6 C        2.971    -0.004    28.127     8.699
    10   6 C        2.922    -0.040    28.997     8.831
    11   6 C        2.920    -0.029    28.714     8.787
    12   6 C        2.919    -0.028    28.700     8.785
    13   6 C        2.919    -0.026    28.653     8.778
    14   6 C        2.926    -0.033    28.825     8.805
    15   7 N        2.767    -0.108    23.353     7.177
    16   6 C        2.760     0.273    22.377     7.747
    17   6 C        2.976    -0.000    28.034     8.685
    18   6 C        2.923    -0.023    28.574     8.766
    19   6 C        2.918    -0.018    28.468     8.749
    20   6 C        2.917     0.006    27.885     8.659
    21   7 N        2.759     0.548    13.503     5.458
    22   8 O        0.930    -0.381    21.264     6.184
    23   8 O        0.930    -0.378    21.221     6.178
    24   6 C        2.918    -0.018    28.458     8.748
    25   6 C        2.924    -0.015    28.384     8.737
    26   8 O        0.859    -0.409    21.864     6.269
    27   6 C        3.773     0.090    19.114     6.230
    28   6 C        2.688     0.356    20.964     7.493
    29   8 O        1.659    -0.367    20.222     6.071
    30   8 O        0.856    -0.370    21.095     6.158
    31   7 N        2.768    -0.110    23.404     7.185
    32   6 C        2.766     0.275    22.350     7.742
    33   6 C        2.978     0.003    27.943     8.671
    34   6 C        2.923    -0.023    28.575     8.766
    35   6 C        2.918    -0.020    28.496     8.754
    36   6 C        2.918     0.005    27.904     8.662
    37   7 N        2.759     0.547    13.511     5.459
    38   8 O        0.930    -0.381    21.272     6.185
    39   8 O        0.930    -0.381    21.270     6.185
    40   6 C        2.918    -0.019    28.481     8.751
    41   6 C        2.924    -0.016    28.399     8.739
    42   8 O        0.859    -0.417    22.014     6.291
    43   1 H        0.926     0.033     2.539     2.492
    44   1 H        0.926     0.046     2.373     2.409
    45   1 H        0.926     0.048     2.348     2.396
    46   1 H        0.926     0.045     2.385     2.415
    47   1 H        0.926     0.029     2.598     2.520
    48   1 H        0.924     0.061     2.184     2.311
    49   1 H        0.924     0.079     1.985     2.203
    50   1 H        0.926     0.039     2.462     2.454
    51   1 H        0.926     0.040     2.444     2.445
    52   1 H        0.926     0.040     2.447     2.446
    53   1 H        0.926     0.043     2.411     2.428
    54   1 H        0.926     0.057     2.236     2.338
    55   1 H        0.926     0.054     2.276     2.359
    56   1 H        0.926     0.089     1.892     2.151
    57   1 H        0.926     0.088     1.903     2.157
    58   1 H        0.926     0.066     2.134     2.284
    59   1 H        0.923     0.092     1.857     2.131
    60   1 H        0.804     0.348     0.592     1.209
    61   1 H        0.926     0.063     2.166     2.302
    62   1 H        0.926     0.087     1.906     2.159
    63   1 H        0.926     0.087     1.910     2.161
    64   1 H        0.926     0.065     2.143     2.289

Wiberg/Mayer (AO) data.
largest (>0.10) Wiberg bond orders for each atom

     #   Z sym  total        # sym  WBO       # sym  WBO       # sym  WBO
 ---------------------------------------------------------------------------
     1   6 C    3.990 --     2 C    1.443     6 C    1.414    43 H    0.968
                             4 C    0.110
     2   6 C    3.991 --     1 C    1.443     3 C    1.440    44 H    0.970
                             5 C    0.111
     3   6 C    3.989 --     2 C    1.440     4 C    1.435    45 H    0.970
                             6 C    0.109
     4   6 C    3.991 --     5 C    1.448     3 C    1.435    46 H    0.970
                             1 C    0.110
     5   6 C    3.991 --     4 C    1.448     6 C    1.408    47 H    0.969
                             2 C    0.111
     6   6 C    3.985 --     1 C    1.414     5 C    1.408     7 C    0.988
                             3 C    0.109
     7   6 C    3.963 --     6 C    0.988     8 C    0.962    31 N    0.958
                            48 H    0.950
     8   6 C    3.957 --     9 C    0.983     7 C    0.962    49 H    0.952
                            15 N    0.947
     9   6 C    3.984 --    10 C    1.419    14 C    1.408     8 C    0.983
                            12 C    0.109
    10   6 C    3.991 --    11 C    1.438     9 C    1.419    50 H    0.964
                            13 C    0.111
    11   6 C    3.991 --    12 C    1.443    10 C    1.438    51 H    0.971
                            14 C    0.112
    12   6 C    3.990 --    11 C    1.443    13 C    1.436    52 H    0.971
                             9 C    0.109
    13   6 C    3.991 --    14 C    1.448    12 C    1.436    53 H    0.970
                            10 C    0.111
    14   6 C    3.988 --    13 C    1.448     9 C    1.408    54 H    0.966
                            11 C    0.112
    15   7 N    3.481 --    16 C    1.218    27 C    0.992     8 C    0.947
                            26 O    0.196
    16   6 C    3.950 --    26 O    1.694    15 N    1.218    17 C    0.954
    17   6 C    3.986 --    25 C    1.400    18 C    1.398    16 C    0.954
    18   6 C    3.990 --    19 C    1.453    17 C    1.398    55 H    0.967
                            24 C    0.105
    19   6 C    3.984 --    18 C    1.453    20 C    1.384    56 H    0.959
                            25 C    0.106
    20   6 C    3.965 --    24 C    1.384    19 C    1.384    21 N    0.959
    21   7 N    3.913 --    23 O    1.457    22 O    1.455    20 C    0.959
    22   8 O    1.939 --    21 N    1.455    23 O    0.366
    23   8 O    1.941 --    21 N    1.457    22 O    0.366
    24   6 C    3.984 --    25 C    1.453    20 C    1.384    57 H    0.959
                            18 C    0.105
    25   6 C    3.989 --    24 C    1.453    17 C    1.400    58 H    0.967
                            19 C    0.106
    26   8 O    2.028 --    16 C    1.694    15 N    0.196
    27   6 C    3.968 --    15 N    0.992    31 N    0.986    59 H    0.924
                            28 C    0.908
    28   6 C    3.920 --    30 O    1.793    29 O    1.153    27 C    0.908
    29   8 O    2.215 --    28 C    1.153    60 H    0.853    30 O    0.183
    30   8 O    2.075 --    28 C    1.793    29 O    0.183
    31   7 N    3.466 --    32 C    1.210    27 C    0.986     7 C    0.958
                            42 O    0.193
    32   6 C    3.950 --    42 O    1.693    31 N    1.210    33 C    0.964
    33   6 C    3.987 --    41 C    1.397    34 C    1.393    32 C    0.964
    34   6 C    3.989 --    35 C    1.458    33 C    1.393    61 H    0.966
                            40 C    0.104
    35   6 C    3.985 --    34 C    1.458    36 C    1.380    62 H    0.959
                            41 C    0.105
    36   6 C    3.964 --    40 C    1.382    35 C    1.380    37 N    0.962
    37   7 N    3.913 --    39 O    1.454    38 O    1.454    36 C    0.962
    38   8 O    1.937 --    37 N    1.454    39 O    0.364
    39   8 O    1.938 --    37 N    1.454    38 O    0.364
    40   6 C    3.985 --    41 C    1.456    36 C    1.382    63 H    0.959
                            34 C    0.104
    41   6 C    3.988 --    40 C    1.456    33 C    1.397    64 H    0.966
                            35 C    0.105
    42   8 O    2.025 --    32 C    1.693    31 N    0.193
    43   1 H    0.999 --     1 C    0.968
    44   1 H    0.997 --     2 C    0.970
    45   1 H    0.997 --     3 C    0.970
    46   1 H    0.998 --     4 C    0.970
    47   1 H    0.999 --     5 C    0.969
    48   1 H    0.996 --     7 C    0.950
    49   1 H    0.993 --     8 C    0.952
    50   1 H    0.998 --    10 C    0.964
    51   1 H    0.998 --    11 C    0.971
    52   1 H    0.998 --    12 C    0.971
    53   1 H    0.998 --    13 C    0.970
    54   1 H    0.997 --    14 C    0.966
    55   1 H    0.997 --    18 C    0.967
    56   1 H    0.991 --    19 C    0.959
    57   1 H    0.992 --    24 C    0.959
    58   1 H    0.995 --    25 C    0.967
    59   1 H    0.991 --    27 C    0.924
    60   1 H    0.878 --    29 O    0.853
    61   1 H    0.996 --    34 C    0.966
    62   1 H    0.992 --    35 C    0.959
    63   1 H    0.992 --    40 C    0.959
    64   1 H    0.995 --    41 C    0.966
 ---------------------------------------------------------------------------

molecular dipole:
                 x           y           z       tot (Debye)
 q only:       -0.224       1.885       1.285
   full:       -0.329       1.739       1.396       5.729

           -------------------------------------------------
          | TOTAL ENERGY             -119.531823798330 Eh   |
          | GRADIENT NORM               0.000338895556 Eh/Î± |
          | HOMO-LUMO GAP               2.340747764312 eV   |
           -------------------------------------------------

 * finished run on 2022/03/16 at 21:53:12.732
