   * xtb version 6.3.3 (4ae9cef) compiled by 'conda@95abc7406d43' on 2020-10-14
          program call               : xtb acid_433.xyz --opt --chrg 0 --uhf 0 --gfn 2
          number of atoms            :                    70
          number of electrons        :                   258
          charge                     :                     0
          spin                       :                   0.0

   ID    Z sym.   atoms
    1    6 C      1, 2, 6-15, 19-22, 24-28, 32, 33, 35, 36, 40-44, 48, 49
    2    9 F      3-5, 16-18
    3    7 N      23, 29, 39, 45
    4    8 O      30, 31, 34, 37, 38, 46, 47, 50
    5    1 H      51-70

          :  Hamiltonian                  GFN2-xTB          :
 * total energy  :  -151.1989609 Eh     change       -0.1447034E-08 Eh
 * total energy  :  -151.2197521 Eh     change       -0.2079129E-01 Eh
 * total energy  :  -151.2254027 Eh     change       -0.5650568E-02 Eh
 * total energy  :  -151.2264494 Eh     change       -0.1046697E-02 Eh
 * total energy  :  -151.2275481 Eh     change       -0.1098711E-02 Eh
 * total energy  :  -151.2280099 Eh     change       -0.4617842E-03 Eh
 * total energy  :  -151.2284108 Eh     change       -0.4009311E-03 Eh
 * total energy  :  -151.2286865 Eh     change       -0.2756975E-03 Eh
 * total energy  :  -151.2290296 Eh     change       -0.3430262E-03 Eh
 * total energy  :  -151.2293887 Eh     change       -0.3591615E-03 Eh
 * total energy  :  -151.2344223 Eh     change       -0.2522548E-04 Eh
 * total energy  :  -151.2344339 Eh     change       -0.1158744E-04 Eh
 * total energy  :  -151.2344409 Eh     change       -0.6977004E-05 Eh
 * total energy  :  -151.2344566 Eh     change       -0.1568293E-04 Eh
 * total energy  :  -151.2344680 Eh     change       -0.1141503E-04 Eh
 * total energy  :  -151.2344772 Eh     change       -0.9189083E-05 Eh
 * total energy  :  -151.2344857 Eh     change       -0.8466627E-05 Eh
 * total energy  :  -151.2344918 Eh     change       -0.6139077E-05 Eh
 * total energy  :  -151.2344957 Eh     change       -0.3892244E-05 Eh
   *** GEOMETRY OPTIMIZATION CONVERGED AFTER 61 ITERATIONS ***

 final structure:
================
70
 xtb: 6.3.3 (4ae9cef)
C         2.66879730939729    1.75254782666095   -0.18999829703417
C         2.94147618946506    2.00889187173654    1.26698723478821
F         1.90102734987446    2.59473032060602    1.89206791574855
F         3.18796817004739    0.88198759040570    1.97362992850956
F         3.99537209844076    2.79935502663958    1.47258918701571
C         3.49399528110694    2.35780343440597   -1.13098873807049
C         3.23780475677220    2.21060382391766   -2.48087827834203
C         2.14054036468983    1.47625728094862   -2.89583254470227
C         1.32358923889064    0.86530390175329   -1.96369440771024
C         1.58488274528099    0.97469435568717   -0.60142034606793
C         0.65218695670552    0.28204336839669    0.36260834897520
C        -0.74284943899756    0.95508848967492    0.35461099938149
C        -0.97474131410062    1.82804274042118    1.56256176777448
C        -1.04099917616894    3.21960705483092    1.49576451664791
C        -0.85570074806889    3.94524951802844    0.19121560172998
F         0.34316529223410    3.67038694099244   -0.37891942464866
F        -1.77199379776738    3.63575720741314   -0.73942117644728
F        -0.89439572209686    5.27480026068081    0.32212688163818
C        -1.25695983337107    3.96724286507065    2.64643267982111
C        -1.40599776828941    3.33969913443137    3.86867600614491
C        -1.33252374258704    1.96032764906704    3.94664787082374
C        -1.11653274623720    1.21674429894716    2.80252664738556
N        -1.67824476870609   -0.16554625195343    0.34784516722580
C        -3.01685434638115    0.08437908433912    0.36319144803602
C        -3.88649801674715   -1.12000759221159    0.17638813019936
C        -3.96754224737513   -2.10723158358598    1.15339179400195
C        -4.80076307931616   -3.19276529036336    0.96958551372890
C        -5.54499040406614   -3.28393179289065   -0.19947788409783
N        -6.39844939054157   -4.43192628577422   -0.40654197708686
O        -6.94277883209058   -4.53609745963038   -1.48352278868575
O        -6.51107834636025   -5.21826737122401    0.50727622870775
C        -5.48963191144099   -2.29340222445524   -1.17166585198257
C        -4.66463192210957   -1.20365272055568   -0.97437079043023
O        -3.46251975326755    1.19586997129094    0.53053807453663
C        -1.04442318653416   -1.40617493236361   -0.01047923348648
C        -1.46336288918227   -1.90882235532518   -1.41530751402186
O        -2.12848081723865   -3.05139817743417   -1.35589519781263
O        -1.28506581725260   -1.26228487617451   -2.41079854180308
N         0.37058561885566   -1.09072851932090   -0.03424205447239
C         1.16446191180066   -1.96016488234904   -0.70629853199663
C         2.62498830344371   -1.66954379805570   -0.73287369342938
C         3.35361711339843   -1.56865146117396    0.44734565772589
C         4.71001254811270   -1.31056122114803    0.39889352296127
C         5.32435727996474   -1.15040867444073   -0.83559503336420
N         6.73456678508117   -0.83400532692186   -0.89031123898544
O         7.34798429788660   -0.82684327484866    0.15262560726840
O         7.20802281499712   -0.58830953201357   -1.97768944489990
C         4.61434291233256   -1.29274618220187   -2.02178233422269
C         3.26450197501216   -1.57065854618213   -1.96631018782376
O         0.67704444889820   -2.94490132265088   -1.23181445498542
H         4.33043412696405    2.95364426026283   -0.80147152252265
H         3.88447824745801    2.68406158323810   -3.20220231194675
H         1.91501782796935    1.38092859182939   -3.94644121586725
H         0.47236997687427    0.28845743094724   -2.29679669610438
H         1.04872901110457    0.28245732455504    1.38343309129442
H        -0.87625563233511    1.52262588378398   -0.57200448986040
H        -1.30802133836863    5.04261249648451    2.58111040367202
H        -1.57657612648430    3.92835178407234    4.75609026408492
H        -1.44298706201316    1.46283498999198    4.89803710693625
H        -1.06422623985064    0.13946756883037    2.86451386675285
H        -3.39182193614049   -2.01694361115249    2.06196509392564
H        -4.88353727316499   -3.97353014338117    1.71001080816852
H        -6.09479527825096   -2.38926438216295   -2.06028916368986
H        -4.61176454425848   -0.41510435343983   -1.70897628115654
H        -1.25401073633698   -2.20907849306115    0.71293218852456
H        -2.31817067793526   -3.38864271413082   -2.24671697438932
H         2.86575519659063   -1.69435536036258    1.40061032227353
H         5.29533999635188   -1.21764944105878    1.30056023110083
H         5.13129312420785   -1.18864821225600   -2.96316884399730
H         2.69146759121444   -1.70061156408185   -2.87058964137591

          :  Hamiltonian                  GFN2-xTB          :
         :: total energy            -151.234495698270 Eh    ::
         :: gradient norm              0.000245912672 Eh/a0 ::
         :: HOMO-LUMO gap              2.356009823659 eV    ::
         :: SCC energy              -152.906431738876 Eh    ::
         :: -> dispersion             -0.109055904967 Eh    ::
         :: repulsion energy           1.668147880135 Eh    ::

    * Orbital Energies and Occupations

         #    Occupation            Energy/Eh            Energy/eV
      -------------------------------------------------------------
         1        2.0000           -0.9016947             -24.5364
       ...           ...                  ...                  ...
       117        2.0000           -0.4646567             -12.6440
       118        2.0000           -0.4623116             -12.5801
       119        2.0000           -0.4614147             -12.5557
       120        2.0000           -0.4588356             -12.4856
       121        2.0000           -0.4554532             -12.3935
       122        2.0000           -0.4543129             -12.3625
       123        2.0000           -0.4525018             -12.3132
       124        2.0000           -0.4522041             -12.3051
       125        2.0000           -0.4496295             -12.2350
       126        2.0000           -0.4458072             -12.1310
       127        2.0000           -0.4426569             -12.0453
       128        2.0000           -0.4317769             -11.7492
       129        2.0000           -0.4266185             -11.6089 (HOMO)
       130                         -0.3400367              -9.2529 (LUMO)
       131                         -0.3365540              -9.1581
       132                         -0.2902193              -7.8973
       133                         -0.2859703              -7.7816
       134                         -0.2824112              -7.6848
       135                         -0.2784758              -7.5777
       136                         -0.2781680              -7.5693
       137                         -0.2751540              -7.4873
       138                         -0.2721806              -7.4064
       139                         -0.2693645              -7.3298
       140                         -0.2673657              -7.2754
       ...                                ...                  ...
       220                          0.6203240              16.8799
      -------------------------------------------------------------
                  HL-Gap            0.0865818 Eh            2.3560 eV

     #   Z          covCN         q      C6AA      Î±(0)
     1   6 C        2.975    -0.033    28.823     8.806
     2   6 C        3.335     0.484    17.317     6.592
     3   9 F        0.791    -0.214    11.382     3.985
     4   9 F        0.791    -0.219    11.431     3.994
     5   9 F        0.792    -0.192    11.151     3.945
     6   6 C        2.923    -0.022    28.555     8.763
     7   6 C        2.920    -0.021    28.519     8.757
     8   6 C        2.919    -0.017    28.425     8.743
     9   6 C        2.926    -0.033    28.816     8.803
    10   6 C        2.972     0.006    27.890     8.663
    11   6 C        3.812     0.038    19.923     6.353
    12   6 C        3.825     0.049    19.728     6.320
    13   6 C        2.972     0.022    27.506     8.603
    14   6 C        2.976    -0.019    28.486     8.755
    15   6 C        3.335     0.486    17.292     6.587
    16   9 F        0.791    -0.226    11.507     4.007
    17   9 F        0.791    -0.200    11.238     3.960
    18   9 F        0.792    -0.196    11.198     3.953
    19   6 C        2.923    -0.017    28.427     8.743
    20   6 C        2.920    -0.019    28.477     8.751
    21   6 C        2.918    -0.016    28.420     8.742
    22   6 C        2.927    -0.025    28.637     8.776
    23   7 N        2.761    -0.116    23.526     7.204
    24   6 C        2.765     0.273    22.391     7.749
    25   6 C        2.977    -0.004    28.113     8.697
    26   6 C        2.922    -0.022    28.549     8.762
    27   6 C        2.918    -0.017    28.427     8.743
    28   6 C        2.918     0.007    27.861     8.656
    29   7 N        2.759     0.549    13.494     5.456
    30   8 O        0.930    -0.379    21.236     6.180
    31   8 O        0.930    -0.378    21.209     6.176
    32   6 C        2.918    -0.018    28.469     8.750
    33   6 C        2.925    -0.017    28.425     8.743
    34   8 O        0.859    -0.396    21.605     6.232
    35   6 C        3.764     0.091    19.116     6.232
    36   6 C        2.688     0.367    20.773     7.459
    37   8 O        1.659    -0.359    20.067     6.047
    38   8 O        0.856    -0.397    21.630     6.235
    39   7 N        2.764    -0.108    23.365     7.179
    40   6 C        2.775     0.274    22.367     7.746
    41   6 C        2.976    -0.000    28.024     8.684
    42   6 C        2.923    -0.023    28.586     8.768
    43   6 C        2.918    -0.018    28.461     8.748
    44   6 C        2.918     0.006    27.899     8.662
    45   7 N        2.759     0.549    13.495     5.456
    46   8 O        0.930    -0.373    21.124     6.164
    47   8 O        0.930    -0.379    21.228     6.179
    48   6 C        2.918    -0.021    28.523     8.758
    49   6 C        2.925    -0.017    28.440     8.746
    50   8 O        0.861    -0.412    21.910     6.276
    51   1 H        0.926     0.074     2.040     2.233
    52   1 H        0.926     0.068     2.106     2.269
    53   1 H        0.926     0.067     2.114     2.274
    54   1 H        0.926     0.078     1.996     2.209
    55   1 H        0.924     0.066     2.134     2.285
    56   1 H        0.924     0.075     2.035     2.231
    57   1 H        0.926     0.074     2.042     2.235
    58   1 H        0.926     0.063     2.160     2.298
    59   1 H        0.926     0.059     2.207     2.323
    60   1 H        0.926     0.046     2.370     2.407
    61   1 H        0.926     0.054     2.273     2.358
    62   1 H        0.926     0.089     1.884     2.146
    63   1 H        0.926     0.090     1.881     2.145
    64   1 H        0.926     0.070     2.088     2.260
    65   1 H        0.923     0.074     2.045     2.236
    66   1 H        0.804     0.353     0.582     1.198
    67   1 H        0.926     0.065     2.143     2.289
    68   1 H        0.926     0.096     1.826     2.113
    69   1 H        0.926     0.090     1.876     2.142
    70   1 H        0.926     0.071     2.070     2.250

Wiberg/Mayer (AO) data.
largest (>0.10) Wiberg bond orders for each atom

     #   Z sym  total        # sym  WBO       # sym  WBO       # sym  WBO
 ---------------------------------------------------------------------------
     1   6 C    3.969 --     6 C    1.411    10 C    1.385     2 C    0.951
                             8 C    0.104
     2   6 C    3.822 --     5 F    0.965     1 C    0.951     3 F    0.938
                             4 F    0.929
     3   9 F    1.066 --     2 C    0.938
     4   9 F    1.060 --     2 C    0.929
     5   9 F    1.089 --     2 C    0.965
     6   6 C    3.986 --     7 C    1.443     1 C    1.411    51 H    0.964
                             9 C    0.108
     7   6 C    3.987 --     6 C    1.443     8 C    1.433    52 H    0.967
                            10 C    0.108
     8   6 C    3.988 --     9 C    1.446     7 C    1.433    53 H    0.967
                             1 C    0.104
     9   6 C    3.985 --     8 C    1.446    10 C    1.409    54 H    0.958
                             6 C    0.108
    10   6 C    3.986 --     9 C    1.409     1 C    1.385    11 C    0.993
                             7 C    0.108
    11   6 C    3.965 --    10 C    0.993    39 N    0.961    55 H    0.952
                            12 C    0.949
    12   6 C    3.963 --    13 C    0.993    23 N    0.954    56 H    0.951
                            11 C    0.949
    13   6 C    3.986 --    22 C    1.411    14 C    1.386    12 C    0.993
                            20 C    0.109
    14   6 C    3.972 --    19 C    1.415    13 C    1.386    15 C    0.951
                            21 C    0.105
    15   6 C    3.823 --    18 F    0.960    14 C    0.951    17 F    0.949
                            16 F    0.925
    16   9 F    1.052 --    15 C    0.925
    17   9 F    1.080 --    15 C    0.949
    18   9 F    1.083 --    15 C    0.960
    19   6 C    3.986 --    20 C    1.442    14 C    1.415    57 H    0.965
                            22 C    0.109
    20   6 C    3.988 --    19 C    1.442    21 C    1.434    58 H    0.968
                            13 C    0.109
    21   6 C    3.990 --    22 C    1.447    20 C    1.434    59 H    0.969
                            14 C    0.105
    22   6 C    3.990 --    21 C    1.447    13 C    1.411    60 H    0.967
                            19 C    0.109
    23   7 N    3.454 --    24 C    1.196    35 C    0.988    12 C    0.954
                            34 O    0.193
    24   6 C    3.949 --    34 O    1.712    23 N    1.196    25 C    0.959
    25   6 C    3.986 --    33 C    1.398    26 C    1.398    24 C    0.959
    26   6 C    3.991 --    27 C    1.455    25 C    1.398    61 H    0.967
                            32 C    0.106
    27   6 C    3.984 --    26 C    1.455    28 C    1.383    62 H    0.958
                            33 C    0.106
    28   6 C    3.965 --    32 C    1.385    27 C    1.383    29 N    0.958
    29   7 N    3.913 --    31 O    1.457    30 O    1.456    28 C    0.958
    30   8 O    1.940 --    29 N    1.456    31 O    0.367
    31   8 O    1.942 --    29 N    1.457    30 O    0.367
    32   6 C    3.984 --    33 C    1.453    28 C    1.385    63 H    0.958
                            26 C    0.106
    33   6 C    3.988 --    32 C    1.453    25 C    1.398    64 H    0.966
                            27 C    0.106
    34   8 O    2.048 --    24 C    1.712    23 N    0.193
    35   6 C    3.962 --    23 N    0.988    39 N    0.976    65 H    0.944
                            36 C    0.901
    36   6 C    3.924 --    38 O    1.753    37 O    1.163    35 C    0.901
    37   8 O    2.221 --    36 C    1.163    66 H    0.850    38 O    0.175
    38   8 O    2.053 --    36 C    1.753    37 O    0.175
    39   7 N    3.466 --    40 C    1.222    35 C    0.976    11 C    0.961
                            50 O    0.189
    40   6 C    3.946 --    50 O    1.659    39 N    1.222    41 C    0.974
    41   6 C    3.988 --    42 C    1.399    49 C    1.389    40 C    0.974
    42   6 C    3.989 --    43 C    1.450    41 C    1.399    67 H    0.966
                            48 C    0.105
    43   6 C    3.983 --    42 C    1.450    44 C    1.388    68 H    0.957
                            49 C    0.106
    44   6 C    3.966 --    43 C    1.388    48 C    1.380    45 N    0.957
    45   7 N    3.914 --    46 O    1.460    47 O    1.455    44 C    0.957
    46   8 O    1.945 --    45 N    1.460    47 O    0.368
    47   8 O    1.940 --    45 N    1.455    46 O    0.368
    48   6 C    3.984 --    49 C    1.459    44 C    1.380    69 H    0.958
                            42 C    0.105
    49   6 C    3.987 --    48 C    1.459    41 C    1.389    70 H    0.965
                            43 C    0.106
    50   8 O    2.057 --    40 C    1.659    39 N    0.189
    51   1 H    0.994 --     6 C    0.964
    52   1 H    0.994 --     7 C    0.967
    53   1 H    0.995 --     8 C    0.967
    54   1 H    0.993 --     9 C    0.958
    55   1 H    0.995 --    11 C    0.952
    56   1 H    0.994 --    12 C    0.951
    57   1 H    0.994 --    19 C    0.965
    58   1 H    0.995 --    20 C    0.968
    59   1 H    0.996 --    21 C    0.969
    60   1 H    0.997 --    22 C    0.967
    61   1 H    0.997 --    26 C    0.967
    62   1 H    0.991 --    27 C    0.958
    63   1 H    0.991 --    32 C    0.958
    64   1 H    0.995 --    33 C    0.966
    65   1 H    0.994 --    35 C    0.944
    66   1 H    0.875 --    37 O    0.850
    67   1 H    0.995 --    42 C    0.966
    68   1 H    0.990 --    43 C    0.957
    69   1 H    0.991 --    48 C    0.958
    70   1 H    0.994 --    49 C    0.965
 ---------------------------------------------------------------------------

molecular dipole:
                 x           y           z       tot (Debye)
 q only:       -0.057       0.398       0.801
   full:       -0.070       0.245       0.783       2.094

           -------------------------------------------------
          | TOTAL ENERGY             -151.234495698270 Eh   |
          | GRADIENT NORM               0.000245912672 Eh/Î± |
          | HOMO-LUMO GAP               2.356009823659 eV   |
           -------------------------------------------------

 * finished run on 2022/03/17 at 01:09:53.922
