   * xtb version 6.3.3 (4ae9cef) compiled by 'conda@95abc7406d43' on 2020-10-14
          program call               : xtb acid_187.xyz --opt --chrg 0 --uhf 0 --gfn 2
          number of atoms            :                    72
          number of electrons        :                   218
          charge                     :                     0
          spin                       :                   0.0

   ID    Z sym.   atoms
    1    6 C      1-22, 24-26, 28-30, 32, 33, 37-39, 41-43
    2    7 N      23, 36
    3   16 S      27, 40
    4    8 O      31, 34, 35, 44
    5    1 H      45-72

          :  Hamiltonian                  GFN2-xTB          :
 * total energy  :  -119.9650898 Eh     change       -0.1908631E-08 Eh
 * total energy  :  -119.9836685 Eh     change       -0.1857875E-01 Eh
 * total energy  :  -119.9888500 Eh     change       -0.5181513E-02 Eh
 * total energy  :  -119.9912966 Eh     change       -0.2446599E-02 Eh
 * total energy  :  -119.9925359 Eh     change       -0.1239295E-02 Eh
 * total energy  :  -119.9932676 Eh     change       -0.7316243E-03 Eh
 * total energy  :  -119.9937499 Eh     change       -0.4823787E-03 Eh
 * total energy  :  -119.9942839 Eh     change       -0.5339243E-03 Eh
 * total energy  :  -119.9948418 Eh     change       -0.5579388E-03 Eh
 * total energy  :  -119.9953959 Eh     change       -0.5540764E-03 Eh
 * total energy  :  -120.0275937 Eh     change       -0.4171473E-04 Eh
 * total energy  :  -120.0276210 Eh     change       -0.2725206E-04 Eh
 * total energy  :  -120.0276381 Eh     change       -0.1713477E-04 Eh
 * total energy  :  -120.0276515 Eh     change       -0.1336150E-04 Eh
 * total energy  :  -120.0276493 Eh     change        0.2174470E-05 Eh
 * total energy  :  -120.0276651 Eh     change       -0.1581879E-04 Eh
 * total energy  :  -120.0276681 Eh     change       -0.2999353E-05 Eh
 * total energy  :  -120.0276762 Eh     change       -0.8127170E-05 Eh
 * total energy  :  -120.0276800 Eh     change       -0.3800298E-05 Eh
   *** GEOMETRY OPTIMIZATION CONVERGED AFTER 185 ITERATIONS ***

 final structure:
================
72
 xtb: 6.3.3 (4ae9cef)
C        -4.75391396416238    0.56544424106414   -2.37212451312838
C        -5.07771198845137   -0.71729148861834   -2.03503717185460
C        -4.13988441769702   -1.52070151484810   -1.37138781618408
C        -2.91426435559788   -1.02279636264347   -1.02709149454400
C        -2.55765931628133    0.31089351333930   -1.32593705534355
C        -3.49302510986902    1.10683660978566   -2.04363046756060
C        -3.14943375994257    2.42072952685614   -2.42163554851383
C        -1.92107927709720    2.93324167545849   -2.11763333209979
C        -1.01378616836900    2.17286111922526   -1.37094463380050
C        -1.32298993800818    0.90277586373593   -0.94896921413670
C        -0.34831594245237    0.18501204284414   -0.05156121558736
C         0.92268958735650   -0.28731098907790   -0.78645055388288
C         0.80616486938499   -1.71470009052925   -1.24998993764178
C         0.69011287983252   -1.94426788561154   -2.59756243925527
C         0.51437517894065   -3.23583212573620   -3.10792518165796
C         0.45048707612363   -4.30203991289977   -2.25855435945655
C         0.56191492605210   -4.11540979143711   -0.86570057990387
C         0.74112116366955   -2.80526447374168   -0.34039720822668
C         0.84268989678501   -2.66776504304351    1.06260383353378
C         0.77320290486283   -3.75352047052957    1.89088118534271
C         0.59673171895569   -5.04179534609844    1.36738522315843
C         0.49441046999912   -5.21422759171177    0.01691732790434
N         1.98142548716686   -0.05242438850678    0.18934671688917
C         3.26868742398988   -0.42208592034492   -0.10189699180239
C         4.27228954187212   -0.00674303262919    0.91159438339342
C         4.24066463834672   -0.34744630679210    2.22883191005759
S         5.59843590185282    0.26878778302449    3.08540218666514
C         6.22383456741191    1.01253725132899    1.64456644902845
C         7.48210474680847    1.80132954468412    1.68857612303696
C         5.41785423729029    0.76430909224125    0.58151334838235
O         3.54011402324554   -1.08608503636804   -1.07516327808392
C         1.62255002371672    1.05382836692430    1.03436082061429
C         2.23870005107127    2.39408717687271    0.51386853565162
O         1.96799439834692    3.44420659965650    1.25592619992812
O         2.91324784067786    2.42394616728578   -0.47520524448071
N         0.16978077767555    1.06812624818954    0.98769070894148
C        -0.57600353243492    1.78782946414524    1.84345538955233
C        -2.03972622389960    1.57982508849421    1.74295304794155
C        -2.69775717618471    0.43487457968154    2.07071997983431
S        -4.38700022191417    0.56396818545085    1.79467180207054
C        -4.21459597576904    2.19054667097196    1.21753404889690
C        -5.39653415094193    2.95303366508498    0.74121448594849
C        -2.91880746375772    2.59066254991285    1.27014768041794
O        -0.06505911043926    2.58346910934525    2.62952175221917
H        -5.45678064163428    1.18868256257130   -2.90670491619298
H        -6.04537507093159   -1.12441389182504   -2.28718564379038
H        -4.39101431048562   -2.54336503882216   -1.13332893992847
H        -2.20772769548804   -1.67721182361751   -0.54006143701377
H        -3.87324486975333    3.00925367728805   -2.96635764339042
H        -1.64522614988757    3.92970566556547   -2.42750397982144
H        -0.06110703448743    2.61091153730210   -1.10779407723827
H        -0.82904782702729   -0.67027115091620    0.42984372182856
H         1.10138001979366    0.35054394216682   -1.66408699019901
H         0.74118698340216   -1.11277969195156   -3.28488530998415
H         0.43296004779511   -3.37573918292157   -4.17524681664132
H         0.31661134502341   -5.30492250706447   -2.63760343042795
H         0.99288090327440   -1.69165224667169    1.49538532165828
H         0.85709090263618   -3.62324199898660    2.96043304107169
H         0.54660291783598   -5.88788551649857    2.03661739355002
H         0.36192995267895   -6.20150464536860   -0.40219503144155
H         3.52534004050273   -0.95769842131127    2.74508450130414
H         8.29593718167407    1.20815810592499    2.10373029856465
H         7.35857743495273    2.68467034372616    2.31516118352816
H         7.75168811461698    2.11973414040798    0.68490264764564
H         5.60147837989124    1.12603617892481   -0.41310876581091
H         1.96382680254432    0.91404629102611    2.07233495462954
H         1.29292380716148    3.24616435064893    1.97294369127442
H        -2.29904055151396   -0.47165552012296    2.48128341605371
H        -6.12965082709610    3.06878164239642    1.53871448702327
H        -5.08828313795088    3.93792802554936    0.40011740896309
H        -5.87744011366902    2.42736759029633   -0.08313514305225
H        -2.58051084198370    3.56490421786655    0.96776115561761

          :  Hamiltonian                  GFN2-xTB          :
         :: total energy            -120.027680050432 Eh    ::
         :: gradient norm              0.000458902513 Eh/a0 ::
         :: HOMO-LUMO gap              2.744625359908 eV    ::
         :: SCC energy              -121.859621304322 Eh    ::
         :: -> dispersion             -0.115810044007 Eh    ::
         :: repulsion energy           1.827333202737 Eh    ::

    * Orbital Energies and Occupations

         #    Occupation            Energy/Eh            Energy/eV
      -------------------------------------------------------------
         1        2.0000           -0.7527391             -20.4831
       ...           ...                  ...                  ...
        97        2.0000           -0.4278303             -11.6419
        98        2.0000           -0.4232753             -11.5179
        99        2.0000           -0.4188923             -11.3986
       100        2.0000           -0.4154110             -11.3039
       101        2.0000           -0.4135804             -11.2541
       102        2.0000           -0.4068126             -11.0699
       103        2.0000           -0.4045396             -11.0081
       104        2.0000           -0.4020232             -10.9396
       105        2.0000           -0.3958887             -10.7727
       106        2.0000           -0.3950826             -10.7507
       107        2.0000           -0.3935377             -10.7087
       108        2.0000           -0.3857561             -10.4970
       109        2.0000           -0.3816499             -10.3852 (HOMO)
       110                         -0.2807867              -7.6406 (LUMO)
       111                         -0.2686320              -7.3098
       112                         -0.2671209              -7.2687
       113                         -0.2509542              -6.8288
       114                         -0.2478238              -6.7436
       115                         -0.2464896              -6.7073
       116                         -0.2452785              -6.6744
       117                         -0.2346653              -6.3856
       118                         -0.2204532              -5.9988
       119                         -0.2163280              -5.8866
       120                         -0.2107661              -5.7352
       ...                                ...                  ...
       214                          0.6945108              18.8986
      -------------------------------------------------------------
                  HL-Gap            0.1008631 Eh            2.7446 eV

     #   Z          covCN         q      C6AA      Î±(0)
     1   6 C        2.921    -0.034    28.844     8.807
     2   6 C        2.915    -0.027    28.686     8.783
     3   6 C        2.917    -0.026    28.651     8.777
     4   6 C        2.917    -0.035    28.870     8.811
     5   6 C        2.984     0.007    27.853     8.657
     6   6 C        2.988     0.015    27.660     8.627
     7   6 C        2.921    -0.035    28.871     8.811
     8   6 C        2.914    -0.029    28.713     8.787
     9   6 C        2.923    -0.032    28.805     8.801
    10   6 C        2.968    -0.010    28.274     8.722
    11   6 C        3.821     0.037    19.935     6.354
    12   6 C        3.836     0.053    19.659     6.308
    13   6 C        2.967     0.006    27.877     8.660
    14   6 C        2.924    -0.027    28.680     8.782
    15   6 C        2.914    -0.026    28.653     8.778
    16   6 C        2.920    -0.034    28.845     8.807
    17   6 C        2.988     0.016    27.640     8.624
    18   6 C        2.983     0.012    27.741     8.640
    19   6 C        2.917    -0.038    28.952     8.823
    20   6 C        2.916    -0.030    28.754     8.793
    21   6 C        2.915    -0.030    28.738     8.791
    22   6 C        2.921    -0.032    28.810     8.802
    23   7 N        2.764    -0.128    23.784     7.243
    24   6 C        2.761     0.284    22.181     7.713
    25   6 C        3.167    -0.033    28.453     8.716
    26   6 C        2.939    -0.033    28.823     8.805
    27  16 S        2.332    -0.029   142.261    20.075
    28   6 C        2.982     0.030    27.332     8.576
    29   6 C        3.776    -0.109    22.609     6.775
    30   6 C        3.120    -0.048    29.016     8.822
    31   8 O        0.859    -0.403    21.744     6.252
    32   6 C        3.762     0.082    19.261     6.256
    33   6 C        2.684     0.349    21.071     7.512
    34   8 O        1.653    -0.372    20.322     6.085
    35   8 O        0.856    -0.369    21.080     6.156
    36   7 N        2.766    -0.113    23.463     7.194
    37   6 C        2.760     0.272    22.401     7.751
    38   6 C        3.173    -0.028    28.308     8.691
    39   6 C        2.939    -0.028    28.692     8.785
    40  16 S        2.338    -0.007   141.341    20.010
    41   6 C        2.983     0.028    27.363     8.581
    42   6 C        3.777    -0.110    22.631     6.778
    43   6 C        3.123    -0.053    29.123     8.838
    44   8 O        0.860    -0.456    22.837     6.407
    45   1 H        0.926     0.036     2.499     2.472
    46   1 H        0.926     0.038     2.479     2.462
    47   1 H        0.926     0.038     2.482     2.464
    48   1 H        0.926     0.028     2.621     2.532
    49   1 H        0.926     0.040     2.450     2.448
    50   1 H        0.926     0.042     2.419     2.432
    51   1 H        0.926     0.034     2.527     2.486
    52   1 H        0.924     0.057     2.240     2.341
    53   1 H        0.923     0.055     2.258     2.350
    54   1 H        0.926     0.038     2.482     2.464
    55   1 H        0.926     0.039     2.458     2.452
    56   1 H        0.926     0.038     2.474     2.459
    57   1 H        0.926     0.025     2.659     2.550
    58   1 H        0.926     0.029     2.606     2.524
    59   1 H        0.926     0.033     2.542     2.493
    60   1 H        0.926     0.035     2.510     2.477
    61   1 H        0.926     0.038     2.472     2.459
    62   1 H        0.925     0.058     2.223     2.332
    63   1 H        0.925     0.059     2.210     2.325
    64   1 H        0.925     0.058     2.228     2.334
    65   1 H        0.926     0.059     2.213     2.326
    66   1 H        0.923     0.061     2.189     2.314
    67   1 H        0.799     0.367     0.552     1.167
    68   1 H        0.926     0.045     2.377     2.411
    69   1 H        0.925     0.063     2.162     2.299
    70   1 H        0.925     0.057     2.233     2.337
    71   1 H        0.925     0.059     2.206     2.323
    72   1 H        0.926     0.046     2.375     2.410

Wiberg/Mayer (AO) data.
largest (>0.10) Wiberg bond orders for each atom

     #   Z sym  total        # sym  WBO       # sym  WBO       # sym  WBO
 ---------------------------------------------------------------------------
     1   6 C    3.991 --     2 C    1.558     6 C    1.279    45 H    0.968
                             4 C    0.118
     2   6 C    3.992 --     1 C    1.558     3 C    1.322    46 H    0.970
     3   6 C    3.991 --     4 C    1.555     2 C    1.322    47 H    0.971
     4   6 C    3.992 --     3 C    1.555     5 C    1.283    48 H    0.961
                             1 C    0.118
     5   6 C    3.989 --     4 C    1.283    10 C    1.254     6 C    1.252
     6   6 C    3.990 --     7 C    1.280     1 C    1.279     5 C    1.252
     7   6 C    3.990 --     8 C    1.550     6 C    1.280    49 H    0.968
                            10 C    0.115
     8   6 C    3.992 --     7 C    1.550     9 C    1.329    50 H    0.970
     9   6 C    3.991 --    10 C    1.520     8 C    1.329    51 H    0.967
    10   6 C    3.984 --     9 C    1.520     5 C    1.254    11 C    0.991
                             7 C    0.115
    11   6 C    3.959 --    10 C    0.991    36 N    0.952    12 C    0.951
                            52 H    0.945
    12   6 C    3.964 --    13 C    0.994    23 N    0.955    53 H    0.952
                            11 C    0.951
    13   6 C    3.984 --    14 C    1.523    18 C    1.252    12 C    0.994
                            16 C    0.115
    14   6 C    3.989 --    13 C    1.523    15 C    1.327    54 H    0.967
    15   6 C    3.991 --    16 C    1.553    14 C    1.327    55 H    0.970
    16   6 C    3.990 --    15 C    1.553    17 C    1.279    56 H    0.968
                            13 C    0.115
    17   6 C    3.990 --    22 C    1.280    16 C    1.279    18 C    1.253
    18   6 C    3.989 --    19 C    1.283    17 C    1.253    13 C    1.252
    19   6 C    3.992 --    20 C    1.554    18 C    1.283    57 H    0.964
                            22 C    0.118
    20   6 C    3.992 --    19 C    1.554    21 C    1.322    58 H    0.971
    21   6 C    3.992 --    22 C    1.557    20 C    1.322    59 H    0.971
    22   6 C    3.991 --    21 C    1.557    17 C    1.280    60 H    0.968
                            19 C    0.118
    23   7 N    3.421 --    24 C    1.164    32 C    0.999    12 C    0.955
                            31 O    0.176
    24   6 C    3.944 --    31 O    1.717    23 N    1.164    25 C    0.969
    25   6 C    3.982 --    26 C    1.586    30 C    1.230    24 C    0.969
    26   6 C    3.946 --    25 C    1.586    27 S    1.187    61 H    0.970
                            28 C    0.110
    27  16 S    2.606 --    26 C    1.187    28 C    1.151
    28   6 C    3.952 --    30 C    1.618    27 S    1.151    29 C    1.040
                            26 C    0.110
    29   6 C    3.994 --    28 C    1.040    64 H    0.979    62 H    0.971
                            63 H    0.968
    30   6 C    3.984 --    28 C    1.618    25 C    1.230    65 H    0.961
    31   8 O    2.043 --    24 C    1.717    23 N    0.176
    32   6 C    3.959 --    23 N    0.999    36 N    0.968    66 H    0.939
                            33 C    0.884
    33   6 C    3.930 --    35 O    1.776    34 O    1.209    32 C    0.884
    34   8 O    2.234 --    33 C    1.209    67 H    0.756    35 O    0.184
    35   8 O    2.082 --    33 C    1.776    34 O    0.184
    36   7 N    3.500 --    37 C    1.271    32 C    0.968    11 C    0.952
                            44 O    0.186
    37   6 C    3.944 --    44 O    1.590    36 N    1.271    38 C    0.975
    38   6 C    3.981 --    39 C    1.585    43 C    1.226    37 C    0.975
    39   6 C    3.948 --    38 C    1.585    40 S    1.195    68 H    0.970
                            41 C    0.107
    40  16 S    2.618 --    39 C    1.195    41 C    1.159
    41   6 C    3.954 --    43 C    1.612    40 S    1.159    42 C    1.040
                            39 C    0.107
    42   6 C    3.993 --    41 C    1.040    70 H    0.979    71 H    0.968
                            69 H    0.968
    43   6 C    3.983 --    41 C    1.612    38 C    1.226    72 H    0.963
    44   8 O    2.020 --    37 C    1.590    36 N    0.186
    45   1 H    0.998 --     1 C    0.968
    46   1 H    0.998 --     2 C    0.970
    47   1 H    0.998 --     3 C    0.971
    48   1 H    0.999 --     4 C    0.961
    49   1 H    0.997 --     7 C    0.968
    50   1 H    0.997 --     8 C    0.970
    51   1 H    0.998 --     9 C    0.967
    52   1 H    0.996 --    11 C    0.945
    53   1 H    0.996 --    12 C    0.952
    54   1 H    0.998 --    14 C    0.967
    55   1 H    0.997 --    15 C    0.970
    56   1 H    0.997 --    16 C    0.968
    57   1 H    0.999 --    19 C    0.964
    58   1 H    0.999 --    20 C    0.971
    59   1 H    0.998 --    21 C    0.971
    60   1 H    0.998 --    22 C    0.968
    61   1 H    0.998 --    26 C    0.970
    62   1 H    0.996 --    29 C    0.971
    63   1 H    0.996 --    29 C    0.968
    64   1 H    0.996 --    29 C    0.979
    65   1 H    0.997 --    30 C    0.961
    66   1 H    0.995 --    32 C    0.939
    67   1 H    0.865 --    34 O    0.756
    68   1 H    0.998 --    39 C    0.970
    69   1 H    0.996 --    42 C    0.968
    70   1 H    0.996 --    42 C    0.979
    71   1 H    0.996 --    42 C    0.968
    72   1 H    0.998 --    43 C    0.963
 ---------------------------------------------------------------------------

molecular dipole:
                 x           y           z       tot (Debye)
 q only:       -2.502      -0.475       0.096
   full:       -2.485      -0.391       0.119       6.402

           -------------------------------------------------
          | TOTAL ENERGY             -120.027680050432 Eh   |
          | GRADIENT NORM               0.000458902513 Eh/Î± |
          | HOMO-LUMO GAP               2.744625359908 eV   |
           -------------------------------------------------

 * finished run on 2022/03/16 at 22:18:20.227
