   * xtb version 6.3.3 (4ae9cef) compiled by 'conda@95abc7406d43' on 2020-10-14
          program call               : xtb acid_403.xyz --opt --chrg 0 --uhf 0 --gfn 2
          number of atoms            :                    74
          number of electrons        :                   214
          charge                     :                     0
          spin                       :                   0.0

   ID    Z sym.   atoms
    1    6 C      1-14, 16-24, 27, 28, 32-40
    2    7 N      15, 31
    3   16 S      25, 41
    4    8 O      26, 29, 30, 42
    5    1 H      43-74

          :  Hamiltonian                  GFN2-xTB          :
 * total energy  :  -117.7913495 Eh     change       -0.2489202E-08 Eh
 * total energy  :  -117.8050339 Eh     change       -0.1368444E-01 Eh
 * total energy  :  -117.8099706 Eh     change       -0.4936648E-02 Eh
 * total energy  :  -117.8115235 Eh     change       -0.1552896E-02 Eh
 * total energy  :  -117.8124735 Eh     change       -0.9499663E-03 Eh
 * total energy  :  -117.8130249 Eh     change       -0.5514001E-03 Eh
 * total energy  :  -117.8134998 Eh     change       -0.4749809E-03 Eh
 * total energy  :  -117.8138387 Eh     change       -0.3388812E-03 Eh
 * total energy  :  -117.8140885 Eh     change       -0.2497816E-03 Eh
 * total energy  :  -117.8142643 Eh     change       -0.1758088E-03 Eh
 * total energy  :  -117.8178947 Eh     change       -0.9903841E-05 Eh
 * total energy  :  -117.8179055 Eh     change       -0.1073088E-04 Eh
 * total energy  :  -117.8179158 Eh     change       -0.1034559E-04 Eh
 * total energy  :  -117.8179245 Eh     change       -0.8714750E-05 Eh
 * total energy  :  -117.8179344 Eh     change       -0.9841523E-05 Eh
 * total energy  :  -117.8179467 Eh     change       -0.1234062E-04 Eh
 * total energy  :  -117.8179604 Eh     change       -0.1374811E-04 Eh
 * total energy  :  -117.8179656 Eh     change       -0.5140512E-05 Eh
 * total energy  :  -117.8179697 Eh     change       -0.4161701E-05 Eh
   *** GEOMETRY OPTIMIZATION CONVERGED AFTER 69 ITERATIONS ***

 final structure:
================
74
 xtb: 6.3.3 (4ae9cef)
C        -1.33089804141763    0.19993305410632   -1.79732025497701
C        -2.09755722187596    0.58776491944127   -2.88054949845422
C        -3.34349331529238    0.02140183551896   -3.09031208969609
C        -3.81243642837150   -0.94886768935842   -2.22203391420635
C        -3.04504929734517   -1.34005522704403   -1.13986243870348
C        -1.80525104748448   -0.75876356462861   -0.91028243671995
C        -0.99681966851348   -1.14927213359628    0.30435239038661
C         0.27413815961308   -1.93387704600924   -0.06935629754882
C         0.66663936130645   -3.01225172547874    0.91785626673503
C         1.46975519153440   -4.05530685242763    0.46809127890835
C         1.90647000757252   -5.03341711594087    1.34264765239094
C         1.54402709393989   -4.98389387640204    2.67832072102048
C         0.74457334406378   -3.94987595100804    3.13206059150662
C         0.30791118050667   -2.96672891555290    2.25955898105520
N         1.29559291416254   -0.88930981342161   -0.11353134777989
C         2.38583704278043   -1.02044933975673   -0.91587035590420
C         3.41428447414806    0.02664874301717   -0.93633774770727
C         4.70189746411850   -0.22723600183180   -1.32523254995406
C         5.52673178327635    0.91653707941651   -1.34856175997410
C         6.97560478370818    0.93807288489162   -1.72457422026529
C         7.62519537621599    2.24751248188264   -1.27778572976781
C         6.76622560062218    3.43822336472756   -1.69744463260470
C         5.43372196630050    3.41995125982613   -0.94613039453006
C         4.85194411529035    2.05131002399827   -1.00652707322348
S         3.19940760468015    1.72290157848410   -0.61726077518110
O         2.51157800809426   -2.00568369108784   -1.62503971534215
C         0.97119932785619    0.08670436448504    0.88636823426643
C         1.64105990915469   -0.20296228800598    2.24087184680346
O         2.92154869301106   -0.53644542966069    2.07457366887205
O         1.10725039819320   -0.11074883595047    3.30712768393178
N        -0.46902375779427    0.02743693435569    0.98940676199236
C        -1.14945342979713    1.19829610577888    1.17134699463905
C        -2.61701503242858    1.10860141840272    1.12700580706190
C        -3.43472114359216    1.97839085575815    0.46750062796270
C        -4.80494108977457    1.65100608322695    0.57643687414797
C        -5.01780276455852    0.54727325348294    1.34670822607469
C        -6.34944457589091   -0.03476324770442    1.67066943415549
C        -7.38740394185420    0.49904450112329    0.68160651783830
C        -7.26353852697510    2.01541589014368    0.55191851033713
C        -5.92610809240501    2.38774219972691   -0.08673004271785
S        -3.53392221114745   -0.11403608567830    1.94611009136490
O        -0.56828133329096    2.25251583462817    1.34085718185604
H        -0.36455684661241    0.65485373132924   -1.63628067875301
H        -1.72249794542486    1.33865056427993   -3.55974840352866
H        -3.94569690854217    0.33441647345036   -3.93029122211271
H        -4.78079574242733   -1.39910643760562   -2.38341001823381
H        -3.41514773660560   -2.09278855071922   -0.45884798983242
H        -1.62285560563783   -1.74304259103352    0.97686321860065
H         0.19993047388088   -2.37059600884557   -1.07044718967749
H         1.76408895290028   -4.08280700729508   -0.56979909110538
H         2.53109427473043   -5.83625720997587    0.97993968197918
H         1.88350568521832   -5.74743480293606    3.36275816976147
H         0.45814916847248   -3.90031866238856    4.17215774843258
H        -0.30599319811963   -2.16751921341362    2.64557503644776
H         5.03390326619809   -1.21791059406051   -1.57789291966425
H         7.48625251704006    0.08401672227568   -1.27432482837266
H         7.06109565587768    0.83452170523813   -2.81096301818776
H         7.73174766683509    2.24878168271425   -0.19099240764696
H         8.62181107900901    2.33130620298279   -1.71405004490025
H         6.57878401798400    3.38433517354709   -2.77154292038388
H         7.28876163116104    4.37362404457523   -1.49199115923163
H         4.73917356435659    4.14698729597870   -1.37245304525926
H         5.59342123283674    3.70033660178705    0.10046922793071
H         1.26205357806558    1.11295059703969    0.61374012053205
H         3.34627666495112   -0.70193160118279    2.93210730869410
H        -3.05683786149320    2.81233257867478   -0.09594610078458
H        -6.30670118428498   -1.12555041962667    1.63425466669747
H        -6.63170076298323    0.24539380407032    2.69115815293724
H        -7.22471498039030    0.04133391474145   -0.29623596294943
H        -8.38858627289737    0.22878195743069    1.02073060613461
H        -8.08246848123128    2.40888200493954   -0.05247808270981
H        -7.32990455943175    2.46604720880860    1.54424308010337
H        -5.75469781505122    3.46389152806031   -0.01713115723450
H        -5.93632740871780    2.12508047130156   -1.14982384568966

          :  Hamiltonian                  GFN2-xTB          :
         :: total energy            -117.817969748534 Eh    ::
         :: gradient norm              0.000605969103 Eh/a0 ::
         :: HOMO-LUMO gap              3.104963947166 eV    ::
         :: SCC energy              -119.506730170375 Eh    ::
         :: -> dispersion             -0.107324611627 Eh    ::
         :: repulsion energy           1.686346324439 Eh    ::

    * Orbital Energies and Occupations

         #    Occupation            Energy/Eh            Energy/eV
      -------------------------------------------------------------
         1        2.0000           -0.7622240             -20.7412
       ...           ...                  ...                  ...
        95        2.0000           -0.4222600             -11.4903
        96        2.0000           -0.4146653             -11.2836
        97        2.0000           -0.4133970             -11.2491
        98        2.0000           -0.4082430             -11.1089
        99        2.0000           -0.4059718             -11.0471
       100        2.0000           -0.4028558             -10.9623
       101        2.0000           -0.3988928             -10.8544
       102        2.0000           -0.3945620             -10.7366
       103        2.0000           -0.3934124             -10.7053
       104        2.0000           -0.3922430             -10.6735
       105        2.0000           -0.3903416             -10.6217
       106        2.0000           -0.3814552             -10.3799
       107        2.0000           -0.3790987             -10.3158 (HOMO)
       108                         -0.2649934              -7.2108 (LUMO)
       109                         -0.2601093              -7.0779
       110                         -0.2503113              -6.8113
       111                         -0.2367447              -6.4422
       112                         -0.2316528              -6.3036
       113                         -0.2283036              -6.2125
       114                         -0.2235009              -6.0818
       115                         -0.2117275              -5.7614
       116                         -0.2068055              -5.6275
       117                         -0.1963938              -5.3441
       118                         -0.1926731              -5.2429
       ...                                ...                  ...
       210                          0.6808273              18.5263
      -------------------------------------------------------------
                  HL-Gap            0.1141053 Eh            3.1050 eV

     #   Z          covCN         q      C6AA      Î±(0)
     1   6 C        2.923    -0.030    28.747     8.793
     2   6 C        2.920    -0.026    28.658     8.779
     3   6 C        2.920    -0.029    28.730     8.790
     4   6 C        2.920    -0.027    28.673     8.781
     5   6 C        2.924    -0.035    28.859     8.810
     6   6 C        2.973    -0.001    28.059     8.689
     7   6 C        3.823     0.032    20.011     6.366
     8   6 C        3.844     0.040    19.874     6.341
     9   6 C        2.971    -0.003    28.086     8.693
    10   6 C        2.925    -0.033    28.822     8.804
    11   6 C        2.919    -0.028    28.704     8.786
    12   6 C        2.919    -0.031    28.762     8.795
    13   6 C        2.920    -0.029    28.735     8.791
    14   6 C        2.922    -0.040    28.986     8.829
    15   7 N        2.766    -0.112    23.446     7.192
    16   6 C        2.769     0.270    22.441     7.758
    17   6 C        2.982    -0.015    28.377     8.738
    18   6 C        3.122    -0.040    28.794     8.788
    19   6 C        3.154    -0.009    27.953     8.646
    20   6 C        3.808    -0.057    21.588     6.614
    21   6 C        3.807    -0.058    21.608     6.617
    22   6 C        3.809    -0.057    21.591     6.614
    23   6 C        3.824    -0.056    21.570     6.609
    24   6 C        3.000     0.025    27.438     8.593
    25  16 S        2.324    -0.062   143.637    20.171
    26   8 O        0.861    -0.442    22.528     6.364
    27   6 C        3.782     0.092    19.083     6.223
    28   6 C        2.688     0.356    20.960     7.492
    29   8 O        1.659    -0.370    20.270     6.078
    30   8 O        0.856    -0.374    21.178     6.170
    31   7 N        2.766    -0.120    23.616     7.218
    32   6 C        2.782     0.275    22.354     7.744
    33   6 C        2.989    -0.013    28.332     8.731
    34   6 C        3.116    -0.044    28.923     8.809
    35   6 C        3.157    -0.010    27.957     8.645
    36   6 C        2.999     0.020    27.542     8.609
    37   6 C        3.823    -0.057    21.579     6.610
    38   6 C        3.809    -0.057    21.587     6.614
    39   6 C        3.807    -0.058    21.612     6.618
    40   6 C        3.808    -0.056    21.573     6.612
    41  16 S        2.326    -0.049   143.068    20.131
    42   8 O        0.859    -0.428    22.248     6.324
    43   1 H        0.926     0.034     2.533     2.489
    44   1 H        0.926     0.039     2.468     2.457
    45   1 H        0.926     0.036     2.507     2.476
    46   1 H        0.926     0.035     2.511     2.478
    47   1 H        0.926     0.035     2.518     2.481
    48   1 H        0.924     0.065     2.145     2.290
    49   1 H        0.924     0.076     2.018     2.221
    50   1 H        0.926     0.059     2.206     2.322
    51   1 H        0.926     0.037     2.495     2.470
    52   1 H        0.926     0.033     2.538     2.491
    53   1 H        0.926     0.037     2.492     2.469
    54   1 H        0.926     0.042     2.417     2.431
    55   1 H        0.926     0.057     2.232     2.336
    56   1 H        0.924     0.043     2.410     2.428
    57   1 H        0.924     0.045     2.379     2.412
    58   1 H        0.924     0.037     2.492     2.469
    59   1 H        0.924     0.034     2.525     2.485
    60   1 H        0.924     0.040     2.449     2.448
    61   1 H        0.924     0.036     2.500     2.473
    62   1 H        0.924     0.049     2.328     2.386
    63   1 H        0.924     0.050     2.325     2.384
    64   1 H        0.923     0.106     1.729     2.056
    65   1 H        0.804     0.340     0.611     1.228
    66   1 H        0.926     0.047     2.355     2.400
    67   1 H        0.924     0.047     2.363     2.404
    68   1 H        0.924     0.051     2.313     2.378
    69   1 H        0.924     0.038     2.470     2.458
    70   1 H        0.924     0.037     2.496     2.470
    71   1 H        0.924     0.035     2.523     2.484
    72   1 H        0.924     0.039     2.464     2.455
    73   1 H        0.924     0.044     2.391     2.418
    74   1 H        0.924     0.042     2.423     2.434

Wiberg/Mayer (AO) data.
largest (>0.10) Wiberg bond orders for each atom

     #   Z sym  total        # sym  WBO       # sym  WBO       # sym  WBO
 ---------------------------------------------------------------------------
     1   6 C    3.992 --     2 C    1.448     6 C    1.410    43 H    0.968
                             4 C    0.111
     2   6 C    3.992 --     1 C    1.448     3 C    1.436    44 H    0.971
                             5 C    0.110
     3   6 C    3.990 --     4 C    1.440     2 C    1.436    45 H    0.971
                             6 C    0.109
     4   6 C    3.992 --     5 C    1.443     3 C    1.440    46 H    0.971
                             1 C    0.111
     5   6 C    3.990 --     4 C    1.443     6 C    1.413    47 H    0.968
                             2 C    0.110
     6   6 C    3.986 --     5 C    1.413     1 C    1.410     7 C    0.988
                             3 C    0.109
     7   6 C    3.964 --     6 C    0.988     8 C    0.963    31 N    0.959
                            48 H    0.950
     8   6 C    3.962 --     9 C    0.982     7 C    0.963    49 H    0.953
                            15 N    0.952
     9   6 C    3.983 --    14 C    1.418    10 C    1.409     8 C    0.982
                            12 C    0.109
    10   6 C    3.988 --    11 C    1.448     9 C    1.409    50 H    0.965
                            13 C    0.112
    11   6 C    3.992 --    10 C    1.448    12 C    1.436    51 H    0.971
                            14 C    0.111
    12   6 C    3.991 --    13 C    1.443    11 C    1.436    52 H    0.971
                             9 C    0.109
    13   6 C    3.992 --    12 C    1.443    14 C    1.438    53 H    0.971
                            10 C    0.112
    14   6 C    3.991 --    13 C    1.438     9 C    1.418    54 H    0.965
                            11 C    0.111
    15   7 N    3.466 --    16 C    1.196    27 C    0.992     8 C    0.952
                            26 O    0.177
    16   6 C    3.952 --    26 O    1.635    15 N    1.196    17 C    1.033
    17   6 C    3.940 --    18 C    1.550    25 S    1.129    16 C    1.033
                            24 C    0.106
    18   6 C    3.985 --    17 C    1.550    19 C    1.271    55 H    0.962
                            25 S    0.100
    19   6 C    3.984 --    24 C    1.549    18 C    1.271    20 C    1.007
    20   6 C    3.997 --    19 C    1.007    21 C    1.007    56 H    0.968
                            57 H    0.961
    21   6 C    3.997 --    22 C    1.009    20 C    1.007    58 H    0.978
                            59 H    0.978
    22   6 C    3.996 --    21 C    1.009    23 C    1.000    60 H    0.978
                            61 H    0.977
    23   6 C    3.995 --    24 C    1.027    22 C    1.000    62 H    0.965
                            63 H    0.956
    24   6 C    3.947 --    19 C    1.549    25 S    1.156    23 C    1.027
                            17 C    0.106
    25  16 S    2.608 --    24 C    1.156    17 C    1.129    18 C    0.100
    26   8 O    1.990 --    16 C    1.635    15 N    0.177
    27   6 C    3.967 --    15 N    0.992    31 N    0.985    28 C    0.915
                            64 H    0.907
    28   6 C    3.918 --    30 O    1.791    29 O    1.143    27 C    0.915
    29   8 O    2.209 --    28 C    1.143    65 H    0.858    30 O    0.180
    30   8 O    2.071 --    28 C    1.791    29 O    0.180
    31   7 N    3.439 --    32 C    1.184    27 C    0.985     7 C    0.959
                            42 O    0.178
    32   6 C    3.949 --    42 O    1.671    31 N    1.184    33 C    1.012
    33   6 C    3.944 --    34 C    1.571    41 S    1.132    32 C    1.012
                            36 C    0.107
    34   6 C    3.986 --    33 C    1.571    35 C    1.258    66 H    0.963
    35   6 C    3.984 --    36 C    1.561    34 C    1.258    40 C    1.007
    36   6 C    3.946 --    35 C    1.561    41 S    1.154    37 C    1.026
                            33 C    0.107
    37   6 C    3.996 --    36 C    1.026    38 C    1.000    67 H    0.967
                            68 H    0.957
    38   6 C    3.997 --    39 C    1.009    37 C    1.000    69 H    0.978
                            70 H    0.977
    39   6 C    3.997 --    38 C    1.009    40 C    1.006    72 H    0.978
                            71 H    0.978
    40   6 C    3.997 --    35 C    1.007    39 C    1.006    73 H    0.968
                            74 H    0.961
    41  16 S    2.594 --    36 C    1.154    33 C    1.132
    42   8 O    2.016 --    32 C    1.671    31 N    0.178
    43   1 H    0.999 --     1 C    0.968
    44   1 H    0.998 --     2 C    0.971
    45   1 H    0.998 --     3 C    0.971
    46   1 H    0.998 --     4 C    0.971
    47   1 H    0.999 --     5 C    0.968
    48   1 H    0.995 --     7 C    0.950
    49   1 H    0.994 --     8 C    0.953
    50   1 H    0.996 --    10 C    0.965
    51   1 H    0.998 --    11 C    0.971
    52   1 H    0.998 --    12 C    0.971
    53   1 H    0.998 --    13 C    0.971
    54   1 H    0.998 --    14 C    0.965
    55   1 H    0.997 --    18 C    0.962
    56   1 H    0.998 --    20 C    0.968
    57   1 H    0.998 --    20 C    0.961
    58   1 H    0.999 --    21 C    0.978
    59   1 H    0.998 --    21 C    0.978
    60   1 H    0.998 --    22 C    0.978
    61   1 H    0.998 --    22 C    0.977
    62   1 H    0.996 --    23 C    0.965
    63   1 H    0.996 --    23 C    0.956
    64   1 H    0.988 --    27 C    0.907
    65   1 H    0.884 --    29 O    0.858
    66   1 H    0.998 --    34 C    0.963
    67   1 H    0.997 --    37 C    0.967
    68   1 H    0.996 --    37 C    0.957
    69   1 H    0.999 --    38 C    0.978
    70   1 H    0.998 --    38 C    0.977
    71   1 H    0.998 --    39 C    0.978
    72   1 H    0.998 --    39 C    0.978
    73   1 H    0.998 --    40 C    0.968
    74   1 H    0.998 --    40 C    0.961
 ---------------------------------------------------------------------------

molecular dipole:
                 x           y           z       tot (Debye)
 q only:       -0.469      -0.278      -0.366
   full:       -0.126      -0.079      -0.448       1.201

           -------------------------------------------------
          | TOTAL ENERGY             -117.817969748534 Eh   |
          | GRADIENT NORM               0.000605969103 Eh/Î± |
          | HOMO-LUMO GAP               3.104963947166 eV   |
           -------------------------------------------------

 * finished run on 2022/03/17 at 00:47:13.207
