   * xtb version 6.3.3 (4ae9cef) compiled by 'conda@95abc7406d43' on 2020-10-14
          program call               : xtb acid_194.xyz --opt --chrg 0 --uhf 0 --gfn 2
          number of atoms            :                    86
          number of electrons        :                   282
          charge                     :                     0
          spin                       :                   0.0

   ID    Z sym.   atoms
    1    6 C      1, 2, 6-15, 19-22, 24-36, 38, 39, 43-55
    2    9 F      3-5, 16-18
    3    7 N      23, 42
    4    8 O      37, 40, 41, 56
    5    1 H      57-86

          :  Hamiltonian                  GFN2-xTB          :
 * total energy  :  -160.0536922 Eh     change       -0.2802182E-08 Eh
 * total energy  :  -160.0725007 Eh     change       -0.1880852E-01 Eh
 * total energy  :  -160.0786725 Eh     change       -0.6171783E-02 Eh
 * total energy  :  -160.0807804 Eh     change       -0.2107916E-02 Eh
 * total energy  :  -160.0822184 Eh     change       -0.1437995E-02 Eh
 * total energy  :  -160.0831358 Eh     change       -0.9174182E-03 Eh
 * total energy  :  -160.0839220 Eh     change       -0.7861879E-03 Eh
 * total energy  :  -160.0846913 Eh     change       -0.7692735E-03 Eh
 * total energy  :  -160.0853786 Eh     change       -0.6873068E-03 Eh
 * total energy  :  -160.0859393 Eh     change       -0.5607205E-03 Eh
 * total energy  :  -160.0877993 Eh     change       -0.2531562E-04 Eh
 * total energy  :  -160.0878159 Eh     change       -0.1656877E-04 Eh
 * total energy  :  -160.0878322 Eh     change       -0.1629480E-04 Eh
 * total energy  :  -160.0878489 Eh     change       -0.1670195E-04 Eh
 * total energy  :  -160.0878630 Eh     change       -0.1407248E-04 Eh
 * total energy  :  -160.0878750 Eh     change       -0.1203805E-04 Eh
 * total energy  :  -160.0878847 Eh     change       -0.9681026E-05 Eh
 * total energy  :  -160.0878911 Eh     change       -0.6459604E-05 Eh
 * total energy  :  -160.0878956 Eh     change       -0.4454548E-05 Eh
   *** GEOMETRY OPTIMIZATION CONVERGED AFTER 39 ITERATIONS ***

 final structure:
================
86
 xtb: 6.3.3 (4ae9cef)
C        -1.30906005334527   -2.90298978854851   -1.58962433716893
C        -0.61891156095721   -2.37214167559781   -2.81936866602209
F        -0.59280012050894   -3.26888996037614   -3.81824799913098
F        -1.19590387363277   -1.27939521844033   -3.34154646433735
F         0.66636497988366   -2.05682631995145   -2.59521614600275
C        -1.93668092868958   -4.13878724442285   -1.71803514250553
C        -2.55156996843060   -4.74262509141546   -0.64022951460176
C        -2.52526203047226   -4.11566960369881    0.59159581976099
C        -1.92170442717644   -2.88136213566235    0.71569569008208
C        -1.31829165186353   -2.23434519351072   -0.36180312160946
C        -0.74816873494285   -0.87279246108427   -0.04700598964321
C         0.77002384516233   -0.83425498279993    0.26835236499639
C         1.03704617916730   -1.25259137139267    1.68751323558655
C         1.69901993783335   -2.43779413385714    2.00956082071603
C         2.20644697725684   -3.35986451700526    0.93456944628759
F         2.76066559527889   -4.47666233753031    1.42628199873252
F         1.21501359908928   -3.78535863761604    0.11450244303580
F         3.13286874693918   -2.80637565762312    0.13948197718642
C         1.90118775200249   -2.79448801806072    3.33849513934002
C         1.44583646891877   -1.97836107269701    4.35553943306579
C         0.77909429705327   -0.80472685446479    4.04680612936877
C         0.57153312957105   -0.45442190768735    2.72794212190689
N         1.05517594898107    0.57536620138236    0.02705371092447
C         2.06014219566197    1.27626438273799    0.61488432556765
C         2.03762905337405    2.73796588787381    0.27600622957364
C         2.80655094463753    3.31561907263093   -0.73600785715805
C         3.71402019941858    2.51957290038992   -1.57884836334305
C         4.60892955033357    1.61046718616824   -1.02141615205202
C         5.44367329018350    0.86645109124313   -1.83553115373009
C         5.39767755828013    1.01974879117269   -3.21145315347892
C         4.51861186378047    1.93232029463492   -3.77323902673663
C         3.68588264344137    2.68259608448162   -2.96297016298243
C         2.68748271676959    4.68646701741073   -0.96000772394812
C         1.83942914676372    5.46574457525302   -0.19775739403667
C         1.08617314424112    4.88636642399263    0.80975884642211
C         1.18626099908141    3.52732302290271    1.04181085090252
O         2.80937283559868    0.78656609639737    1.43212360242921
C         0.29126068265569    0.99121098336629   -1.11811391310590
C         1.06888118601506    0.77358415456810   -2.43980517938229
O         2.17674973369823    0.07137869731310   -2.23256183986493
O         0.72866997053599    1.20542666855847   -3.49961207108726
N        -0.90814982858948    0.16997630709221   -1.04888612181425
C        -2.11655454117058    0.71651388271751   -1.39261541036753
C        -3.30843315507461   -0.09616054891861   -0.98324424949856
C        -3.94014996134859   -0.87083798595374   -1.94683178596789
C        -5.02961909890439   -1.65521818661033   -1.61481486110435
C        -5.50906453546205   -1.65129429800874   -0.31612594966585
C        -4.90927251111580   -0.85253239584406    0.63810931616171
C        -3.80727515814380   -0.06050072285602    0.32407936092917
C        -3.20323367283716    0.78889069132488    1.36760336029631
C        -3.00382241626224    0.28442681184846    2.65351064075904
C        -2.43253410982723    1.06743456834584    3.63927331492617
C        -2.05485242269115    2.37105448725821    3.36066734819004
C        -2.26744809365826    2.88873471358794    2.09369201144918
C        -2.83873296187956    2.10800742857166    1.10438940519323
O        -2.19302665064284    1.75602902320202   -2.00422830800924
H        -1.93413591993254   -4.63613832271965   -2.67500447115179
H        -3.03400986342753   -5.69919136369122   -0.76254751072687
H        -2.97944683894569   -4.58108105091205    1.45258066748493
H        -1.91017674645325   -2.39538571767518    1.67986532783656
H        -1.25796366140433   -0.53880845315323    0.86898658144866
H         1.33328896801393   -1.43784190405581   -0.44682918492349
H         2.42178062100623   -3.71024238559390    3.57136277568394
H         1.61600762424454   -2.25699497974152    5.38366035942590
H         0.42555335007024   -0.15728902728335    4.83438876246362
H         0.05958079807599    0.46722515175162    2.49547101600623
H         4.65763947221791    1.49289151926670    0.04942470234254
H         6.13246230002828    0.16336604531036   -1.39221740771462
H         6.04841469710376    0.43462642881223   -3.84475239228627
H         4.47980294399666    2.05986569691817   -4.84533877800143
H         2.98534504773694    3.37577133353714   -3.40523389063010
H         3.28575677069673    5.14128861715589   -1.73553087657134
H         1.76677170221631    6.52622042307322   -0.38696508212747
H         0.42454805285776    5.49098230225487    1.41169076388193
H         0.60034284503783    3.06451666767670    1.82344637043337
H         0.00157366922391    2.05192133221116   -1.08797445285077
H         2.67622535859639   -0.05988776715601   -3.05506403138149
H        -3.56819419444723   -0.85144335407098   -2.95891358122625
H        -5.50699489454678   -2.26080464229357   -2.36984512553169
H        -6.36170504642454   -2.25811850409311   -0.05030883016511
H        -5.31158491817474   -0.81835646230802    1.64001638429759
H        -3.28766466635624   -0.73444920770052    2.87698504781425
H        -2.28298335859094    0.65840550434814    4.62779585429003
H        -1.60588814625279    2.98179696594254    4.13010007511942
H        -1.99552965112473    3.91003992093673    1.87233177777362
H        -3.02596801901560    2.53287910844970    0.13127826354459

          :  Hamiltonian                  GFN2-xTB          :
         :: total energy            -160.087895585441 Eh    ::
         :: gradient norm              0.000554503037 Eh/a0 ::
         :: HOMO-LUMO gap              3.102159985214 eV    ::
         :: SCC energy              -162.296506816525 Eh    ::
         :: -> dispersion             -0.142909439896 Eh    ::
         :: repulsion energy           2.199432116977 Eh    ::

    * Orbital Energies and Occupations

         #    Occupation            Energy/Eh            Energy/eV
      -------------------------------------------------------------
         1        2.0000           -0.8815097             -23.9871
       ...           ...                  ...                  ...
       129        2.0000           -0.4271887             -11.6244
       130        2.0000           -0.4227983             -11.5049
       131        2.0000           -0.4216207             -11.4729
       132        2.0000           -0.4213603             -11.4658
       133        2.0000           -0.4173577             -11.3569
       134        2.0000           -0.4149124             -11.2903
       135        2.0000           -0.4147351             -11.2855
       136        2.0000           -0.4075211             -11.0892
       137        2.0000           -0.4041557             -10.9976
       138        2.0000           -0.4019743             -10.9383
       139        2.0000           -0.3998618             -10.8808
       140        2.0000           -0.3988344             -10.8528
       141        2.0000           -0.3910668             -10.6415 (HOMO)
       142                         -0.2770645              -7.5393 (LUMO)
       143                         -0.2697612              -7.3406
       144                         -0.2671325              -7.2690
       145                         -0.2634464              -7.1687
       146                         -0.2585484              -7.0355
       147                         -0.2520523              -6.8587
       148                         -0.2480985              -6.7511
       149                         -0.2446718              -6.6579
       150                         -0.2408859              -6.5548
       151                         -0.2365902              -6.4379
       152                         -0.2264299              -6.1615
       ...                                ...                  ...
       254                          0.6836251              18.6024
      -------------------------------------------------------------
                  HL-Gap            0.1140023 Eh            3.1022 eV

     #   Z          covCN         q      C6AA      Î±(0)
     1   6 C        2.975    -0.025    28.610     8.774
     2   6 C        3.336     0.489    17.246     6.576
     3   9 F        0.793    -0.204    11.272     3.966
     4   9 F        0.791    -0.204    11.281     3.967
     5   9 F        0.792    -0.209    11.329     3.976
     6   6 C        2.927    -0.022    28.545     8.762
     7   6 C        2.920    -0.022    28.547     8.762
     8   6 C        2.918    -0.018    28.464     8.749
     9   6 C        2.935    -0.031    28.767     8.796
    10   6 C        2.964     0.011    27.774     8.644
    11   6 C        3.836     0.040    19.885     6.344
    12   6 C        3.837     0.045    19.787     6.328
    13   6 C        2.971     0.026    27.429     8.591
    14   6 C        2.977    -0.029    28.708     8.789
    15   6 C        3.335     0.485    17.305     6.589
    16   9 F        0.792    -0.202    11.252     3.962
    17   9 F        0.791    -0.225    11.498     4.005
    18   9 F        0.791    -0.199    11.223     3.957
    19   6 C        2.923    -0.022    28.550     8.762
    20   6 C        2.920    -0.023    28.569     8.765
    21   6 C        2.919    -0.017    28.433     8.744
    22   6 C        2.927    -0.019    28.477     8.751
    23   7 N        2.775    -0.116    23.518     7.203
    24   6 C        2.760     0.279    22.277     7.729
    25   6 C        2.981    -0.026    28.636     8.778
    26   6 C        2.977     0.013    27.729     8.638
    27   6 C        2.978     0.005    27.910     8.666
    28   6 C        2.923    -0.032    28.787     8.799
    29   6 C        2.919    -0.028    28.702     8.785
    30   6 C        2.919    -0.035    28.876     8.812
    31   6 C        2.918    -0.035    28.868     8.811
    32   6 C        2.925    -0.036    28.905     8.817
    33   6 C        2.927    -0.030    28.760     8.795
    34   6 C        2.918    -0.027    28.674     8.781
    35   6 C        2.919    -0.028    28.703     8.786
    36   6 C        2.926    -0.028    28.701     8.786
    37   8 O        0.858    -0.420    22.090     6.302
    38   6 C        3.780     0.092    19.074     6.222
    39   6 C        2.686     0.355    20.981     7.496
    40   8 O        1.659    -0.359    20.066     6.047
    41   8 O        0.856    -0.361    20.926     6.133
    42   7 N        2.761    -0.132    23.864     7.255
    43   6 C        2.764     0.279    22.285     7.731
    44   6 C        2.978    -0.020    28.505     8.758
    45   6 C        2.923    -0.027    28.669     8.781
    46   6 C        2.919    -0.030    28.738     8.791
    47   6 C        2.918    -0.030    28.745     8.792
    48   6 C        2.926    -0.034    28.855     8.809
    49   6 C        2.977     0.007    27.865     8.659
    50   6 C        2.975     0.006    27.890     8.663
    51   6 C        2.925    -0.038    28.943     8.823
    52   6 C        2.918    -0.031    28.771     8.796
    53   6 C        2.919    -0.031    28.764     8.795
    54   6 C        2.919    -0.028    28.695     8.784
    55   6 C        2.923    -0.036    28.906     8.817
    56   8 O        0.859    -0.399    21.666     6.241
    57   1 H        0.926     0.074     2.044     2.236
    58   1 H        0.926     0.062     2.181     2.309
    59   1 H        0.926     0.058     2.227     2.334
    60   1 H        0.926     0.045     2.378     2.411
    61   1 H        0.923     0.054     2.266     2.354
    62   1 H        0.924     0.078     2.004     2.214
    63   1 H        0.926     0.068     2.109     2.271
    64   1 H        0.926     0.058     2.222     2.331
    65   1 H        0.926     0.056     2.246     2.343
    66   1 H        0.926     0.048     2.346     2.395
    67   1 H        0.926     0.052     2.297     2.370
    68   1 H        0.926     0.038     2.473     2.459
    69   1 H        0.926     0.032     2.557     2.500
    70   1 H        0.926     0.034     2.528     2.487
    71   1 H        0.926     0.037     2.489     2.467
    72   1 H        0.926     0.044     2.394     2.419
    73   1 H        0.926     0.041     2.434     2.440
    74   1 H        0.926     0.038     2.472     2.458
    75   1 H        0.926     0.029     2.597     2.520
    76   1 H        0.923     0.087     1.904     2.158
    77   1 H        0.804     0.348     0.594     1.210
    78   1 H        0.926     0.053     2.281     2.362
    79   1 H        0.926     0.042     2.424     2.434
    80   1 H        0.926     0.039     2.458     2.452
    81   1 H        0.926     0.041     2.440     2.443
    82   1 H        0.926     0.026     2.643     2.542
    83   1 H        0.926     0.031     2.572     2.508
    84   1 H        0.926     0.034     2.533     2.489
    85   1 H        0.926     0.038     2.478     2.462
    86   1 H        0.926     0.051     2.313     2.378

Wiberg/Mayer (AO) data.
largest (>0.10) Wiberg bond orders for each atom

     #   Z sym  total        # sym  WBO       # sym  WBO       # sym  WBO
 ---------------------------------------------------------------------------
     1   6 C    3.972 --     6 C    1.411    10 C    1.389     2 C    0.949
                             8 C    0.105
     2   6 C    3.825 --     3 F    0.950     1 C    0.949     4 F    0.946
                             5 F    0.942
     3   9 F    1.073 --     2 C    0.950
     4   9 F    1.077 --     2 C    0.946
     5   9 F    1.072 --     2 C    0.942
     6   6 C    3.986 --     7 C    1.446     1 C    1.411    57 H    0.964
                             9 C    0.109
     7   6 C    3.988 --     6 C    1.446     8 C    1.429    58 H    0.968
                            10 C    0.109
     8   6 C    3.990 --     9 C    1.453     7 C    1.429    59 H    0.968
                             1 C    0.105
     9   6 C    3.989 --     8 C    1.453    10 C    1.402    60 H    0.964
                             6 C    0.109
    10   6 C    3.986 --     9 C    1.402     1 C    1.389    11 C    0.998
                             7 C    0.109
    11   6 C    3.971 --    10 C    0.998    42 N    0.968    12 C    0.940
                            61 H    0.938
    12   6 C    3.968 --    13 C    1.001    23 N    0.959    62 H    0.950
                            11 C    0.940
    13   6 C    3.987 --    22 C    1.402    14 C    1.389    12 C    1.001
                            20 C    0.108
    14   6 C    3.969 --    19 C    1.409    13 C    1.389    15 C    0.951
                            21 C    0.103
    15   6 C    3.822 --    16 F    0.954    18 F    0.952    14 C    0.951
                            17 F    0.926
    16   9 F    1.077 --    15 C    0.954
    17   9 F    1.053 --    15 C    0.926
    18   9 F    1.083 --    15 C    0.952
    19   6 C    3.987 --    20 C    1.447    14 C    1.409    63 H    0.966
                            22 C    0.110
    20   6 C    3.989 --    19 C    1.447    21 C    1.428    64 H    0.969
                            13 C    0.108
    21   6 C    3.990 --    22 C    1.453    20 C    1.428    65 H    0.968
                            14 C    0.103
    22   6 C    3.990 --    21 C    1.453    13 C    1.402    66 H    0.963
                            19 C    0.110
    23   7 N    3.457 --    24 C    1.201    38 C    0.993    12 C    0.959
                            37 O    0.186
    24   6 C    3.940 --    37 O    1.697    23 N    1.201    25 C    0.951
    25   6 C    3.984 --    36 C    1.406    26 C    1.370    24 C    0.951
                            34 C    0.106
    26   6 C    3.987 --    33 C    1.386    25 C    1.370    27 C    1.040
                            35 C    0.104
    27   6 C    3.989 --    28 C    1.394    32 C    1.389    26 C    1.040
                            30 C    0.106
    28   6 C    3.990 --    29 C    1.447    27 C    1.394    67 H    0.967
                            31 C    0.109
    29   6 C    3.992 --    28 C    1.447    30 C    1.437    68 H    0.970
                            32 C    0.110
    30   6 C    3.988 --    29 C    1.437    31 C    1.433    69 H    0.971
                            27 C    0.106
    31   6 C    3.992 --    32 C    1.450    30 C    1.433    70 H    0.971
                            28 C    0.109
    32   6 C    3.991 --    31 C    1.450    27 C    1.389    71 H    0.969
                            29 C    0.110
    33   6 C    3.990 --    34 C    1.455    26 C    1.386    72 H    0.967
                            36 C    0.109
    34   6 C    3.991 --    33 C    1.455    35 C    1.428    73 H    0.970
                            25 C    0.106
    35   6 C    3.987 --    36 C    1.443    34 C    1.428    74 H    0.970
                            26 C    0.104
    36   6 C    3.990 --    35 C    1.443    25 C    1.406    75 H    0.967
                            33 C    0.109
    37   8 O    2.025 --    24 C    1.697    23 N    0.186
    38   6 C    3.962 --    23 N    0.993    42 N    0.969    76 H    0.936
                            39 C    0.905
    39   6 C    3.925 --    41 O    1.799    40 O    1.160    38 C    0.905
    40   8 O    2.228 --    39 C    1.160    77 H    0.848    41 O    0.189
    41   8 O    2.084 --    39 C    1.799    40 O    0.189
    42   7 N    3.425 --    43 C    1.176    38 C    0.969    11 C    0.968
                            56 O    0.182
    43   6 C    3.940 --    56 O    1.722    42 N    1.176    44 C    0.956
    44   6 C    3.986 --    45 C    1.413    49 C    1.360    43 C    0.956
                            47 C    0.106
    45   6 C    3.989 --    46 C    1.439    44 C    1.413    78 H    0.967
                            48 C    0.108
    46   6 C    3.987 --    45 C    1.439    47 C    1.431    79 H    0.970
                            49 C    0.104
    47   6 C    3.991 --    48 C    1.450    46 C    1.431    80 H    0.970
                            44 C    0.106
    48   6 C    3.990 --    47 C    1.450    49 C    1.391    81 H    0.967
                            45 C    0.108
    49   6 C    3.987 --    48 C    1.391    44 C    1.360    50 C    1.041
                            46 C    0.104
    50   6 C    3.989 --    55 C    1.389    51 C    1.383    49 C    1.041
                            53 C    0.105
    51   6 C    3.991 --    52 C    1.451    50 C    1.383    82 H    0.967
                            54 C    0.108
    52   6 C    3.992 --    51 C    1.451    53 C    1.431    83 H    0.970
                            55 C    0.108
    53   6 C    3.987 --    54 C    1.437    52 C    1.431    84 H    0.971
                            50 C    0.105
    54   6 C    3.992 --    55 C    1.447    53 C    1.437    85 H    0.970
                            51 C    0.108
    55   6 C    3.990 --    54 C    1.447    50 C    1.389    86 H    0.966
                            52 C    0.108
    56   8 O    2.045 --    43 C    1.722    42 N    0.182
    57   1 H    0.994 --     6 C    0.964
    58   1 H    0.995 --     7 C    0.968
    59   1 H    0.996 --     8 C    0.968
    60   1 H    0.998 --     9 C    0.964
    61   1 H    0.997 --    11 C    0.938
    62   1 H    0.993 --    12 C    0.950
    63   1 H    0.995 --    19 C    0.966
    64   1 H    0.996 --    20 C    0.969
    65   1 H    0.996 --    21 C    0.968
    66   1 H    0.997 --    22 C    0.963
    67   1 H    0.997 --    28 C    0.967
    68   1 H    0.998 --    29 C    0.970
    69   1 H    0.998 --    30 C    0.971
    70   1 H    0.998 --    31 C    0.971
    71   1 H    0.999 --    32 C    0.969
    72   1 H    0.997 --    33 C    0.967
    73   1 H    0.997 --    34 C    0.970
    74   1 H    0.998 --    35 C    0.970
    75   1 H    0.999 --    36 C    0.967
    76   1 H    0.992 --    38 C    0.936
    77   1 H    0.879 --    40 O    0.848
    78   1 H    0.997 --    45 C    0.967
    79   1 H    0.997 --    46 C    0.970
    80   1 H    0.997 --    47 C    0.970
    81   1 H    0.998 --    48 C    0.967
    82   1 H    0.999 --    51 C    0.967
    83   1 H    0.998 --    52 C    0.970
    84   1 H    0.998 --    53 C    0.971
    85   1 H    0.998 --    54 C    0.970
    86   1 H    0.997 --    55 C    0.966
 ---------------------------------------------------------------------------

molecular dipole:
                 x           y           z       tot (Debye)
 q only:       -1.396      -0.816       2.490
   full:       -1.371      -0.807       2.394       7.306

           -------------------------------------------------
          | TOTAL ENERGY             -160.087895585441 Eh   |
          | GRADIENT NORM               0.000554503037 Eh/Î± |
          | HOMO-LUMO GAP               3.102159985214 eV   |
           -------------------------------------------------

 * finished run on 2022/03/16 at 22:21:26.802
