   * xtb version 6.3.3 (4ae9cef) compiled by 'conda@95abc7406d43' on 2020-10-14
          program call               : xtb acid_333.xyz --opt --chrg 0 --uhf 0 --gfn 2
          number of atoms            :                    74
          number of electrons        :                   254
          charge                     :                     0
          spin                       :                   0.0

   ID    Z sym.   atoms
    1    6 C      1, 3-16, 18, 20-23, 28-30, 32, 33, 37-40, 45-47
    2    8 O      2, 17, 27, 31, 34, 35, 44, 48
    3    7 N      19, 36
    4    9 F      24-26, 41-43
    5    1 H      49-74

          :  Hamiltonian                  GFN2-xTB          :
 * total energy  :  -148.6016935 Eh     change       -0.2215501E-08 Eh
 * total energy  :  -148.6174645 Eh     change       -0.1577102E-01 Eh
 * total energy  :  -148.6233163 Eh     change       -0.5851857E-02 Eh
 * total energy  :  -148.6256640 Eh     change       -0.2347688E-02 Eh
 * total energy  :  -148.6277389 Eh     change       -0.2074917E-02 Eh
 * total energy  :  -148.6295764 Eh     change       -0.1837476E-02 Eh
 * total energy  :  -148.6310877 Eh     change       -0.1511275E-02 Eh
 * total energy  :  -148.6324503 Eh     change       -0.1362581E-02 Eh
 * total energy  :  -148.6334924 Eh     change       -0.1042126E-02 Eh
 * total energy  :  -148.6346269 Eh     change       -0.1134513E-02 Eh
 * total energy  :  -148.6525175 Eh     change       -0.9179269E-05 Eh
 * total energy  :  -148.6525204 Eh     change       -0.2903732E-05 Eh
 * total energy  :  -148.6523372 Eh     change        0.1832457E-03 Eh
 * total energy  :  -148.6524992 Eh     change       -0.1619679E-03 Eh
 * total energy  :  -148.6525273 Eh     change       -0.2810142E-04 Eh
 * total energy  :  -148.6524799 Eh     change        0.4739357E-04 Eh
 * total energy  :  -148.6525233 Eh     change       -0.4343938E-04 Eh
 * total energy  :  -148.6525292 Eh     change       -0.5893084E-05 Eh
 * total energy  :  -148.6525318 Eh     change       -0.2642237E-05 Eh
   *** GEOMETRY OPTIMIZATION CONVERGED AFTER 101 ITERATIONS ***

 final structure:
================
74
 xtb: 6.3.3 (4ae9cef)
C         0.93105685901629   -1.99007098378824    2.05179162988258
O         0.73966806354865   -0.68314260780557    2.37751154570625
C         0.77903180638965   -0.30751373145529    3.73549995651859
C         1.13637503912376   -3.00530194932246    2.97854767433961
C         1.31552088124243   -4.31129994762608    2.55768235220779
C         1.29157117851804   -4.62390830436958    1.21223698811912
C         1.08861950561957   -3.61680797993902    0.28503664114945
C         0.90458740465969   -2.30438983705297    0.68388187938607
C         0.69126511656153   -1.23005645780851   -0.35254850769636
C        -0.63363690895013   -0.45953856019652   -0.17493725679842
C        -1.54876673562287   -0.63615743517155   -1.36092437761599
C        -1.16962512298323   -0.17532931250594   -2.61121769890548
C        -2.00397570834458   -0.32534182446237   -3.70523187436140
C        -3.22741378360111   -0.94880791786387   -3.54680992953594
C        -3.62221459176079   -1.42077872021333   -2.30672274814063
C        -2.78969035334087   -1.27129076773027   -1.20319045057692
O        -3.09923339420083   -1.67824806439325    0.05673595133244
C        -4.34246963570004   -2.29557973147773    0.29144578598856
N        -0.21494735245402    0.92372237094692   -0.02873315467650
C        -0.97643861450541    2.02230403826434   -0.15217294366514
C        -2.44421690700945    1.78229912162118   -0.19200991077053
C        -3.25379870178766    1.35682468834912    0.82745924429266
C        -2.95764108783542    1.05497432179863    2.25538934041682
F        -3.04859296064401   -0.25302466409526    2.56287025483690
F        -1.72097214653125    1.43483714083208    2.59321519072579
F        -3.80227131797066    1.68144889717739    3.09016786489716
O        -4.53925795834688    1.29113508780328    0.41754901642513
C        -4.56891292979483    1.67985597386046   -0.87163437526085
C        -5.87551482333879    1.69932867479968   -1.57474727906188
C        -3.31245989064355    2.00472241231068   -1.29265190447510
O        -0.49013940855904    3.13622055324707   -0.22799056560853
C         1.21584058293244    1.07734536305337    0.11785554563417
C         1.71410625181928    2.25117831462409   -0.75056460706679
O         1.36545474725639    2.09184842436000   -2.02968664251617
O         2.41888959627391    3.13429607278526   -0.35602827939401
N         1.72764314229615   -0.20303537343258   -0.29648014980067
C         2.98819049331193   -0.51301509277940   -0.67456708304942
C         3.98711348950944    0.57702410355265   -0.48981491109378
C         4.52853759176878    1.03361737267867    0.68277190050281
C         4.29250477897674    0.62293087934566    2.09259071575206
F         3.45492190553277    1.44569054092150    2.75686778058687
F         3.74251706538895   -0.59737348728423    2.17158536986474
F         5.42146454154552    0.58783054925818    2.81350384399456
O         5.43960840816615    1.99758748617548    0.44284549739250
C         5.50016611380166    2.17105990884445   -0.88724600034980
C         6.41511386484858    3.20915614605666   -1.42174988140579
C         4.64024601927468    1.31315558924409   -1.51204728278831
O         3.28579629607612   -1.59231868816979   -1.13877648384995
H         0.62997818204534    0.77098171200945    3.74459407884362
H        -0.02254249905035   -0.78843283164819    4.30447950422716
H         1.74566834632661   -0.54537254677526    4.18776788955086
H         1.16292408790131   -2.78514321325870    4.03334777403793
H         1.47745593516349   -5.08497639823025    3.29346183578970
H         1.43631392825764   -5.64142541037802    0.88433124064697
H         1.08276592098670   -3.84767458293014   -0.76930120928310
H         0.73942808504801   -1.69936395873148   -1.34268704917963
H        -1.14304857998852   -0.80098719223245    0.73081195707371
H        -0.21620940846650    0.31955505305179   -2.72002812250290
H        -1.69931534407809    0.04033051894456   -4.67335603115770
H        -3.88693902575615   -1.07355225265006   -4.39251625771184
H        -4.58095604936653   -1.90434716699178   -2.20886603081158
H        -4.35581968243741   -2.51556218586580    1.35719176708375
H        -5.17435499513915   -1.62611595211073    0.05033597823800
H        -4.44197206216565   -3.22605756832168   -0.27527807296855
H        -5.71371398919017    1.76237508377980   -2.64604511205309
H        -6.44082042569282    0.79936643758355   -1.34290888513243
H        -6.46585387508257    2.55735390025378   -1.25423959350939
H        -3.02007638079449    2.34478970021155   -2.26329858772827
H         1.46557180122196    1.31295859668357    1.16512745967910
H         1.64552012969693    2.86391673199429   -2.54655993458640
H         6.01082202674892    4.19931382783764   -1.21400328505022
H         7.38771834985425    3.13460329378784   -0.94032496071442
H         6.52789226038502    3.08846950709637   -2.49445231636225
H         4.47594385408536    1.20693330390441   -2.56414170790609

          :  Hamiltonian                  GFN2-xTB          :
         :: total energy            -148.652531837901 Eh    ::
         :: gradient norm              0.000470679507 Eh/a0 ::
         :: HOMO-LUMO gap              3.064511297138 eV    ::
         :: SCC energy              -150.257164812801 Eh    ::
         :: -> dispersion             -0.109890867676 Eh    ::
         :: repulsion energy           1.599572507922 Eh    ::

    * Orbital Energies and Occupations

         #    Occupation            Energy/Eh            Energy/eV
      -------------------------------------------------------------
         1        2.0000           -0.8874017             -24.1474
       ...           ...                  ...                  ...
       115        2.0000           -0.4419696             -12.0266
       116        2.0000           -0.4353277             -11.8459
       117        2.0000           -0.4267909             -11.6136
       118        2.0000           -0.4258066             -11.5868
       119        2.0000           -0.4223041             -11.4915
       120        2.0000           -0.4190643             -11.4033
       121        2.0000           -0.4129715             -11.2375
       122        2.0000           -0.4103583             -11.1664
       123        2.0000           -0.4077565             -11.0956
       124        2.0000           -0.4024550             -10.9514
       125        2.0000           -0.3985043             -10.8439
       126        2.0000           -0.3949389             -10.7468
       127        2.0000           -0.3777492             -10.2791 (HOMO)
       128                         -0.2651304              -7.2146 (LUMO)
       129                         -0.2579633              -7.0195
       130                         -0.2474872              -6.7345
       131                         -0.2427095              -6.6045
       132                         -0.2335407              -6.3550
       133                         -0.2327353              -6.3330
       134                         -0.2255992              -6.1389
       135                         -0.2205882              -6.0025
       136                         -0.2126322              -5.7860
       137                         -0.1941734              -5.2837
       138                         -0.1841080              -5.0098
       ...                                ...                  ...
       218                          0.6662511              18.1296
      -------------------------------------------------------------
                  HL-Gap            0.1126187 Eh            3.0645 eV

     #   Z          covCN         q      C6AA      Î±(0)
     1   6 C        2.866     0.144    24.863     8.173
     2   8 O        1.705    -0.274    18.553     5.816
     3   6 C        3.643     0.033    20.353     6.486
     4   6 C        2.918    -0.064    29.583     8.919
     5   6 C        2.921    -0.029    28.730     8.790
     6   6 C        2.917    -0.039    28.981     8.828
     7   6 C        2.925    -0.029    28.719     8.788
     8   6 C        2.971    -0.020    28.501     8.757
     9   6 C        3.826     0.047    19.766     6.326
    10   6 C        3.813     0.033    20.007     6.367
    11   6 C        2.973    -0.027    28.674     8.784
    12   6 C        2.923    -0.037    28.926     8.820
    13   6 C        2.917    -0.042    29.034     8.836
    14   6 C        2.921    -0.033    28.817     8.803
    15   6 C        2.917    -0.068    29.694     8.936
    16   6 C        2.866     0.136    25.021     8.199
    17   8 O        1.705    -0.274    18.539     5.813
    18   6 C        3.643     0.036    20.315     6.480
    19   7 N        2.771    -0.085    22.889     7.106
    20   6 C        2.765     0.275    22.357     7.744
    21   6 C        3.062    -0.028    28.645     8.777
    22   6 C        3.116     0.072    26.233     8.390
    23   6 C        3.330     0.489    17.330     6.606
    24   9 F        0.791    -0.199    11.227     3.958
    25   9 F        0.792    -0.197    11.204     3.954
    26   9 F        0.792    -0.194    11.175     3.949
    27   8 O        1.729    -0.170    16.865     5.545
    28   6 C        3.095     0.130    25.045     8.202
    29   6 C        3.753    -0.123    22.907     6.825
    30   6 C        3.022    -0.069    29.685     8.937
    31   8 O        0.860    -0.415    21.990     6.287
    32   6 C        3.759     0.089    19.153     6.239
    33   6 C        2.687     0.367    20.771     7.459
    34   8 O        1.659    -0.366    20.208     6.069
    35   8 O        0.856    -0.385    21.388     6.200
    36   7 N        2.765    -0.098    23.158     7.147
    37   6 C        2.760     0.272    22.395     7.750
    38   6 C        3.061    -0.040    28.927     8.820
    39   6 C        3.124     0.070    26.263     8.392
    40   6 C        3.330     0.487    17.347     6.609
    41   9 F        0.791    -0.203    11.264     3.964
    42   9 F        0.792    -0.201    11.247     3.962
    43   9 F        0.791    -0.191    11.144     3.943
    44   8 O        1.730    -0.158    16.678     5.514
    45   6 C        3.100     0.137    24.898     8.177
    46   6 C        3.753    -0.124    22.941     6.830
    47   6 C        3.025    -0.071    29.739     8.945
    48   8 O        0.859    -0.408    21.831     6.264
    49   1 H        0.925     0.071     2.072     2.251
    50   1 H        0.924     0.044     2.401     2.423
    51   1 H        0.924     0.049     2.337     2.391
    52   1 H        0.926     0.045     2.384     2.415
    53   1 H        0.926     0.041     2.439     2.442
    54   1 H        0.926     0.041     2.433     2.439
    55   1 H        0.926     0.047     2.354     2.400
    56   1 H        0.924     0.074     2.042     2.235
    57   1 H        0.924     0.080     1.976     2.198
    58   1 H        0.926     0.057     2.238     2.339
    59   1 H        0.926     0.042     2.417     2.431
    60   1 H        0.926     0.041     2.429     2.437
    61   1 H        0.926     0.042     2.423     2.434
    62   1 H        0.925     0.074     2.041     2.234
    63   1 H        0.924     0.042     2.429     2.437
    64   1 H        0.924     0.046     2.376     2.411
    65   1 H        0.925     0.070     2.084     2.258
    66   1 H        0.925     0.073     2.051     2.240
    67   1 H        0.925     0.080     1.979     2.200
    68   1 H        0.927     0.065     2.141     2.288
    69   1 H        0.923     0.087     1.912     2.163
    70   1 H        0.804     0.343     0.605     1.222
    71   1 H        0.925     0.083     1.949     2.183
    72   1 H        0.925     0.078     1.998     2.210
    73   1 H        0.925     0.068     2.107     2.270
    74   1 H        0.927     0.060     2.199     2.319

Wiberg/Mayer (AO) data.
largest (>0.10) Wiberg bond orders for each atom

     #   Z sym  total        # sym  WBO       # sym  WBO       # sym  WBO
 ---------------------------------------------------------------------------
     1   6 C    3.936 --     4 C    1.377     8 C    1.323     2 O    1.067
     2   8 O    2.237 --     1 C    1.067     3 C    0.978
     3   6 C    3.939 --     2 O    0.978    49 H    0.978    50 H    0.977
                            51 H    0.976
     4   6 C    3.988 --     5 C    1.438     1 C    1.377    52 H    0.965
                             7 C    0.103
     5   6 C    3.990 --     6 C    1.442     4 C    1.438    53 H    0.971
                             8 C    0.105
     6   6 C    3.991 --     5 C    1.442     7 C    1.426    54 H    0.970
     7   6 C    3.988 --     8 C    1.437     6 C    1.426    55 H    0.966
                             4 C    0.103
     8   6 C    3.980 --     7 C    1.437     1 C    1.323     9 C    0.989
                             5 C    0.105
     9   6 C    3.960 --     8 C    0.989    10 C    0.957    56 H    0.953
                            36 N    0.949
    10   6 C    3.960 --    11 C    0.990    19 N    0.957     9 C    0.957
                            57 H    0.948
    11   6 C    3.982 --    12 C    1.434    16 C    1.323    10 C    0.990
                            14 C    0.106
    12   6 C    3.988 --    11 C    1.434    13 C    1.429    58 H    0.964
                            15 C    0.103
    13   6 C    3.991 --    14 C    1.440    12 C    1.429    59 H    0.970
    14   6 C    3.990 --    13 C    1.440    15 C    1.437    60 H    0.971
                            11 C    0.106
    15   6 C    3.986 --    14 C    1.437    16 C    1.376    61 H    0.965
                            12 C    0.103
    16   6 C    3.935 --    15 C    1.376    11 C    1.323    17 O    1.067
    17   8 O    2.239 --    16 C    1.067    18 C    0.978
    18   6 C    3.939 --    17 O    0.978    62 H    0.978    64 H    0.976
                            63 H    0.976
    19   7 N    3.507 --    20 C    1.259    32 C    0.974    10 C    0.957
                            31 O    0.200
    20   6 C    3.956 --    31 O    1.647    19 N    1.259    21 C    0.966
    21   6 C    3.981 --    22 C    1.529    30 C    1.268    20 C    0.966
    22   6 C    3.895 --    21 C    1.529    27 O    1.110    23 C    0.961
                            28 C    0.135
    23   6 C    3.847 --    22 C    0.961    25 F    0.956    26 F    0.950
                            24 F    0.941
    24   9 F    1.076 --    23 C    0.941
    25   9 F    1.080 --    23 C    0.956
    26   9 F    1.081 --    23 C    0.950
    27   8 O    2.446 --    28 C    1.123    22 C    1.110
    28   6 C    3.907 --    30 C    1.568    27 O    1.123    29 C    1.032
                            22 C    0.135
    29   6 C    3.988 --    28 C    1.032    65 H    0.980    66 H    0.971
                            67 H    0.960
    30   6 C    3.977 --    28 C    1.568    21 C    1.268    68 H    0.972
    31   8 O    2.051 --    20 C    1.647    19 N    0.200
    32   6 C    3.961 --    36 N    0.986    19 N    0.974    69 H    0.936
                            33 C    0.913
    33   6 C    3.926 --    35 O    1.776    34 O    1.137    32 C    0.913
    34   8 O    2.203 --    33 C    1.137    70 H    0.858    35 O    0.172
    35   8 O    2.063 --    33 C    1.776    34 O    0.172
    36   7 N    3.487 --    37 C    1.228    32 C    0.986     9 C    0.949
                            48 O    0.201
    37   6 C    3.957 --    48 O    1.687    36 N    1.228    38 C    0.963
    38   6 C    3.980 --    39 C    1.523    47 C    1.273    37 C    0.963
    39   6 C    3.895 --    38 C    1.523    44 O    1.116    40 C    0.962
                            45 C    0.135
    40   6 C    3.845 --    39 C    0.962    43 F    0.956    42 F    0.951
                            41 F    0.937
    41   9 F    1.073 --    40 C    0.937
    42   9 F    1.075 --    40 C    0.951
    43   9 F    1.084 --    40 C    0.956
    44   8 O    2.460 --    45 C    1.133    39 C    1.116
    45   6 C    3.907 --    47 C    1.558    44 O    1.133    46 C    1.033
                            39 C    0.135
    46   6 C    3.987 --    45 C    1.033    73 H    0.981    72 H    0.969
                            71 H    0.959
    47   6 C    3.975 --    45 C    1.558    38 C    1.273    74 H    0.973
    48   8 O    2.029 --    37 C    1.687    36 N    0.201
    49   1 H    0.994 --     3 C    0.978
    50   1 H    0.998 --     3 C    0.977
    51   1 H    0.998 --     3 C    0.976
    52   1 H    0.998 --     4 C    0.965
    53   1 H    0.998 --     5 C    0.971
    54   1 H    0.998 --     6 C    0.970
    55   1 H    0.997 --     7 C    0.966
    56   1 H    0.994 --     9 C    0.953
    57   1 H    0.993 --    10 C    0.948
    58   1 H    0.996 --    12 C    0.964
    59   1 H    0.998 --    13 C    0.970
    60   1 H    0.998 --    14 C    0.971
    61   1 H    0.998 --    15 C    0.965
    62   1 H    0.994 --    18 C    0.978
    63   1 H    0.998 --    18 C    0.976
    64   1 H    0.998 --    18 C    0.976
    65   1 H    0.995 --    29 C    0.980
    66   1 H    0.994 --    29 C    0.971
    67   1 H    0.993 --    29 C    0.960
    68   1 H    0.995 --    30 C    0.972
    69   1 H    0.992 --    32 C    0.936
    70   1 H    0.882 --    34 O    0.858
    71   1 H    0.993 --    46 C    0.959
    72   1 H    0.993 --    46 C    0.969
    73   1 H    0.995 --    46 C    0.981
    74   1 H    0.996 --    47 C    0.973
 ---------------------------------------------------------------------------

molecular dipole:
                 x           y           z       tot (Debye)
 q only:       -2.053      -0.440      -2.518
   full:       -2.257      -0.342      -2.336       8.302

           -------------------------------------------------
          | TOTAL ENERGY             -148.652531837901 Eh   |
          | GRADIENT NORM               0.000470679507 Eh/Î± |
          | HOMO-LUMO GAP               3.064511297138 eV   |
           -------------------------------------------------

 * finished run on 2022/03/16 at 23:56:35.952
