   * xtb version 6.3.3 (4ae9cef) compiled by 'conda@95abc7406d43' on 2020-10-14
          program call               : xtb acid_390.xyz --opt --chrg 0 --uhf 0 --gfn 2
          number of atoms            :                    60
          number of electrons        :                   178
          charge                     :                     0
          spin                       :                   0.0

   ID    Z sym.   atoms
    1    8 O      1, 12, 13, 22
    2    6 C      2-8, 10, 11, 15-21, 23-36
    3    7 N      9, 14
    4    1 H      37-60

          :  Hamiltonian                  GFN2-xTB          :
 * total energy  :   -98.5932560 Eh     change       -0.8744081E-09 Eh
 * total energy  :   -98.6049796 Eh     change       -0.1172360E-01 Eh
 * total energy  :   -98.6084215 Eh     change       -0.3441949E-02 Eh
 * total energy  :   -98.6093516 Eh     change       -0.9300200E-03 Eh
 * total energy  :   -98.6098568 Eh     change       -0.5052338E-03 Eh
 * total energy  :   -98.6101287 Eh     change       -0.2718993E-03 Eh
 * total energy  :   -98.6103913 Eh     change       -0.2625916E-03 Eh
 * total energy  :   -98.6106814 Eh     change       -0.2901244E-03 Eh
 * total energy  :   -98.6109663 Eh     change       -0.2849080E-03 Eh
 * total energy  :   -98.6111521 Eh     change       -0.1858298E-03 Eh
 * total energy  :   -98.6120343 Eh     change       -0.6603388E-05 Eh
 * total energy  :   -98.6120525 Eh     change       -0.1820944E-04 Eh
 * total energy  :   -98.6120631 Eh     change       -0.1060947E-04 Eh
 * total energy  :   -98.6120698 Eh     change       -0.6698363E-05 Eh
 * total energy  :   -98.6120802 Eh     change       -0.1046019E-04 Eh
 * total energy  :   -98.6120881 Eh     change       -0.7811781E-05 Eh
 * total energy  :   -98.6120947 Eh     change       -0.6592583E-05 Eh
 * total energy  :   -98.6120998 Eh     change       -0.5183358E-05 Eh
 * total energy  :   -98.6121036 Eh     change       -0.3741412E-05 Eh
   *** GEOMETRY OPTIMIZATION CONVERGED AFTER 34 ITERATIONS ***

 final structure:
================
60
 xtb: 6.3.3 (4ae9cef)
O        -3.31365089700290   -0.26113549225924    1.50718870722129
C        -2.73609241345044    0.66090135011034    0.97660426788165
C        -3.35662541432350    1.99952363427326    0.76279089155986
C        -3.92310005607964    2.66095463812293    1.84504245948912
C        -4.53157785768302    3.88993086497971    1.66362060034005
C        -4.59863375777300    4.45263234114002    0.39988037201182
C        -4.05971550324997    3.78249322385214   -0.68609950470167
C        -3.43679322999373    2.56035884489908   -0.50751523510569
N        -1.47813287319863    0.51715957874029    0.44665812686663
C        -0.52718971499539    1.58448809844929    0.29624446246697
C        -0.20723660443058    2.23406031724800    1.65900100364794
O         0.92968410227760    2.91626605414532    1.63087352758933
O        -0.91528362098105    2.14246823680963    2.62247751960334
N         0.62855911867979    0.94785482422490   -0.28697206315941
C         1.43743450318961    1.61825468436696   -1.15155994414601
C         2.54886481936815    0.77770249396326   -1.69713696814713
C         3.76219306340510    0.72150881944794   -1.02441510479382
C         4.78957026599905   -0.06204139148096   -1.51778668174512
C         4.61219426592769   -0.78650630627588   -2.68440083014577
C         3.40929593024897   -0.71729052519743   -3.36610184385657
C         2.37765230801993    0.06421056024232   -2.87575403466922
O         1.26562073499456    2.78729596581563   -1.41978782705659
C         0.57163365842617   -0.49843445720763   -0.13087118323033
C         1.76782926889777   -1.07509073165331    0.57682359523227
C         2.37493105544933   -2.22453394234072    0.09080421089055
C         3.47327105747501   -2.76160565325605    0.73754407199332
C         3.97388845080419   -2.15480883186682    1.87643515884570
C         3.36662165297691   -1.01348613202592    2.37196143792150
C         2.26635156055557   -0.47844019770245    1.72755167100297
C        -0.74668690646721   -0.72957095387756    0.64749159013903
C        -1.49558320013037   -1.92162279347364    0.11956551724223
C        -2.15558183749819   -1.84824730214082   -1.10044085491796
C        -2.81840580877047   -2.95235585530705   -1.60292085262377
C        -2.81582599702161   -4.14373224495624   -0.89722361106582
C        -2.15039441902657   -4.22467631833022    0.31352705952970
C        -1.49293829566736   -3.11790350523480    0.82078400624195
H        -3.86595115073543    2.20734695903622    2.82194641107889
H        -4.95990206032830    4.40765965966389    2.50900284569486
H        -5.07815961639378    5.41002597663470    0.25815939298929
H        -4.12531541827976    4.21259791117459   -1.67461061790409
H        -3.03362618815596    2.02990347526989   -1.35878257490565
H        -0.87287348433283    2.39668959856356   -0.36112212434811
H         1.08967459639792    3.37050779919842    2.47491063832291
H         3.89506112758012    1.29097033637184   -0.11694555786604
H         5.73018376583344   -0.10757451081098   -0.98974274594183
H         5.41439770689273   -1.39989858922108   -3.06701500006524
H         3.27297583603238   -1.27244515093889   -4.28247446507316
H         1.44039677596663    0.12571737411516   -3.41038427491350
H         0.48832263957565   -0.96414230747528   -1.12230106662759
H         1.98685550884769   -2.69614498855498   -0.80020840594999
H         3.94076465760297   -3.65383365558453    0.34916343308225
H         4.83427982666215   -2.57090826908937    2.37877608726398
H         3.75070170971815   -0.53964297492659    3.26322227311970
H         1.79647558455251    0.41374339004447    2.11363373154559
H        -0.53618695358619   -0.87082552944065    1.71740292428384
H        -2.16144862455944   -0.91709036559830   -1.64895934829671
H        -3.33942911835965   -2.88321476892079   -2.54658410790170
H        -3.33533300371315   -5.00559276971538   -1.28911602043159
H        -2.14793436891692   -5.15091329198758    0.86874505211556
H        -0.98008015725089   -3.17952020405214    1.76939880237433

          :  Hamiltonian                  GFN2-xTB          :
         :: total energy             -98.612103575786 Eh    ::
         :: gradient norm              0.000318658900 Eh/a0 ::
         :: HOMO-LUMO gap              3.449059457815 eV    ::
         :: SCC energy              -100.173147477809 Eh    ::
         :: -> dispersion             -0.085059025309 Eh    ::
         :: repulsion energy           1.558540716030 Eh    ::

    * Orbital Energies and Occupations

         #    Occupation            Energy/Eh            Energy/eV
      -------------------------------------------------------------
         1        2.0000           -0.7717666             -21.0008
       ...           ...                  ...                  ...
        77        2.0000           -0.4264110             -11.6032
        78        2.0000           -0.4229510             -11.5091
        79        2.0000           -0.4213861             -11.4665
        80        2.0000           -0.4185924             -11.3905
        81        2.0000           -0.4146943             -11.2844
        82        2.0000           -0.4121268             -11.2145
        83        2.0000           -0.4105762             -11.1723
        84        2.0000           -0.4084777             -11.1152
        85        2.0000           -0.4073428             -11.0844
        86        2.0000           -0.4054875             -11.0339
        87        2.0000           -0.3989012             -10.8547
        88        2.0000           -0.3961352             -10.7794
        89        2.0000           -0.3874313             -10.5425 (HOMO)
        90                         -0.2606807              -7.0935 (LUMO)
        91                         -0.2472169              -6.7271
        92                         -0.2452202              -6.6728
        93                         -0.2397615              -6.5242
        94                         -0.2376553              -6.4669
        95                         -0.2360715              -6.4238
        96                         -0.2281160              -6.2074
        97                         -0.2277971              -6.1987
        98                         -0.2259332              -6.1480
        99                         -0.2216431              -6.0312
       100                         -0.1975114              -5.3746
       ...                                ...                  ...
       168                          0.6723164              18.2947
      -------------------------------------------------------------
                  HL-Gap            0.1267506 Eh            3.4491 eV

     #   Z          covCN         q      C6AA      Î±(0)
     1   8 O        0.859    -0.407    21.830     6.264
     2   6 C        2.764     0.280    22.254     7.726
     3   6 C        2.976    -0.016    28.404     8.742
     4   6 C        2.924    -0.016    28.417     8.742
     5   6 C        2.920    -0.026    28.653     8.778
     6   6 C        2.920    -0.027    28.672     8.781
     7   6 C        2.919    -0.028    28.695     8.784
     8   6 C        2.922    -0.032    28.804     8.801
     9   7 N        2.765    -0.131    23.830     7.250
    10   6 C        3.776     0.094    19.046     6.218
    11   6 C        2.688     0.351    21.044     7.507
    12   8 O        1.659    -0.352    19.935     6.027
    13   8 O        0.856    -0.391    21.496     6.216
    14   7 N        2.766    -0.117    23.538     7.206
    15   6 C        2.764     0.274    22.376     7.747
    16   6 C        2.979    -0.012    28.307     8.727
    17   6 C        2.923    -0.023    28.582     8.767
    18   6 C        2.920    -0.026    28.648     8.777
    19   6 C        2.920    -0.027    28.686     8.783
    20   6 C        2.920    -0.027    28.676     8.782
    21   6 C        2.923    -0.026    28.664     8.780
    22   8 O        0.859    -0.418    22.048     6.296
    23   6 C        3.822     0.036    19.947     6.356
    24   6 C        2.972     0.000    28.021     8.683
    25   6 C        2.924    -0.033    28.834     8.806
    26   6 C        2.920    -0.026    28.655     8.778
    27   6 C        2.921    -0.028    28.711     8.787
    28   6 C        2.920    -0.027    28.676     8.781
    29   6 C        2.924    -0.030    28.758     8.794
    30   6 C        3.839     0.051    19.700     6.314
    31   6 C        2.974     0.014    27.690     8.632
    32   6 C        2.924    -0.029    28.728     8.790
    33   6 C        2.920    -0.027    28.665     8.780
    34   6 C        2.920    -0.028    28.710     8.787
    35   6 C        2.920    -0.025    28.632     8.775
    36   6 C        2.924    -0.028    28.711     8.787
    37   1 H        0.926     0.057     2.229     2.335
    38   1 H        0.926     0.040     2.443     2.444
    39   1 H        0.926     0.038     2.480     2.463
    40   1 H        0.926     0.038     2.469     2.457
    41   1 H        0.926     0.031     2.579     2.511
    42   1 H        0.923     0.093     1.846     2.125
    43   1 H        0.804     0.342     0.607     1.223
    44   1 H        0.926     0.037     2.486     2.466
    45   1 H        0.926     0.039     2.469     2.457
    46   1 H        0.926     0.039     2.467     2.456
    47   1 H        0.926     0.040     2.453     2.449
    48   1 H        0.926     0.035     2.521     2.483
    49   1 H        0.923     0.048     2.347     2.396
    50   1 H        0.926     0.032     2.564     2.504
    51   1 H        0.926     0.040     2.449     2.447
    52   1 H        0.926     0.040     2.447     2.446
    53   1 H        0.926     0.040     2.455     2.450
    54   1 H        0.926     0.032     2.563     2.504
    55   1 H        0.923     0.049     2.336     2.390
    56   1 H        0.926     0.030     2.581     2.512
    57   1 H        0.926     0.036     2.498     2.471
    58   1 H        0.926     0.037     2.492     2.469
    59   1 H        0.926     0.038     2.473     2.459
    60   1 H        0.926     0.035     2.522     2.484

Wiberg/Mayer (AO) data.
largest (>0.10) Wiberg bond orders for each atom

     #   Z sym  total        # sym  WBO       # sym  WBO       # sym  WBO
 ---------------------------------------------------------------------------
     1   8 O    2.034 --     2 C    1.717     9 N    0.175
     2   6 C    3.942 --     1 O    1.717     9 N    1.162     3 C    0.975
     3   6 C    3.987 --     4 C    1.404     8 C    1.398     2 C    0.975
                             6 C    0.109
     4   6 C    3.989 --     5 C    1.444     3 C    1.404    37 H    0.968
                             7 C    0.110
     5   6 C    3.992 --     4 C    1.444     6 C    1.440    38 H    0.970
                             8 C    0.111
     6   6 C    3.992 --     5 C    1.440     7 C    1.435    39 H    0.971
                             3 C    0.109
     7   6 C    3.992 --     8 C    1.447     6 C    1.435    40 H    0.970
                             4 C    0.110
     8   6 C    3.992 --     7 C    1.447     3 C    1.398    41 H    0.969
                             5 C    0.111
     9   7 N    3.413 --     2 C    1.162    10 C    0.995    30 C    0.960
                             1 O    0.175
    10   6 C    3.970 --     9 N    0.995    14 N    0.983    42 H    0.922
                            11 C    0.911
    11   6 C    3.917 --    13 O    1.774    12 O    1.163    10 C    0.911
    12   8 O    2.230 --    11 C    1.163    43 H    0.856    13 O    0.183
    13   8 O    2.063 --    11 C    1.774    12 O    0.183
    14   7 N    3.457 --    15 C    1.202    10 C    0.983    23 C    0.961
                            22 O    0.189
    15   6 C    3.943 --    22 O    1.703    14 N    1.202    16 C    0.956
    16   6 C    3.987 --    21 C    1.410    17 C    1.406    15 C    0.956
                            19 C    0.111
    17   6 C    3.991 --    18 C    1.443    16 C    1.406    44 H    0.970
                            20 C    0.113
    18   6 C    3.992 --    17 C    1.443    19 C    1.439    45 H    0.970
                            21 C    0.112
    19   6 C    3.992 --    20 C    1.440    18 C    1.439    46 H    0.971
                            16 C    0.111
    20   6 C    3.992 --    19 C    1.440    21 C    1.440    47 H    0.970
                            17 C    0.113
    21   6 C    3.991 --    20 C    1.440    16 C    1.410    48 H    0.970
                            18 C    0.112
    22   8 O    2.025 --    15 C    1.703    14 N    0.189
    23   6 C    3.966 --    24 C    0.992    14 N    0.961    49 H    0.954
                            30 C    0.949
    24   6 C    3.986 --    25 C    1.413    29 C    1.410    23 C    0.992
                            27 C    0.109
    25   6 C    3.990 --    26 C    1.444    24 C    1.413    50 H    0.968
                            28 C    0.111
    26   6 C    3.992 --    25 C    1.444    27 C    1.440    51 H    0.970
                            29 C    0.111
    27   6 C    3.990 --    26 C    1.440    28 C    1.437    52 H    0.971
                            24 C    0.109
    28   6 C    3.992 --    29 C    1.447    27 C    1.437    53 H    0.971
                            25 C    0.111
    29   6 C    3.992 --    28 C    1.447    24 C    1.410    54 H    0.967
                            26 C    0.111
    30   6 C    3.967 --    31 C    0.994     9 N    0.960    55 H    0.954
                            23 C    0.949
    31   6 C    3.985 --    36 C    1.416    32 C    1.408    30 C    0.994
                            34 C    0.109
    32   6 C    3.991 --    33 C    1.449    31 C    1.408    56 H    0.969
                            35 C    0.112
    33   6 C    3.992 --    32 C    1.449    34 C    1.435    57 H    0.971
                            36 C    0.111
    34   6 C    3.991 --    35 C    1.441    33 C    1.435    58 H    0.971
                            31 C    0.109
    35   6 C    3.992 --    36 C    1.442    34 C    1.441    59 H    0.971
                            32 C    0.112
    36   6 C    3.990 --    35 C    1.442    31 C    1.416    60 H    0.969
                            33 C    0.111
    37   1 H    0.997 --     4 C    0.968
    38   1 H    0.998 --     5 C    0.970
    39   1 H    0.998 --     6 C    0.971
    40   1 H    0.998 --     7 C    0.970
    41   1 H    0.999 --     8 C    0.969
    42   1 H    0.990 --    10 C    0.922
    43   1 H    0.882 --    12 O    0.856
    44   1 H    0.999 --    17 C    0.970
    45   1 H    0.998 --    18 C    0.970
    46   1 H    0.998 --    19 C    0.971
    47   1 H    0.998 --    20 C    0.970
    48   1 H    0.999 --    21 C    0.970
    49   1 H    0.997 --    23 C    0.954
    50   1 H    0.999 --    25 C    0.968
    51   1 H    0.998 --    26 C    0.970
    52   1 H    0.998 --    27 C    0.971
    53   1 H    0.998 --    28 C    0.971
    54   1 H    0.999 --    29 C    0.967
    55   1 H    0.997 --    30 C    0.954
    56   1 H    0.999 --    32 C    0.969
    57   1 H    0.998 --    33 C    0.971
    58   1 H    0.998 --    34 C    0.971
    59   1 H    0.998 --    35 C    0.971
    60   1 H    0.999 --    36 C    0.969
 ---------------------------------------------------------------------------

molecular dipole:
                 x           y           z       tot (Debye)
 q only:        1.397      -0.748      -0.301
   full:        1.540      -0.512      -0.224       4.163

           -------------------------------------------------
          | TOTAL ENERGY              -98.612103575786 Eh   |
          | GRADIENT NORM               0.000318658900 Eh/Î± |
          | HOMO-LUMO GAP               3.449059457815 eV   |
           -------------------------------------------------

 * finished run on 2022/03/17 at 00:37:14.585
