   * xtb version 6.3.3 (4ae9cef) compiled by 'conda@95abc7406d43' on 2020-10-14
          program call               : xtb acid_95.xyz --opt --chrg 0 --uhf 0 --gfn 2
          number of atoms            :                    60
          number of electrons        :                   230
          charge                     :                     0
          spin                       :                   0.0

   ID    Z sym.   atoms
    1    6 C      1, 2, 6-15, 19-22, 24-26, 29, 30, 32, 33, 37-39, 42, 43
    2    9 F      3-5, 16-18
    3    7 N      23, 36
    4   35 Br     27, 40
    5    8 O      28, 31, 34, 35, 41, 44
    6    1 H      45-60

          :  Hamiltonian                  GFN2-xTB          :
 * total energy  :  -134.9659749 Eh     change       -0.1103018E-08 Eh
 * total energy  :  -134.9843417 Eh     change       -0.1836689E-01 Eh
 * total energy  :  -134.9901468 Eh     change       -0.5805091E-02 Eh
 * total energy  :  -134.9914260 Eh     change       -0.1279131E-02 Eh
 * total energy  :  -134.9921080 Eh     change       -0.6820756E-03 Eh
 * total energy  :  -134.9924683 Eh     change       -0.3602519E-03 Eh
 * total energy  :  -134.9927678 Eh     change       -0.2994909E-03 Eh
 * total energy  :  -134.9930456 Eh     change       -0.2778343E-03 Eh
 * total energy  :  -134.9932946 Eh     change       -0.2489799E-03 Eh
 * total energy  :  -134.9934832 Eh     change       -0.1885940E-03 Eh
 * total energy  :  -134.9983407 Eh     change       -0.4215208E-04 Eh
 * total energy  :  -134.9983682 Eh     change       -0.2744844E-04 Eh
 * total energy  :  -134.9983934 Eh     change       -0.2520069E-04 Eh
 * total energy  :  -134.9984038 Eh     change       -0.1037487E-04 Eh
 * total energy  :  -134.9984160 Eh     change       -0.1224548E-04 Eh
 * total energy  :  -134.9984232 Eh     change       -0.7160847E-05 Eh
 * total energy  :  -134.9984366 Eh     change       -0.1342153E-04 Eh
 * total energy  :  -134.9984430 Eh     change       -0.6394082E-05 Eh
 * total energy  :  -134.9984468 Eh     change       -0.3801537E-05 Eh
   *** GEOMETRY OPTIMIZATION CONVERGED AFTER 99 ITERATIONS ***

 final structure:
================
60
 xtb: 6.3.3 (4ae9cef)
C        -2.02189174236554   -2.23121169322996    0.19158125281134
C        -1.50032524610726   -2.85580062233580    1.45637679786604
F        -1.97932255968911   -4.08438669811736    1.67052493324961
F        -0.16026829693020   -2.96592939532596    1.48438652655173
F        -1.83233316156825   -2.13775479585500    2.55045024472845
C        -2.98453162263658   -2.92445888662060   -0.53321096535675
C        -3.48237706338051   -2.40210055534936   -1.71093568105896
C        -3.00754367632728   -1.18814975797959   -2.17622388850847
C        -2.05385325341429   -0.49634322642276   -1.45515385499713
C        -1.55711570364413   -0.99268785765935   -0.25331125945119
C        -0.49769232844638   -0.18968436308321    0.46495996845701
C         0.83647637000332   -0.22905203572332   -0.32337344387714
C         1.86813995382316   -1.12738338850639    0.31259686443634
C         2.28566188856440   -2.32993549699672   -0.25821261066512
C         1.68150072654861   -2.83601095846855   -1.53848456749045
F         2.14182950573559   -4.03988902156377   -1.89628412830795
F         1.87844541847716   -2.03523995516137   -2.59737162986545
F         0.33481293699545   -2.97881757589652   -1.44627767692384
C         3.25669490620280   -3.10173021567637    0.36746639138787
C         3.81431833828516   -2.68627165224469    1.56199611290062
C         3.39534480065678   -1.50213017703356    2.14221566694169
C         2.42930794317103   -0.73347540125994    1.52139781145520
N         1.30202370766014    1.15350048394013   -0.31159063594196
C         2.47701392741468    1.46471093040990   -0.92508746912770
C         2.86465463519032    2.89529449441438   -0.86346076797968
C         3.16541624215591    3.64501053345597    0.24057505830821
Br        3.17303402665938    3.19767855930224    2.04523841205005
O         3.56043464625947    4.87735227594144   -0.08936081116680
C         3.51808189249104    4.94795651152289   -1.43024193852347
C         3.11486540236540    3.76442009525050   -1.96244548603208
O         3.16346567999087    0.62263867588585   -1.45868691884627
C         0.29830653423595    2.07181433699073    0.15958750637463
C        -0.08996323946397    3.12235717669548   -0.90609425778619
O        -0.61322221175735    2.54539216011360   -1.98961183483795
O         0.17765791549433    4.28555456035428   -0.82364532051834
N        -0.82439764413173    1.22634107655810    0.49262619824242
C        -2.04670660748314    1.80304610927873    0.57313898138789
C        -3.09951878229317    0.96931694987499    1.19396645176571
C        -3.08406016188783    0.53864080162560    2.49465588957214
Br       -1.80311346654858    0.78596319831564    3.81784677269680
O        -4.20946792766219   -0.10729660952909    2.81022897701452
C        -4.97890974567730   -0.10328527869230    1.70687619363661
C        -4.36170088588036    0.55295343808361    0.68852698245396
O        -2.21688711242309    2.95650935924883    0.22846848839513
H        -3.33355948400527   -3.87993606872654   -0.17483499574601
H        -4.22682336127414   -2.94900077637399   -2.26738626876194
H        -3.37452769241485   -0.78145906759466   -3.10597222795681
H        -1.68568242387411    0.44806733959112   -1.82657573447387
H        -0.32905204919500   -0.54615265739578    1.48745849955012
H         0.64885147309030   -0.52167806967985   -1.36197759786034
H         3.57443894519129   -4.02785474209625   -0.08526968321766
H         4.57165205549542   -3.28985904135889    2.03698788494845
H         3.81910870741135   -1.17090847570097    3.07739713690429
H         2.11263766628667    0.19267096308844    1.97740084367383
H         3.79404480026726    5.88097488768294   -1.87799458595237
H         2.99654955174346    3.51747577024324   -2.99662557315345
H         0.62383933399351    2.62507696210296    1.05650868425069
H        -0.85947644138806    3.22186266120148   -2.64073508496015
H        -5.93162295864852   -0.58791884800824    1.77529472557201
H        -4.73266108133570    0.72121205449666   -0.30030235820362

          :  Hamiltonian                  GFN2-xTB          :
         :: total energy            -134.998446777524 Eh    ::
         :: gradient norm              0.000515715883 Eh/a0 ::
         :: HOMO-LUMO gap              3.486346199826 eV    ::
         :: SCC energy              -136.384207597080 Eh    ::
         :: -> dispersion             -0.101034122945 Eh    ::
         :: repulsion energy           1.381478143176 Eh    ::

    * Orbital Energies and Occupations

         #    Occupation            Energy/Eh            Energy/eV
      -------------------------------------------------------------
         1        2.0000           -0.8931987             -24.3052
       ...           ...                  ...                  ...
       103        2.0000           -0.4561003             -12.4111
       104        2.0000           -0.4548181             -12.3762
       105        2.0000           -0.4492609             -12.2250
       106        2.0000           -0.4429921             -12.0544
       107        2.0000           -0.4412902             -12.0081
       108        2.0000           -0.4401536             -11.9772
       109        2.0000           -0.4387056             -11.9378
       110        2.0000           -0.4355568             -11.8521
       111        2.0000           -0.4325858             -11.7713
       112        2.0000           -0.4220771             -11.4853
       113        2.0000           -0.4187828             -11.3957
       114        2.0000           -0.4157205             -11.3123
       115        2.0000           -0.4120922             -11.2136 (HOMO)
       116                         -0.2839714              -7.7273 (LUMO)
       117                         -0.2758533              -7.5064
       118                         -0.2711137              -7.3774
       119                         -0.2674032              -7.2764
       120                         -0.2626624              -7.1474
       121                         -0.2608198              -7.0973
       122                         -0.2560577              -6.9677
       123                         -0.2512124              -6.8358
       124                         -0.2396132              -6.5202
       125                         -0.2270585              -6.1786
       126                         -0.2222139              -6.0467
       ...                                ...                  ...
       202                          0.6725053              18.2998
      -------------------------------------------------------------
                  HL-Gap            0.1281209 Eh            3.4863 eV

     #   Z          covCN         q      C6AA      Î±(0)
     1   6 C        2.976    -0.031    28.759     8.797
     2   6 C        3.336     0.486    17.291     6.586
     3   9 F        0.792    -0.196    11.193     3.952
     4   9 F        0.791    -0.212    11.361     3.982
     5   9 F        0.791    -0.212    11.363     3.982
     6   6 C        2.923    -0.021    28.534     8.760
     7   6 C        2.920    -0.021    28.543     8.761
     8   6 C        2.919    -0.018    28.450     8.747
     9   6 C        2.927    -0.031    28.770     8.796
    10   6 C        2.971     0.009    27.815     8.651
    11   6 C        3.812     0.038    19.935     6.355
    12   6 C        3.826     0.050    19.725     6.320
    13   6 C        2.973     0.021    27.534     8.607
    14   6 C        2.976    -0.021    28.533     8.762
    15   6 C        3.335     0.486    17.296     6.588
    16   9 F        0.792    -0.199    11.222     3.957
    17   9 F        0.791    -0.201    11.241     3.961
    18   9 F        0.791    -0.229    11.540     4.013
    19   6 C        2.923    -0.018    28.471     8.750
    20   6 C        2.920    -0.019    28.491     8.753
    21   6 C        2.919    -0.015    28.398     8.739
    22   6 C        2.927    -0.027    28.671     8.781
    23   7 N        2.763    -0.114    23.492     7.199
    24   6 C        2.759     0.277    22.323     7.737
    25   6 C        3.101    -0.057    29.276     8.867
    26   6 C        3.101     0.179    24.054     8.037
    27  35 Br       0.993    -0.104   187.860    22.099
    28   8 O        1.767    -0.156    16.637     5.508
    29   6 C        3.085     0.075    26.226     8.395
    30   6 C        3.033    -0.052    29.261     8.873
    31   8 O        0.859    -0.403    21.747     6.252
    32   6 C        3.761     0.091    19.121     6.234
    33   6 C        2.687     0.368    20.764     7.457
    34   8 O        1.659    -0.367    20.217     6.070
    35   8 O        0.856    -0.384    21.360     6.196
    36   7 N        2.768    -0.105    23.298     7.169
    37   6 C        2.767     0.280    22.264     7.727
    38   6 C        3.109    -0.054    29.198     8.853
    39   6 C        3.093     0.181    24.029     8.034
    40  35 Br       0.991    -0.089   187.455    22.075
    41   8 O        1.762    -0.156    16.637     5.508
    42   6 C        3.085     0.068    26.380     8.420
    43   6 C        3.026    -0.057    29.380     8.891
    44   8 O        0.860    -0.406    21.793     6.259
    45   1 H        0.926     0.072     2.066     2.248
    46   1 H        0.926     0.062     2.172     2.305
    47   1 H        0.926     0.061     2.192     2.315
    48   1 H        0.926     0.070     2.088     2.260
    49   1 H        0.924     0.070     2.086     2.258
    50   1 H        0.924     0.072     2.059     2.244
    51   1 H        0.926     0.070     2.083     2.257
    52   1 H        0.926     0.061     2.185     2.312
    53   1 H        0.926     0.064     2.149     2.293
    54   1 H        0.926     0.062     2.181     2.309
    55   1 H        0.926     0.076     2.025     2.225
    56   1 H        0.927     0.064     2.150     2.293
    57   1 H        0.923     0.080     1.979     2.200
    58   1 H        0.804     0.345     0.600     1.216
    59   1 H        0.926     0.076     2.024     2.225
    60   1 H        0.927     0.063     2.160     2.298

Wiberg/Mayer (AO) data.
largest (>0.10) Wiberg bond orders for each atom

     #   Z sym  total        # sym  WBO       # sym  WBO       # sym  WBO
 ---------------------------------------------------------------------------
     1   6 C    3.971 --     6 C    1.411    10 C    1.388     2 C    0.950
                             8 C    0.104
     2   6 C    3.823 --     3 F    0.960     1 C    0.950     4 F    0.941
                             5 F    0.933
     3   9 F    1.083 --     2 C    0.960
     4   9 F    1.069 --     2 C    0.941
     5   9 F    1.067 --     2 C    0.933
     6   6 C    3.986 --     7 C    1.445     1 C    1.411    45 H    0.965
                             9 C    0.109
     7   6 C    3.988 --     6 C    1.445     8 C    1.431    46 H    0.968
                            10 C    0.108
     8   6 C    3.989 --     9 C    1.450     7 C    1.431    47 H    0.968
                             1 C    0.104
     9   6 C    3.987 --     8 C    1.450    10 C    1.406    48 H    0.960
                             6 C    0.109
    10   6 C    3.986 --     9 C    1.406     1 C    1.388    11 C    0.994
                             7 C    0.108
    11   6 C    3.966 --    10 C    0.994    36 N    0.963    49 H    0.951
                            12 C    0.948
    12   6 C    3.965 --    13 C    0.991    23 N    0.957    50 H    0.952
                            11 C    0.948
    13   6 C    3.985 --    22 C    1.413    14 C    1.385    12 C    0.991
                            20 C    0.108
    14   6 C    3.970 --    19 C    1.414    13 C    1.385    15 C    0.952
                            21 C    0.106
    15   6 C    3.821 --    16 F    0.958    14 C    0.952    17 F    0.950
                            18 F    0.922
    16   9 F    1.081 --    15 C    0.958
    17   9 F    1.080 --    15 C    0.950
    18   9 F    1.049 --    15 C    0.922
    19   6 C    3.986 --    20 C    1.442    14 C    1.414    51 H    0.965
                            22 C    0.109
    20   6 C    3.988 --    19 C    1.442    21 C    1.435    52 H    0.968
                            13 C    0.108
    21   6 C    3.989 --    22 C    1.445    20 C    1.435    53 H    0.968
                            14 C    0.106
    22   6 C    3.989 --    21 C    1.445    13 C    1.413    54 H    0.964
                            19 C    0.109
    23   7 N    3.458 --    24 C    1.196    32 C    0.985    12 C    0.957
                            31 O    0.193
    24   6 C    3.952 --    31 O    1.701    23 N    1.196    25 C    0.977
    25   6 C    3.974 --    26 C    1.511    30 C    1.253    24 C    0.977
    26   6 C    3.882 --    25 C    1.511    28 O    1.143    27 Br   1.009
                            29 C    0.135
    27  35 Br   1.176 --    26 C    1.009
    28   8 O    2.468 --    26 C    1.143    29 C    1.124
    29   6 C    3.901 --    30 C    1.618    28 O    1.124    55 H    0.962
                            26 C    0.135
    30   6 C    3.981 --    29 C    1.618    25 C    1.253    56 H    0.971
    31   8 O    2.041 --    24 C    1.701    23 N    0.193
    32   6 C    3.961 --    23 N    0.985    36 N    0.978    57 H    0.938
                            33 C    0.907
    33   6 C    3.926 --    35 O    1.777    34 O    1.138    32 C    0.907
    34   8 O    2.205 --    33 C    1.138    58 H    0.856    35 O    0.172
    35   8 O    2.066 --    33 C    1.777    34 O    0.172
    36   7 N    3.472 --    37 C    1.220    32 C    0.978    11 C    0.963
                            44 O    0.190
    37   6 C    3.951 --    44 O    1.666    36 N    1.220    38 C    0.981
    38   6 C    3.973 --    39 C    1.502    43 C    1.254    37 C    0.981
    39   6 C    3.888 --    38 C    1.502    41 O    1.145    40 Br   1.022
                            42 C    0.132
    40  35 Br   1.187 --    39 C    1.022
    41   8 O    2.469 --    39 C    1.145    42 C    1.121
    42   6 C    3.899 --    43 C    1.617    41 O    1.121    59 H    0.962
                            39 C    0.132
    43   6 C    3.981 --    42 C    1.617    38 C    1.254    60 H    0.971
    44   8 O    2.067 --    37 C    1.666    36 N    0.190
    45   1 H    0.994 --     6 C    0.965
    46   1 H    0.995 --     7 C    0.968
    47   1 H    0.996 --     8 C    0.968
    48   1 H    0.995 --     9 C    0.960
    49   1 H    0.995 --    11 C    0.951
    50   1 H    0.994 --    12 C    0.952
    51   1 H    0.995 --    19 C    0.965
    52   1 H    0.995 --    20 C    0.968
    53   1 H    0.995 --    21 C    0.968
    54   1 H    0.996 --    22 C    0.964
    55   1 H    0.993 --    29 C    0.962
    56   1 H    0.996 --    30 C    0.971
    57   1 H    0.993 --    32 C    0.938
    58   1 H    0.881 --    34 O    0.856
    59   1 H    0.993 --    42 C    0.962
    60   1 H    0.996 --    43 C    0.971
 ---------------------------------------------------------------------------

molecular dipole:
                 x           y           z       tot (Debye)
 q only:       -1.033      -0.462      -0.671
   full:       -1.614      -0.218      -1.563       5.738

           -------------------------------------------------
          | TOTAL ENERGY             -134.998446777524 Eh   |
          | GRADIENT NORM               0.000515715883 Eh/Î± |
          | HOMO-LUMO GAP               3.486346199826 eV   |
           -------------------------------------------------

 * finished run on 2022/03/17 at 02:17:09.376
