   * xtb version 6.3.3 (4ae9cef) compiled by 'conda@95abc7406d43' on 2020-10-14
          program call               : xtb acid_171.xyz --opt --chrg 0 --uhf 0 --gfn 2
          number of atoms            :                    72
          number of electrons        :                   214
          charge                     :                     0
          spin                       :                   0.0

   ID    Z sym.   atoms
    1    8 O      1, 16, 17, 30
    2    6 C      2-12, 14, 15, 19-29, 31-44
    3    7 N      13, 18
    4    1 H      45-72

          :  Hamiltonian                  GFN2-xTB          :
 * total energy  :  -117.7694296 Eh     change       -0.7542482E-08 Eh
 * total energy  :  -117.7856050 Eh     change       -0.1617537E-01 Eh
 * total energy  :  -117.7897317 Eh     change       -0.4126728E-02 Eh
 * total energy  :  -117.7907738 Eh     change       -0.1042080E-02 Eh
 * total energy  :  -117.7914365 Eh     change       -0.6626774E-03 Eh
 * total energy  :  -117.7917855 Eh     change       -0.3490513E-03 Eh
 * total energy  :  -117.7921241 Eh     change       -0.3386365E-03 Eh
 * total energy  :  -117.7924364 Eh     change       -0.3123019E-03 Eh
 * total energy  :  -117.7927264 Eh     change       -0.2899784E-03 Eh
 * total energy  :  -117.7929794 Eh     change       -0.2529602E-03 Eh
 * total energy  :  -117.7950911 Eh     change       -0.4172602E-04 Eh
 * total energy  :  -117.7951030 Eh     change       -0.1193857E-04 Eh
 * total energy  :  -117.7951191 Eh     change       -0.1614849E-04 Eh
 * total energy  :  -117.7951185 Eh     change        0.6580474E-06 Eh
 * total energy  :  -117.7951256 Eh     change       -0.7121115E-05 Eh
 * total energy  :  -117.7951330 Eh     change       -0.7392292E-05 Eh
 * total energy  :  -117.7951381 Eh     change       -0.5083493E-05 Eh
 * total energy  :  -117.7951462 Eh     change       -0.8103486E-05 Eh
 * total energy  :  -117.7951492 Eh     change       -0.3022671E-05 Eh
   *** GEOMETRY OPTIMIZATION CONVERGED AFTER 39 ITERATIONS ***

 final structure:
================
72
 xtb: 6.3.3 (4ae9cef)
O         2.57990179851104    1.54731486532873    2.05205249621443
C         1.80905068350938    0.67920956708358    1.71085708437618
C         1.92495017162505   -0.76120521712298    2.10751328251971
C         1.19818020362529   -1.25617473112702    3.16134732383869
C         1.28833243084714   -2.61212256403789    3.51339594925754
C         2.09939104821356   -3.45428742900915    2.80484806766987
C         2.87280540253132   -2.97689390495929    1.72617806491904
C         2.79671245358321   -1.60341949805399    1.37300058448567
C         3.57810929128246   -1.12372130698550    0.30107189483158
C         4.39064588202117   -1.97299022852210   -0.39565374914246
C         4.46031488075135   -3.33281379815429   -0.05516001966444
C         3.72185599941526   -3.82356146792857    0.98425410147211
N         0.74254483998983    0.93108192547252    0.90354869238431
C        -0.31406243570573    0.00034959738656    0.59681443385066
C         0.20279773821328   -1.16448705161564   -0.29562580397827
O         0.08319456075920   -2.39608785766168    0.20123454360839
O         0.66748393407746   -0.96541448960824   -1.37808309371793
N        -1.27454885341821    0.79420076747389   -0.12795931807955
C        -2.42008066615914    0.31510426889843   -0.69140504307831
C        -2.76065341683950   -1.07809691008613   -0.26033815986251
C        -2.64268789950932   -2.15108778163638   -1.17852704815547
C        -2.20443669386078   -1.96347937274044   -2.50594015739283
C        -2.08747364418564   -3.02855159080501   -3.35365439746255
C        -2.39872626660160   -4.32536807864462   -2.91647341826037
C        -2.82698627570440   -4.53810404923014   -1.63687688474670
C        -2.96074604996177   -3.46259751477944   -0.73456945450664
C        -3.40200303735661   -3.65429055753292    0.59114053511774
C        -3.53120485410689   -2.59617717689950    1.44715814454842
C        -3.20554746845492   -1.30074434745777    1.01974745885605
O        -3.10102398904194    0.98364033649964   -1.43533940601272
C        -0.75911490739169    2.10824665675233   -0.49373102650999
C        -1.76446786976942    3.19646369773301   -0.22624977098233
C        -2.47782553489614    3.21451477967291    0.96534124867822
C        -3.38417577473571    4.22638121498732    1.22217691857703
C        -3.57718836123274    5.23595701709380    0.29457241620111
C        -2.86122571969916    5.22803736748511   -0.88997069276338
C        -1.95915021097351    4.21187165023582   -1.15031172003166
C         0.50590549463644    2.26841538324342    0.36960720192575
C         1.68273583721400    2.77400851075633   -0.42309797073291
C         2.26151986506736    1.97323180593634   -1.40046112310753
C         3.34019628580413    2.44031675927728   -2.12973380282240
C         3.83996745377557    3.71071907927716   -1.89848683083987
C         3.25710433308307    4.51450317432621   -0.93411124605441
C         2.18355739914422    4.04718319687078   -0.19684023578867
H         0.56027086384356   -0.59773286294813    3.73502797628084
H         0.71118529201030   -2.97908169959595    4.34930711734762
H         2.16645583075125   -4.49998922534006    3.06760960617306
H         3.53342193783699   -0.07521862732055    0.04726592028668
H         4.98575392446340   -1.60055863276071   -1.21567366676060
H         5.10605221501143   -3.98794081149493   -0.62107940459052
H         3.77509918710992   -4.86834522024946    1.25473183579363
H        -0.76054224408378   -0.41093210544738    1.52126340749388
H        -0.27970278398671   -2.43413542854275    1.09752286110197
H        -1.96961205951884   -0.96591985473351   -2.84348205267309
H        -1.75134678389457   -2.87781200562172   -4.36829505253133
H        -2.29722155037303   -5.15411882885787   -3.60158815067358
H        -3.07010927900923   -5.53368309651473   -1.29404006100243
H        -3.64607112410074   -4.65529854500082    0.91633071914792
H        -3.88553930325635   -2.74554356586242    2.45638895105860
H        -3.32354892899430   -0.46926212208417    1.70104288469799
H        -0.49534275401071    2.10740460944527   -1.55941247008989
H        -2.32837673446222    2.42714810131852    1.69129914745794
H        -3.94144697973076    4.22774341314179    2.14764139917565
H        -4.28649934011736    6.02528971447807    0.49452015894502
H        -3.00955422523906    6.01259106673841   -1.61693579876270
H        -1.40545199031652    4.20198034994953   -2.07746379111264
H         0.31551548709997    2.95202164572154    1.20841821952836
H         1.87173391151391    0.98323874258219   -1.58969106808276
H         3.79007527938143    1.80865890701167   -2.88152824512924
H         4.68293250385483    4.07297602063428   -2.46830913413870
H         3.64288116559314    5.50620575447643   -0.75023543091663
H         1.73506242455039    4.67123860967656    0.56210705234222

          :  Hamiltonian                  GFN2-xTB          :
         :: total energy            -117.795149205066 Eh    ::
         :: gradient norm              0.000362223922 Eh/a0 ::
         :: HOMO-LUMO gap              3.048676088202 eV    ::
         :: SCC energy              -119.736894427324 Eh    ::
         :: -> dispersion             -0.108554421349 Eh    ::
         :: repulsion energy           1.937669294527 Eh    ::

    * Orbital Energies and Occupations

         #    Occupation            Energy/Eh            Energy/eV
      -------------------------------------------------------------
         1        2.0000           -0.7752368             -21.0953
       ...           ...                  ...                  ...
        95        2.0000           -0.4212854             -11.4638
        96        2.0000           -0.4155142             -11.3067
        97        2.0000           -0.4139753             -11.2648
        98        2.0000           -0.4116963             -11.2028
        99        2.0000           -0.4110985             -11.1866
       100        2.0000           -0.4094089             -11.1406
       101        2.0000           -0.4087265             -11.1220
       102        2.0000           -0.4043249             -11.0022
       103        2.0000           -0.4002004             -10.8900
       104        2.0000           -0.3959089             -10.7732
       105        2.0000           -0.3933093             -10.7025
       106        2.0000           -0.3922420             -10.6734
       107        2.0000           -0.3905845             -10.6283 (HOMO)
       108                         -0.2785478              -7.5797 (LUMO)
       109                         -0.2759695              -7.5095
       110                         -0.2675792              -7.2812
       111                         -0.2437261              -6.6321
       112                         -0.2419651              -6.5842
       113                         -0.2329637              -6.3393
       114                         -0.2274268              -6.1886
       115                         -0.2267219              -6.1694
       116                         -0.2251935              -6.1278
       117                         -0.2226576              -6.0588
       118                         -0.2217127              -6.0331
       ...                                ...                  ...
       204                          0.6860529              18.6685
      -------------------------------------------------------------
                  HL-Gap            0.1120368 Eh            3.0487 eV

     #   Z          covCN         q      C6AA      Î±(0)
     1   8 O        0.859    -0.410    21.884     6.272
     2   6 C        2.762     0.273    22.390     7.749
     3   6 C        2.975    -0.032    28.792     8.802
     4   6 C        2.919    -0.041    29.025     8.835
     5   6 C        2.914    -0.039    28.972     8.826
     6   6 C        2.918    -0.035    28.883     8.813
     7   6 C        2.986     0.017    27.617     8.620
     8   6 C        2.989     0.015    27.677     8.630
     9   6 C        2.917    -0.028    28.699     8.785
    10   6 C        2.917    -0.021    28.534     8.760
    11   6 C        2.916    -0.023    28.590     8.768
    12   6 C        2.919    -0.032    28.797     8.800
    13   7 N        2.766    -0.119    23.580     7.212
    14   6 C        3.745     0.086    19.223     6.254
    15   6 C        2.686     0.347    21.106     7.518
    16   8 O        1.659    -0.356    20.008     6.038
    17   8 O        0.856    -0.343    20.569     6.081
    18   7 N        2.766    -0.119    23.584     7.213
    19   6 C        2.763     0.274    22.374     7.746
    20   6 C        2.974    -0.032    28.802     8.803
    21   6 C        2.988     0.016    27.647     8.625
    22   6 C        2.917    -0.026    28.646     8.777
    23   6 C        2.917    -0.021    28.541     8.761
    24   6 C        2.916    -0.024    28.603     8.770
    25   6 C        2.919    -0.033    28.825     8.804
    26   6 C        2.987     0.016    27.651     8.626
    27   6 C        2.919    -0.036    28.899     8.815
    28   6 C        2.914    -0.037    28.923     8.819
    29   6 C        2.920    -0.039    28.972     8.827
    30   8 O        0.859    -0.408    21.842     6.266
    31   6 C        3.822     0.047    19.771     6.328
    32   6 C        2.974     0.013    27.725     8.637
    33   6 C        2.924    -0.029    28.728     8.790
    34   6 C        2.920    -0.027    28.667     8.780
    35   6 C        2.921    -0.028    28.698     8.785
    36   6 C        2.920    -0.024    28.609     8.771
    37   6 C        2.924    -0.027    28.686     8.783
    38   6 C        3.820     0.047    19.774     6.328
    39   6 C        2.974     0.009    27.823     8.652
    40   6 C        2.923    -0.037    28.913     8.818
    41   6 C        2.920    -0.027    28.669     8.780
    42   6 C        2.920    -0.028    28.712     8.787
    43   6 C        2.920    -0.026    28.645     8.777
    44   6 C        2.923    -0.028    28.695     8.785
    45   1 H        0.925     0.028     2.616     2.529
    46   1 H        0.926     0.035     2.511     2.478
    47   1 H        0.926     0.040     2.448     2.447
    48   1 H        0.926     0.043     2.410     2.428
    49   1 H        0.926     0.042     2.425     2.435
    50   1 H        0.926     0.039     2.459     2.452
    51   1 H        0.926     0.038     2.476     2.461
    52   1 H        0.922     0.033     2.542     2.493
    53   1 H        0.805     0.329     0.641     1.258
    54   1 H        0.926     0.045     2.378     2.411
    55   1 H        0.926     0.042     2.418     2.432
    56   1 H        0.926     0.038     2.472     2.459
    57   1 H        0.926     0.037     2.495     2.470
    58   1 H        0.926     0.039     2.465     2.455
    59   1 H        0.926     0.035     2.512     2.479
    60   1 H        0.925     0.028     2.618     2.530
    61   1 H        0.924     0.061     2.193     2.316
    62   1 H        0.925     0.024     2.673     2.557
    63   1 H        0.926     0.035     2.511     2.478
    64   1 H        0.926     0.037     2.486     2.466
    65   1 H        0.926     0.040     2.454     2.450
    66   1 H        0.926     0.038     2.478     2.462
    67   1 H        0.923     0.056     2.245     2.343
    68   1 H        0.926     0.052     2.291     2.367
    69   1 H        0.926     0.037     2.495     2.470
    70   1 H        0.926     0.035     2.513     2.479
    71   1 H        0.926     0.037     2.489     2.467
    72   1 H        0.926     0.035     2.518     2.481

Wiberg/Mayer (AO) data.
largest (>0.10) Wiberg bond orders for each atom

     #   Z sym  total        # sym  WBO       # sym  WBO       # sym  WBO
 ---------------------------------------------------------------------------
     1   8 O    2.034 --     2 C    1.707    13 N    0.192
     2   6 C    3.945 --     1 O    1.707    13 N    1.199     3 C    0.952
     3   6 C    3.987 --     4 C    1.517     8 C    1.249     2 C    0.952
                             6 C    0.115
     4   6 C    3.990 --     3 C    1.517     5 C    1.322    45 H    0.969
     5   6 C    3.991 --     6 C    1.551     4 C    1.322    46 H    0.970
     6   6 C    3.991 --     5 C    1.551     7 C    1.281    47 H    0.968
                             3 C    0.115
     7   6 C    3.990 --     6 C    1.281    12 C    1.278     8 C    1.250
     8   6 C    3.989 --     9 C    1.280     7 C    1.250     3 C    1.249
     9   6 C    3.991 --    10 C    1.556     8 C    1.280    48 H    0.964
                            12 C    0.119
    10   6 C    3.992 --     9 C    1.556    11 C    1.321    49 H    0.970
    11   6 C    3.992 --    12 C    1.558    10 C    1.321    50 H    0.970
    12   6 C    3.991 --    11 C    1.558     7 C    1.278    51 H    0.968
                             9 C    0.119
    13   7 N    3.458 --     2 C    1.199    14 C    0.989    38 C    0.949
                             1 O    0.192
    14   6 C    3.974 --    18 N    0.989    13 N    0.989    52 H    0.942
                            15 C    0.896
    15   6 C    3.919 --    17 O    1.803    16 O    1.144    14 C    0.896
    16   8 O    2.228 --    15 C    1.144    53 H    0.861    17 O    0.169
    17   8 O    2.097 --    15 C    1.803    16 O    0.169
    18   7 N    3.451 --    19 C    1.192    14 C    0.989    31 C    0.952
                            30 O    0.188
    19   6 C    3.944 --    30 O    1.709    18 N    1.192    20 C    0.957
    20   6 C    3.986 --    29 C    1.512    21 C    1.251    19 C    0.957
                            27 C    0.114
    21   6 C    3.989 --    22 C    1.280    20 C    1.251    26 C    1.249
    22   6 C    3.991 --    23 C    1.557    21 C    1.280    54 H    0.966
                            25 C    0.119
    23   6 C    3.992 --    22 C    1.557    24 C    1.321    55 H    0.970
    24   6 C    3.992 --    25 C    1.558    23 C    1.321    56 H    0.970
    25   6 C    3.991 --    24 C    1.558    26 C    1.278    57 H    0.968
                            22 C    0.119
    26   6 C    3.990 --    27 C    1.283    25 C    1.278    21 C    1.249
    27   6 C    3.991 --    28 C    1.549    26 C    1.283    58 H    0.968
                            20 C    0.114
    28   6 C    3.991 --    27 C    1.549    29 C    1.326    59 H    0.970
    29   6 C    3.990 --    20 C    1.512    28 C    1.326    60 H    0.969
    30   8 O    2.037 --    19 C    1.709    18 N    0.188
    31   6 C    3.960 --    32 C    0.990    38 C    0.956    61 H    0.953
                            18 N    0.952
    32   6 C    3.985 --    37 C    1.415    33 C    1.410    31 C    0.990
                            35 C    0.109
    33   6 C    3.992 --    34 C    1.448    32 C    1.410    62 H    0.969
                            36 C    0.112
    34   6 C    3.992 --    33 C    1.448    35 C    1.436    63 H    0.971
                            37 C    0.111
    35   6 C    3.991 --    36 C    1.441    34 C    1.436    64 H    0.971
                            32 C    0.109
    36   6 C    3.992 --    37 C    1.443    35 C    1.441    65 H    0.971
                            33 C    0.112
    37   6 C    3.990 --    36 C    1.443    32 C    1.415    66 H    0.968
                            34 C    0.111
    38   6 C    3.959 --    39 C    0.988    31 C    0.956    67 H    0.954
                            13 N    0.949
    39   6 C    3.985 --    44 C    1.416    40 C    1.410    38 C    0.988
                            42 C    0.109
    40   6 C    3.990 --    41 C    1.446    39 C    1.410    68 H    0.961
                            43 C    0.112
    41   6 C    3.992 --    40 C    1.446    42 C    1.437    69 H    0.971
                            44 C    0.111
    42   6 C    3.991 --    43 C    1.441    41 C    1.437    70 H    0.971
                            39 C    0.109
    43   6 C    3.992 --    44 C    1.442    42 C    1.441    71 H    0.971
                            40 C    0.112
    44   6 C    3.990 --    43 C    1.442    39 C    1.416    72 H    0.968
                            41 C    0.111
    45   1 H    0.999 --     4 C    0.969
    46   1 H    0.997 --     5 C    0.970
    47   1 H    0.997 --     6 C    0.968
    48   1 H    0.998 --     9 C    0.964
    49   1 H    0.998 --    10 C    0.970
    50   1 H    0.998 --    11 C    0.970
    51   1 H    0.998 --    12 C    0.968
    52   1 H    0.998 --    14 C    0.942
    53   1 H    0.892 --    16 O    0.861
    54   1 H    0.997 --    22 C    0.966
    55   1 H    0.998 --    23 C    0.970
    56   1 H    0.998 --    24 C    0.970
    57   1 H    0.998 --    25 C    0.968
    58   1 H    0.997 --    27 C    0.968
    59   1 H    0.997 --    28 C    0.970
    60   1 H    0.999 --    29 C    0.969
    61   1 H    0.996 --    31 C    0.953
    62   1 H    0.999 --    33 C    0.969
    63   1 H    0.998 --    34 C    0.971
    64   1 H    0.998 --    35 C    0.971
    65   1 H    0.998 --    36 C    0.971
    66   1 H    0.999 --    37 C    0.968
    67   1 H    0.996 --    38 C    0.954
    68   1 H    0.997 --    40 C    0.961
    69   1 H    0.998 --    41 C    0.971
    70   1 H    0.998 --    42 C    0.971
    71   1 H    0.998 --    43 C    0.971
    72   1 H    0.999 --    44 C    0.968
 ---------------------------------------------------------------------------

molecular dipole:
                 x           y           z       tot (Debye)
 q only:       -0.125      -0.993       0.511
   full:       -0.341      -1.281       1.013       4.241

           -------------------------------------------------
          | TOTAL ENERGY             -117.795149205066 Eh   |
          | GRADIENT NORM               0.000362223922 Eh/Î± |
          | HOMO-LUMO GAP               3.048676088202 eV   |
           -------------------------------------------------

 * finished run on 2022/03/16 at 22:03:32.125
