   * xtb version 6.3.3 (4ae9cef) compiled by 'conda@95abc7406d43' on 2020-10-14
          program call               : xtb acid_222.xyz --opt --chrg 0 --uhf 0 --gfn 2
          number of atoms            :                    72
          number of electrons        :                   254
          charge                     :                     0
          spin                       :                   0.0

   ID    Z sym.   atoms
    1    6 C      1, 2, 6-15, 19-22, 24-26, 28-33, 35, 36, 40-42, 44-49
    2    9 F      3-5, 16-18
    3    7 N      23, 39
    4   16 S      27, 43
    5    8 O      34, 37, 38, 50
    6    1 H      51-72

          :  Hamiltonian                  GFN2-xTB          :
 * total energy  :  -145.3682800 Eh     change       -0.3702951E-08 Eh
 * total energy  :  -145.3864084 Eh     change       -0.1812843E-01 Eh
 * total energy  :  -145.3918401 Eh     change       -0.5431678E-02 Eh
 * total energy  :  -145.3934456 Eh     change       -0.1605512E-02 Eh
 * total energy  :  -145.3945606 Eh     change       -0.1114993E-02 Eh
 * total energy  :  -145.3950562 Eh     change       -0.4956032E-03 Eh
 * total energy  :  -145.3954014 Eh     change       -0.3451781E-03 Eh
 * total energy  :  -145.3957629 Eh     change       -0.3615300E-03 Eh
 * total energy  :  -145.3961446 Eh     change       -0.3816999E-03 Eh
 * total energy  :  -145.3964930 Eh     change       -0.3484371E-03 Eh
 * total energy  :  -145.3998873 Eh     change       -0.1124510E-04 Eh
 * total energy  :  -145.3999036 Eh     change       -0.1630638E-04 Eh
 * total energy  :  -145.3999206 Eh     change       -0.1697781E-04 Eh
 * total energy  :  -145.3999346 Eh     change       -0.1400873E-04 Eh
 * total energy  :  -145.3999485 Eh     change       -0.1388592E-04 Eh
 * total energy  :  -145.3999657 Eh     change       -0.1722954E-04 Eh
 * total energy  :  -145.3999837 Eh     change       -0.1799555E-04 Eh
 * total energy  :  -145.3999957 Eh     change       -0.1195379E-04 Eh
 * total energy  :  -145.3999990 Eh     change       -0.3392771E-05 Eh
   *** GEOMETRY OPTIMIZATION CONVERGED AFTER 55 ITERATIONS ***

 final structure:
================
72
 xtb: 6.3.3 (4ae9cef)
C         1.35007709682772   -3.17174805909054   -0.58198487800306
C         0.45112821303717   -3.46889174777333   -1.75005573161600
F         0.70561063857174   -2.72902246287203   -2.84090059028903
F        -0.85606204384933   -3.24708919587414   -1.46432610087966
F         0.51454685801230   -4.74471274858157   -2.14869208869096
C         2.14109785206907   -4.19907529971931   -0.08326025095678
C         2.97438141277905   -3.97816010655648    0.99666875855989
C         3.01701045446510   -2.72666085119211    1.58417323768226
C         2.22722807715907   -1.70584494064885    1.09118501790802
C         1.38663736028108   -1.90439800728000    0.00224442908930
C         0.55368160558455   -0.74771520315051   -0.49448770321601
C        -0.60331956374634   -0.37168882100653    0.47682870289886
C        -1.91930307095905   -0.90332107160347   -0.03108434543417
C        -2.60855006402914   -1.95402560762162    0.57819893999822
C        -2.04208561645046   -2.67512675758116    1.77067976771597
F        -2.82007770765370   -3.67245353850124    2.19875473571707
F        -1.84782100502137   -1.87960558282936    2.84468483735068
F        -0.83682121223009   -3.22464097662491    1.51615982070729
C        -3.82168259526047   -2.39204525823601    0.05958350750604
C        -4.34947725184141   -1.80548915496445   -1.07456391986790
C        -3.65233848657610   -0.79459589467855   -1.71215460016191
C        -2.45063594287479   -0.35414257893067   -1.19344130547898
N        -0.55624166023586    1.08191844942961    0.49597343658378
C        -1.55673698579311    1.99933065756214    0.64639869952472
C        -2.84283058958462    1.47232239434652    1.15540507335735
C        -2.98467004844148    0.82450045897511    2.33670950090812
S        -4.60843484187916    0.35446029120140    2.68062937154365
C        -5.15657209863130    1.06295780639793    1.18628902401772
C        -4.09513707247144    1.65669122713176    0.48045366488829
C        -4.35777777553325    2.30005182223556   -0.72870203933097
C        -5.64797945711133    2.32850577864279   -1.20809957799981
C        -6.68764453226635    1.71924046966402   -0.50564285229335
C        -6.45375232792600    1.08551957017149    0.69705147824478
O        -1.37127820609078    3.16985310050101    0.38507837175177
C         0.77506715379927    1.53380476311151    0.19219774410538
C         1.59038151567912    1.80138954844258    1.47646501738886
O         0.80100873536116    2.00678410974612    2.52467724163444
O         2.78779541761664    1.83265086376145    1.52029897400059
N         1.33969138932895    0.47784289208936   -0.60452392515338
C         2.52571926088958    0.46397532294842   -1.28045110240797
C         3.24643076373082    1.75501922066507   -1.36581134093729
C         2.76493861529311    2.91050273377057   -1.88409031055513
S         3.91469813401513    4.19990923505809   -1.89403218972030
C         5.11658365404123    3.16845747468633   -1.16951757735347
C         4.61747683817705    1.87178222176741   -0.95802611224947
C         5.44822845818863    0.90638709998956   -0.39059123590474
C         6.73851044419502    1.24806754147184   -0.05284940686170
C         7.21925394924810    2.54012354787030   -0.26653515305251
C         6.41580761374141    3.51129449634108   -0.82702215085018
O         2.94710803348886   -0.55997641435513   -1.77454374627021
H         2.10371286518163   -5.17277620327641   -0.54584213604248
H         3.58823709799667   -4.78092642944684    1.37382278895883
H         3.66828446430098   -2.54075690721039    2.42477220551543
H         2.28351504654855   -0.72806757601041    1.54482099818692
H         0.14783407114690   -0.96958110270453   -1.48655708870157
H        -0.36807792707503   -0.75519820058720    1.47634455914730
H        -4.34750073891434   -3.19857507613648    0.54566011153022
H        -5.29381490057495   -2.14878282358850   -1.46569648106258
H        -4.04433062514745   -0.34686260082504   -2.61189675903970
H        -1.91344379945640    0.43990211083481   -1.69013038672006
H        -2.22029891073622    0.59741775823648    3.05336333483272
H        -3.55197251816320    2.78330730560547   -1.25877996747534
H        -5.86273658202003    2.83133787185219   -2.13897779154415
H        -7.69036150111202    1.75250925790654   -0.90386537198028
H        -7.25444525584569    0.62214738675282    1.25169996662605
H         0.71818883757437    2.49609577101430   -0.33927148278992
H         1.31978292197317    2.24188010603061    3.31235336780506
H         1.79579942856049    3.09442480482682   -2.30814787239551
H         5.07091350512247   -0.09266405857158   -0.23665505912301
H         7.39240457519186    0.50720381666193    0.38229913620369
H         8.23510981210217    2.78261656840810    0.00661279759476
H         6.78033474420783    4.51243540191068   -0.99733298704275

          :  Hamiltonian                  GFN2-xTB          :
         :: total energy            -145.399999043774 Eh    ::
         :: gradient norm              0.000969682087 Eh/a0 ::
         :: HOMO-LUMO gap              2.703554058686 eV    ::
         :: SCC energy              -147.198291086050 Eh    ::
         :: -> dispersion             -0.121361035213 Eh    ::
         :: repulsion energy           1.793924676447 Eh    ::

    * Orbital Energies and Occupations

         #    Occupation            Energy/Eh            Energy/eV
      -------------------------------------------------------------
         1        2.0000           -0.8908655             -24.2417
       ...           ...                  ...                  ...
       115        2.0000           -0.4386473             -11.9362
       116        2.0000           -0.4372740             -11.8988
       117        2.0000           -0.4345461             -11.8246
       118        2.0000           -0.4291728             -11.6784
       119        2.0000           -0.4270117             -11.6196
       120        2.0000           -0.4245362             -11.5522
       121        2.0000           -0.4185086             -11.3882
       122        2.0000           -0.4126769             -11.2295
       123        2.0000           -0.4107784             -11.1778
       124        2.0000           -0.4048399             -11.0163
       125        2.0000           -0.3995669             -10.8728
       126        2.0000           -0.3935453             -10.7089
       127        2.0000           -0.3808145             -10.3625 (HOMO)
       128                         -0.2814607              -7.6589 (LUMO)
       129                         -0.2750741              -7.4851
       130                         -0.2728870              -7.4256
       131                         -0.2680244              -7.2933
       132                         -0.2642363              -7.1902
       133                         -0.2635299              -7.1710
       134                         -0.2555718              -6.9545
       135                         -0.2442462              -6.6463
       136                         -0.2435867              -6.6283
       137                         -0.2311102              -6.2888
       138                         -0.2296603              -6.2494
       ...                                ...                  ...
       232                          0.7033725              19.1397
      -------------------------------------------------------------
                  HL-Gap            0.0993538 Eh            2.7036 eV

     #   Z          covCN         q      C6AA      Î±(0)
     1   6 C        2.976    -0.021    28.522     8.760
     2   6 C        3.335     0.486    17.292     6.587
     3   9 F        0.791    -0.201    11.249     3.962
     4   9 F        0.791    -0.228    11.527     4.011
     5   9 F        0.792    -0.199    11.225     3.958
     6   6 C        2.923    -0.018    28.451     8.747
     7   6 C        2.920    -0.020    28.511     8.756
     8   6 C        2.919    -0.016    28.415     8.741
     9   6 C        2.927    -0.022    28.554     8.763
    10   6 C        2.970     0.024    27.462     8.596
    11   6 C        3.826     0.048    19.749     6.324
    12   6 C        3.821     0.041    19.877     6.345
    13   6 C        2.971     0.012    27.747     8.640
    14   6 C        2.976    -0.029    28.723     8.791
    15   6 C        3.335     0.486    17.297     6.588
    16   9 F        0.792    -0.195    11.183     3.950
    17   9 F        0.791    -0.215    11.389     3.986
    18   9 F        0.791    -0.216    11.406     3.989
    19   6 C        2.923    -0.019    28.480     8.752
    20   6 C        2.920    -0.020    28.514     8.757
    21   6 C        2.918    -0.015    28.397     8.739
    22   6 C        2.927    -0.024    28.612     8.772
    23   7 N        2.765    -0.117    23.541     7.206
    24   6 C        2.762     0.278    22.301     7.734
    25   6 C        3.127    -0.037    28.726     8.776
    26   6 C        2.936    -0.017    28.439     8.746
    27  16 S        2.250    -0.024   142.059    20.060
    28   6 C        3.008     0.028    27.354     8.579
    29   6 C        3.145     0.004    27.674     8.607
    30   6 C        2.916    -0.030    28.759     8.794
    31   6 C        2.919    -0.033    28.811     8.802
    32   6 C        2.924    -0.031    28.764     8.795
    33   6 C        2.932    -0.038    28.939     8.822
    34   8 O        0.859    -0.420    22.078     6.300
    35   6 C        3.771     0.091    19.106     6.229
    36   6 C        2.687     0.352    21.021     7.503
    37   8 O        1.659    -0.356    20.017     6.040
    38   8 O        0.856    -0.386    21.410     6.204
    39   7 N        2.761    -0.126    23.727     7.234
    40   6 C        2.759     0.280    22.266     7.727
    41   6 C        3.124    -0.031    28.592     8.756
    42   6 C        2.935    -0.019    28.485     8.753
    43  16 S        2.250    -0.032   142.364    20.082
    44   6 C        3.008     0.035    27.210     8.557
    45   6 C        3.148     0.015    27.400     8.563
    46   6 C        2.916    -0.022    28.556     8.763
    47   6 C        2.919    -0.031    28.763     8.795
    48   6 C        2.924    -0.029    28.734     8.791
    49   6 C        2.933    -0.037    28.917     8.819
    50   8 O        0.860    -0.414    21.963     6.283
    51   1 H        0.926     0.070     2.084     2.258
    52   1 H        0.926     0.059     2.207     2.323
    53   1 H        0.926     0.057     2.236     2.339
    54   1 H        0.926     0.045     2.382     2.414
    55   1 H        0.924     0.069     2.099     2.266
    56   1 H        0.924     0.057     2.238     2.339
    57   1 H        0.926     0.073     2.057     2.243
    58   1 H        0.926     0.062     2.179     2.308
    59   1 H        0.926     0.060     2.195     2.317
    60   1 H        0.926     0.055     2.259     2.350
    61   1 H        0.926     0.058     2.220     2.330
    62   1 H        0.926     0.050     2.325     2.385
    63   1 H        0.926     0.043     2.414     2.430
    64   1 H        0.926     0.044     2.402     2.423
    65   1 H        0.926     0.046     2.366     2.405
    66   1 H        0.923     0.102     1.765     2.077
    67   1 H        0.804     0.347     0.596     1.213
    68   1 H        0.926     0.044     2.391     2.418
    69   1 H        0.926     0.048     2.342     2.393
    70   1 H        0.926     0.039     2.465     2.455
    71   1 H        0.926     0.040     2.450     2.448
    72   1 H        0.926     0.043     2.404     2.425

Wiberg/Mayer (AO) data.
largest (>0.10) Wiberg bond orders for each atom

     #   Z sym  total        # sym  WBO       # sym  WBO       # sym  WBO
 ---------------------------------------------------------------------------
     1   6 C    3.970 --     6 C    1.415    10 C    1.383     2 C    0.952
                             8 C    0.105
     2   6 C    3.821 --     5 F    0.957     1 C    0.952     3 F    0.949
                             4 F    0.924
     3   9 F    1.080 --     2 C    0.949
     4   9 F    1.050 --     2 C    0.924
     5   9 F    1.080 --     2 C    0.957
     6   6 C    3.987 --     7 C    1.441     1 C    1.415    51 H    0.965
                             9 C    0.109
     7   6 C    3.988 --     6 C    1.441     8 C    1.435    52 H    0.969
                            10 C    0.109
     8   6 C    3.990 --     9 C    1.446     7 C    1.435    53 H    0.969
                             1 C    0.105
     9   6 C    3.990 --     8 C    1.446    10 C    1.411    54 H    0.965
                             6 C    0.109
    10   6 C    3.986 --     9 C    1.411     1 C    1.383    11 C    0.993
                             7 C    0.109
    11   6 C    3.967 --    10 C    0.993    39 N    0.960    55 H    0.953
                            12 C    0.943
    12   6 C    3.971 --    13 C    0.998    23 N    0.968    56 H    0.954
                            11 C    0.943
    13   6 C    3.986 --    22 C    1.407    14 C    1.384    12 C    0.998
                            20 C    0.108
    14   6 C    3.969 --    19 C    1.412    13 C    1.384    15 C    0.951
                            21 C    0.104
    15   6 C    3.821 --    16 F    0.962    14 C    0.951    18 F    0.936
                            17 F    0.933
    16   9 F    1.085 --    15 C    0.962
    17   9 F    1.064 --    15 C    0.933
    18   9 F    1.064 --    15 C    0.936
    19   6 C    3.986 --    20 C    1.443    14 C    1.412    57 H    0.965
                            22 C    0.108
    20   6 C    3.988 --    19 C    1.443    21 C    1.431    58 H    0.968
                            13 C    0.108
    21   6 C    3.989 --    22 C    1.448    20 C    1.431    59 H    0.968
                            14 C    0.104
    22   6 C    3.989 --    21 C    1.448    13 C    1.407    60 H    0.965
                            19 C    0.108
    23   7 N    3.451 --    24 C    1.184    35 C    0.992    12 C    0.968
                            34 O    0.184
    24   6 C    3.945 --    34 O    1.687    23 N    1.184    25 C    0.979
    25   6 C    3.982 --    26 C    1.625    29 C    1.152    24 C    0.979
    26   6 C    3.959 --    25 C    1.625    27 S    1.171    61 H    0.968
    27  16 S    2.572 --    26 C    1.171    28 C    1.102
    28   6 C    3.956 --    33 C    1.378    29 C    1.295    27 S    1.102
    29   6 C    3.986 --    30 C    1.335    28 C    1.295    25 C    1.152
    30   6 C    3.991 --    31 C    1.494    29 C    1.335    62 H    0.966
                            33 C    0.112
    31   6 C    3.991 --    30 C    1.494    32 C    1.384    63 H    0.970
    32   6 C    3.991 --    33 C    1.475    31 C    1.384    64 H    0.970
    33   6 C    3.990 --    32 C    1.475    28 C    1.378    65 H    0.968
                            30 C    0.112
    34   8 O    2.025 --    24 C    1.687    23 N    0.184
    35   6 C    3.967 --    23 N    0.992    39 N    0.988    66 H    0.917
                            36 C    0.911
    36   6 C    3.919 --    38 O    1.776    37 O    1.162    35 C    0.911
    37   8 O    2.227 --    36 C    1.162    67 H    0.854    38 O    0.184
    38   8 O    2.065 --    36 C    1.776    37 O    0.184
    39   7 N    3.440 --    40 C    1.181    35 C    0.988    11 C    0.960
                            50 O    0.183
    40   6 C    3.944 --    50 O    1.693    39 N    1.181    41 C    0.977
    41   6 C    3.982 --    42 C    1.631    45 C    1.151    40 C    0.977
                            43 S    0.103
    42   6 C    3.958 --    41 C    1.631    43 S    1.165    68 H    0.968
    43  16 S    2.565 --    42 C    1.165    44 C    1.099    41 C    0.103
    44   6 C    3.956 --    49 C    1.377    45 C    1.298    43 S    1.099
    45   6 C    3.987 --    46 C    1.335    44 C    1.298    41 C    1.151
    46   6 C    3.991 --    47 C    1.495    45 C    1.335    69 H    0.966
                            49 C    0.113
    47   6 C    3.991 --    46 C    1.495    48 C    1.384    70 H    0.971
    48   6 C    3.991 --    49 C    1.475    47 C    1.384    71 H    0.970
    49   6 C    3.990 --    48 C    1.475    44 C    1.377    72 H    0.968
                            46 C    0.113
    50   8 O    2.033 --    40 C    1.693    39 N    0.183
    51   1 H    0.995 --     6 C    0.965
    52   1 H    0.996 --     7 C    0.969
    53   1 H    0.996 --     8 C    0.969
    54   1 H    0.998 --     9 C    0.965
    55   1 H    0.995 --    11 C    0.953
    56   1 H    0.996 --    12 C    0.954
    57   1 H    0.994 --    19 C    0.965
    58   1 H    0.995 --    20 C    0.968
    59   1 H    0.996 --    21 C    0.968
    60   1 H    0.997 --    22 C    0.965
    61   1 H    0.996 --    26 C    0.968
    62   1 H    0.998 --    30 C    0.966
    63   1 H    0.997 --    31 C    0.970
    64   1 H    0.998 --    32 C    0.970
    65   1 H    0.997 --    33 C    0.968
    66   1 H    0.989 --    35 C    0.917
    67   1 H    0.879 --    37 O    0.854
    68   1 H    0.997 --    42 C    0.968
    69   1 H    0.998 --    46 C    0.966
    70   1 H    0.998 --    47 C    0.971
    71   1 H    0.998 --    48 C    0.970
    72   1 H    0.998 --    49 C    0.968
 ---------------------------------------------------------------------------

molecular dipole:
                 x           y           z       tot (Debye)
 q only:       -0.915       0.226       0.854
   full:       -0.843       0.206       1.031       3.425

           -------------------------------------------------
          | TOTAL ENERGY             -145.399999043774 Eh   |
          | GRADIENT NORM               0.000969682087 Eh/Î± |
          | HOMO-LUMO GAP               2.703554058686 eV   |
           -------------------------------------------------

 * finished run on 2022/03/16 at 22:41:36.214
