   * xtb version 6.3.3 (4ae9cef) compiled by 'conda@95abc7406d43' on 2020-10-14
          program call               : xtb acid_303.xyz --opt --chrg 0 --uhf 0 --gfn 2
          number of atoms            :                    68
          number of electrons        :                   214
          charge                     :                     0
          spin                       :                   0.0

   ID    Z sym.   atoms
    1    6 C      1, 3-16, 18, 20-24, 26, 27, 29, 30, 34-38, 40, 41
    2    8 O      2, 17, 28, 31, 32, 42
    3    7 N      19, 33
    4    9 F      25, 39
    5    1 H      43-68

          :  Hamiltonian                  GFN2-xTB          :
 * total energy  :  -121.4988610 Eh     change       -0.1085226E-08 Eh
 * total energy  :  -121.5136099 Eh     change       -0.1474886E-01 Eh
 * total energy  :  -121.5174507 Eh     change       -0.3840768E-02 Eh
 * total energy  :  -121.5189677 Eh     change       -0.1517061E-02 Eh
 * total energy  :  -121.5201804 Eh     change       -0.1212692E-02 Eh
 * total energy  :  -121.5214780 Eh     change       -0.1297587E-02 Eh
 * total energy  :  -121.5224626 Eh     change       -0.9846216E-03 Eh
 * total energy  :  -121.5235343 Eh     change       -0.1071737E-02 Eh
 * total energy  :  -121.5246368 Eh     change       -0.1102478E-02 Eh
 * total energy  :  -121.5255784 Eh     change       -0.9416121E-03 Eh
 * total energy  :  -121.5312533 Eh     change       -0.1625705E-04 Eh
 * total energy  :  -121.5312675 Eh     change       -0.1412647E-04 Eh
 * total energy  :  -121.5312829 Eh     change       -0.1546719E-04 Eh
 * total energy  :  -121.5312995 Eh     change       -0.1656210E-04 Eh
 * total energy  :  -121.5313179 Eh     change       -0.1838771E-04 Eh
 * total energy  :  -121.5313375 Eh     change       -0.1962596E-04 Eh
 * total energy  :  -121.5313543 Eh     change       -0.1678692E-04 Eh
 * total energy  :  -121.5313654 Eh     change       -0.1109430E-04 Eh
 * total energy  :  -121.5313697 Eh     change       -0.4266012E-05 Eh
   *** GEOMETRY OPTIMIZATION CONVERGED AFTER 68 ITERATIONS ***

 final structure:
================
68
 xtb: 6.3.3 (4ae9cef)
C        -3.38096235161236    2.08694530131211    0.53774738333884
O        -3.15983241966662    3.02358335004122   -0.42599061944067
C        -4.19415151142573    3.92684281508056   -0.74017394473812
C        -4.49939423710055    2.05577544321971    1.36263819894623
C        -4.62005531780207    1.08237279328513    2.33907839552759
C        -3.63025429794707    0.13369632951640    2.51192353019179
C        -2.52031046064531    0.15435993461883    1.68635258632304
C        -2.38640451602886    1.11183981731961    0.69555444103035
C        -1.19261816822716    1.11032424622903   -0.22598769742969
C         0.10780327992461    1.55746677809234    0.47939945462657
C         0.91114711642454    2.53649463646546   -0.35529233827307
C         0.30267644268505    3.75845801268877   -0.61418073979274
C         0.93876117286250    4.74476274656960   -1.34316739422098
C         2.21940503011266    4.51640730322765   -1.81105077669879
C         2.84736652657125    3.31160667223377   -1.55914396797175
C         2.20728157115989    2.30559449835384   -0.83774158269548
O         2.78031269253185    1.09481269370836   -0.57763952245446
C         4.05948131457424    0.81795072675332   -1.10250506451036
N         0.75372894860831    0.29876314499625    0.79654126289621
C         1.58556911988029    0.18672799366252    1.86726563586430
C         2.15913996031476   -1.17681241883623    2.08918216564320
C         3.52168746893721   -1.36905300683921    1.90371032491501
C         4.08765758278757   -2.61285844420921    2.11091062977712
C         3.27383755937544   -3.65180154440423    2.52355788952820
F         3.81603304209720   -4.86781228975146    2.72928320360750
C         1.92033046203667   -3.47778258941655    2.74932092239314
C         1.36575088682858   -2.23029069146822    2.52926804243487
O         1.82839433739853    1.13446956783747    2.58138040890988
C         0.36608114514143   -0.73208148405556   -0.13029367810743
C         1.41735299999760   -0.95890993275089   -1.25966908666162
O         1.18501524628488   -0.30011525544180   -2.39208233989336
O         2.32275476961196   -1.72849040260944   -1.12864234464238
N        -0.88101968216920   -0.24658247268647   -0.67308532908306
C        -1.79300888725670   -0.99824660591767   -1.35393944229508
C        -1.39229911224726   -2.43562884529831   -1.50254608703322
C        -1.68474939280694   -3.31895948668622   -0.46870223765640
C        -1.33667838815123   -4.65257389354639   -0.57148191527100
C        -0.69484831064664   -5.08353533213853   -1.71935211961648
F        -0.35036943269818   -6.38004220316789   -1.82283559965359
C        -0.40556355385574   -4.22531506709377   -2.76433500035370
C        -0.76187558920387   -2.89326746918017   -2.65182884570861
O        -2.81641596530929   -0.52675253095316   -1.79403382759854
H        -4.40716531035135    4.60068351757501    0.09576405416701
H        -3.82706919280374    4.50794471721080   -1.58482819875175
H        -5.10767445302727    3.40136976663761   -1.03173673119832
H        -5.28420261990798    2.78652827226930    1.25066594946576
H        -5.49707180680497    1.07138322304209    2.96840870624421
H        -3.72318749089152   -0.61967621305315    3.27874440480565
H        -1.74457045596436   -0.58750303281494    1.81026088565469
H        -1.42516935827897    1.74168233933362   -1.08909711586762
H        -0.11879243056644    2.05234360408141    1.43206402184603
H        -0.69336360780125    3.92791238066297   -0.23308108878311
H         0.44391340615935    5.68399072557415   -1.53380960580460
H         2.74026039041108    5.27738560828029   -2.37210559448010
H         3.85001379575086    3.16059646096111   -1.92390255598575
H         4.08188540994480    0.95053363850143   -2.18771459358087
H         4.82484850314505    1.44247014560987   -0.63284765315700
H         4.24186688564261   -0.23117875765664   -0.87374338991222
H         4.13374219181028   -0.53626985301857    1.59730295214902
H         5.14152750322357   -2.78417244477716    1.96062358315406
H         1.32259457593334   -4.30747955482675    3.09216105393457
H         0.31442503340793   -2.07402548496184    2.72665189029205
H         0.26482849708743   -1.70009523872205    0.37956704529004
H         0.40920857465481    0.28070143514783   -2.31715737601150
H        -2.19966117420508   -2.96062431400990    0.41087783841440
H        -1.55662431496246   -5.35443478302146    0.21704515816187
H         0.08968321913413   -4.59999445202203   -3.64539333881725
H        -0.55100385214065   -2.21241454467678   -3.46213227542323

          :  Hamiltonian                  GFN2-xTB          :
         :: total energy            -121.531369664173 Eh    ::
         :: gradient norm              0.000290007625 Eh/a0 ::
         :: HOMO-LUMO gap              3.481117049285 eV    ::
         :: SCC energy              -123.173358934423 Eh    ::
         :: -> dispersion             -0.097317836495 Eh    ::
         :: repulsion energy           1.638378542491 Eh    ::

    * Orbital Energies and Occupations

         #    Occupation            Energy/Eh            Energy/eV
      -------------------------------------------------------------
         1        2.0000           -0.8252242             -22.4555
       ...           ...                  ...                  ...
        95        2.0000           -0.4407985             -11.9947
        96        2.0000           -0.4374664             -11.9041
        97        2.0000           -0.4290142             -11.6741
        98        2.0000           -0.4263176             -11.6007
        99        2.0000           -0.4228482             -11.5063
       100        2.0000           -0.4185672             -11.3898
       101        2.0000           -0.4177967             -11.3688
       102        2.0000           -0.4168179             -11.3422
       103        2.0000           -0.4122608             -11.2182
       104        2.0000           -0.4037584             -10.9868
       105        2.0000           -0.4011665             -10.9163
       106        2.0000           -0.3948051             -10.7432
       107        2.0000           -0.3922589             -10.6739 (HOMO)
       108                         -0.2643302              -7.1928 (LUMO)
       109                         -0.2546995              -6.9307
       110                         -0.2540161              -6.9121
       111                         -0.2513128              -6.8386
       112                         -0.2470974              -6.7239
       113                         -0.2445880              -6.6556
       114                         -0.2389524              -6.5022
       115                         -0.2345550              -6.3826
       116                         -0.2293482              -6.2409
       117                         -0.2280099              -6.2045
       118                         -0.2159549              -5.8764
       ...                                ...                  ...
       194                          0.6543498              17.8058
      -------------------------------------------------------------
                  HL-Gap            0.1279287 Eh            3.4811 eV

     #   Z          covCN         q      C6AA      Î±(0)
     1   6 C        2.868     0.144    24.871     8.175
     2   8 O        1.705    -0.272    18.507     5.808
     3   6 C        3.643     0.036    20.311     6.478
     4   6 C        2.918    -0.062    29.554     8.915
     5   6 C        2.921    -0.029    28.721     8.788
     6   6 C        2.917    -0.040    28.984     8.828
     7   6 C        2.924    -0.032    28.787     8.799
     8   6 C        2.973    -0.017    28.423     8.745
     9   6 C        3.822     0.040    19.891     6.347
    10   6 C        3.830     0.041    19.858     6.340
    11   6 C        2.968    -0.026    28.660     8.781
    12   6 C        2.929    -0.041    29.011     8.833
    13   6 C        2.917    -0.039    28.971     8.826
    14   6 C        2.920    -0.031    28.763     8.795
    15   6 C        2.919    -0.064    29.590     8.920
    16   6 C        2.862     0.144    24.858     8.172
    17   8 O        1.704    -0.282    18.689     5.837
    18   6 C        3.642     0.038    20.290     6.477
    19   7 N        2.767    -0.101    23.215     7.156
    20   6 C        2.762     0.277    22.321     7.737
    21   6 C        2.975    -0.016    28.410     8.743
    22   6 C        2.929    -0.015    28.387     8.738
    23   6 C        2.917    -0.041    29.028     8.835
    24   6 C        2.788     0.176    24.217     8.061
    25   9 F        0.787    -0.219    11.429     3.993
    26   6 C        2.916    -0.047    29.164     8.856
    27   6 C        2.927    -0.030    28.746     8.793
    28   8 O        0.859    -0.412    21.914     6.276
    29   6 C        3.752     0.071    19.453     6.289
    30   6 C        2.684     0.353    21.007     7.501
    31   8 O        1.659    -0.351    19.921     6.025
    32   8 O        0.856    -0.363    20.954     6.137
    33   7 N        2.768    -0.135    23.922     7.264
    34   6 C        2.761     0.270    22.439     7.757
    35   6 C        2.976    -0.027    28.661     8.782
    36   6 C        2.928    -0.028    28.712     8.787
    37   6 C        2.916    -0.046    29.139     8.852
    38   6 C        2.787     0.176    24.212     8.060
    39   9 F        0.787    -0.215    11.389     3.986
    40   6 C        2.917    -0.042    29.048     8.838
    41   6 C        2.925    -0.026    28.640     8.776
    42   8 O        0.859    -0.408    21.846     6.267
    43   1 H        0.924     0.043     2.411     2.428
    44   1 H        0.925     0.064     2.148     2.292
    45   1 H        0.924     0.049     2.338     2.391
    46   1 H        0.926     0.044     2.395     2.420
    47   1 H        0.926     0.043     2.414     2.430
    48   1 H        0.926     0.039     2.457     2.451
    49   1 H        0.926     0.028     2.620     2.531
    50   1 H        0.924     0.076     2.018     2.222
    51   1 H        0.924     0.085     1.931     2.173
    52   1 H        0.926     0.050     2.325     2.385
    53   1 H        0.926     0.041     2.430     2.438
    54   1 H        0.926     0.042     2.423     2.434
    55   1 H        0.926     0.045     2.379     2.412
    56   1 H        0.924     0.047     2.352     2.398
    57   1 H        0.924     0.043     2.406     2.426
    58   1 H        0.925     0.076     2.022     2.224
    59   1 H        0.926     0.061     2.191     2.315
    60   1 H        0.926     0.068     2.105     2.269
    61   1 H        0.926     0.063     2.159     2.298
    62   1 H        0.926     0.039     2.467     2.456
    63   1 H        0.923     0.066     2.131     2.283
    64   1 H        0.804     0.336     0.621     1.238
    65   1 H        0.926     0.047     2.352     2.398
    66   1 H        0.926     0.068     2.112     2.273
    67   1 H        0.926     0.072     2.067     2.248
    68   1 H        0.926     0.055     2.257     2.349

Wiberg/Mayer (AO) data.
largest (>0.10) Wiberg bond orders for each atom

     #   Z sym  total        # sym  WBO       # sym  WBO       # sym  WBO
 ---------------------------------------------------------------------------
     1   6 C    3.935 --     4 C    1.378     8 C    1.325     2 O    1.064
     2   8 O    2.234 --     1 C    1.064     3 C    0.980
     3   6 C    3.942 --     2 O    0.980    44 H    0.979    45 H    0.977
                            43 H    0.976
     4   6 C    3.988 --     5 C    1.439     1 C    1.378    46 H    0.965
                             7 C    0.103
     5   6 C    3.990 --     6 C    1.440     4 C    1.439    47 H    0.971
                             8 C    0.106
     6   6 C    3.991 --     5 C    1.440     7 C    1.429    48 H    0.971
     7   6 C    3.991 --     8 C    1.435     6 C    1.429    49 H    0.967
                             4 C    0.103
     8   6 C    3.982 --     7 C    1.435     1 C    1.325     9 C    0.990
                             5 C    0.106
     9   6 C    3.959 --     8 C    0.990    10 C    0.953    50 H    0.951
                            33 N    0.950
    10   6 C    3.963 --    11 C    0.983    19 N    0.970     9 C    0.953
                            51 H    0.944
    11   6 C    3.981 --    12 C    1.421    16 C    1.339    10 C    0.983
                            14 C    0.106
    12   6 C    3.989 --    13 C    1.440    11 C    1.421    52 H    0.966
                            15 C    0.105
    13   6 C    3.990 --    12 C    1.440    14 C    1.431    53 H    0.970
    14   6 C    3.991 --    15 C    1.449    13 C    1.431    54 H    0.970
                            11 C    0.106
    15   6 C    3.988 --    14 C    1.449    16 C    1.366    55 H    0.964
                            12 C    0.105
    16   6 C    3.932 --    15 C    1.366    11 C    1.339    17 O    1.056
    17   8 O    2.240 --    16 C    1.056    18 C    0.975
    18   6 C    3.936 --    57 H    0.977    56 H    0.976    17 O    0.975
                            58 H    0.973
    19   7 N    3.472 --    20 C    1.196    29 C    0.991    10 C    0.970
                            28 O    0.188
    20   6 C    3.946 --    28 O    1.703    19 N    1.196    21 C    0.962
    21   6 C    3.988 --    22 C    1.406    27 C    1.403    20 C    0.962
    22   6 C    3.989 --    23 C    1.444    21 C    1.406    59 H    0.966
                            26 C    0.110
    23   6 C    3.989 --    22 C    1.444    24 C    1.396    60 H    0.965
                            27 C    0.110
    24   6 C    3.890 --    23 C    1.396    26 C    1.393    25 F    0.965
    25   9 F    1.097 --    24 C    0.965
    26   6 C    3.989 --    27 C    1.444    24 C    1.393    61 H    0.966
                            22 C    0.110
    27   6 C    3.991 --    26 C    1.444    21 C    1.403    62 H    0.967
                            23 C    0.110
    28   8 O    2.028 --    20 C    1.703    19 N    0.188
    29   6 C    3.966 --    19 N    0.991    33 N    0.987    63 H    0.937
                            30 C    0.891
    30   6 C    3.923 --    32 O    1.790    31 O    1.156    29 C    0.891
    31   8 O    2.230 --    30 C    1.156    64 H    0.850    32 O    0.167
    32   8 O    2.079 --    30 C    1.790    31 O    0.167
    33   7 N    3.459 --    34 C    1.193    29 C    0.987     9 C    0.950
                            42 O    0.191
    34   6 C    3.948 --    42 O    1.713    33 N    1.193    35 C    0.954
    35   6 C    3.987 --    41 C    1.411    36 C    1.400    34 C    0.954
    36   6 C    3.991 --    37 C    1.447    35 C    1.400    65 H    0.968
                            40 C    0.111
    37   6 C    3.988 --    36 C    1.447    38 C    1.391    66 H    0.965
                            41 C    0.110
    38   6 C    3.891 --    40 C    1.398    37 C    1.391    39 F    0.968
    39   9 F    1.102 --    38 C    0.968
    40   6 C    3.989 --    41 C    1.440    38 C    1.398    67 H    0.965
                            36 C    0.111
    41   6 C    3.990 --    40 C    1.440    35 C    1.411    68 H    0.968
                            37 C    0.110
    42   8 O    2.033 --    34 C    1.713    33 N    0.191
    43   1 H    0.998 --     3 C    0.976
    44   1 H    0.995 --     3 C    0.979
    45   1 H    0.998 --     3 C    0.977
    46   1 H    0.998 --     4 C    0.965
    47   1 H    0.998 --     5 C    0.971
    48   1 H    0.998 --     6 C    0.971
    49   1 H    0.999 --     7 C    0.967
    50   1 H    0.994 --     9 C    0.951
    51   1 H    0.992 --    10 C    0.944
    52   1 H    0.997 --    12 C    0.966
    53   1 H    0.998 --    13 C    0.970
    54   1 H    0.998 --    14 C    0.970
    55   1 H    0.998 --    15 C    0.964
    56   1 H    0.998 --    18 C    0.976
    57   1 H    0.998 --    18 C    0.977
    58   1 H    0.994 --    18 C    0.973
    59   1 H    0.996 --    22 C    0.966
    60   1 H    0.995 --    23 C    0.965
    61   1 H    0.995 --    26 C    0.966
    62   1 H    0.998 --    27 C    0.967
    63   1 H    0.995 --    29 C    0.937
    64   1 H    0.887 --    31 O    0.850
    65   1 H    0.998 --    36 C    0.968
    66   1 H    0.995 --    37 C    0.965
    67   1 H    0.994 --    40 C    0.965
    68   1 H    0.997 --    41 C    0.968
 ---------------------------------------------------------------------------

molecular dipole:
                 x           y           z       tot (Debye)
 q only:       -0.899       1.962      -0.516
   full:       -1.114       1.996      -0.497       5.944

           -------------------------------------------------
          | TOTAL ENERGY             -121.531369664173 Eh   |
          | GRADIENT NORM               0.000290007625 Eh/Î± |
          | HOMO-LUMO GAP               3.481117049285 eV   |
           -------------------------------------------------

 * finished run on 2022/03/16 at 23:36:06.629
