   * xtb version 6.3.3 (4ae9cef) compiled by 'conda@95abc7406d43' on 2020-10-14
          program call               : xtb acid_225.xyz --opt --chrg 0 --uhf 0 --gfn 2
          number of atoms            :                    84
          number of electrons        :                   238
          charge                     :                     0
          spin                       :                   0.0

   ID    Z sym.   atoms
    1    6 C      1-22, 24-32, 34, 35, 39-47
    2    7 N      23, 38
    3    8 O      33, 36, 37, 48
    4    1 H      49-84

          :  Hamiltonian                  GFN2-xTB          :
 * total energy  :  -130.4302507 Eh     change       -0.4209568E-08 Eh
 * total energy  :  -130.4467814 Eh     change       -0.1653072E-01 Eh
 * total energy  :  -130.4523947 Eh     change       -0.5613329E-02 Eh
 * total energy  :  -130.4544803 Eh     change       -0.2085640E-02 Eh
 * total energy  :  -130.4561376 Eh     change       -0.1657210E-02 Eh
 * total energy  :  -130.4570088 Eh     change       -0.8712841E-03 Eh
 * total energy  :  -130.4576417 Eh     change       -0.6328682E-03 Eh
 * total energy  :  -130.4581746 Eh     change       -0.5328582E-03 Eh
 * total energy  :  -130.4587545 Eh     change       -0.5798967E-03 Eh
 * total energy  :  -130.4592660 Eh     change       -0.5115421E-03 Eh
 * total energy  :  -130.4665337 Eh     change       -0.1454613E-04 Eh
 * total energy  :  -130.4665483 Eh     change       -0.1463315E-04 Eh
 * total energy  :  -130.4665617 Eh     change       -0.1342267E-04 Eh
 * total energy  :  -130.4665736 Eh     change       -0.1188995E-04 Eh
 * total energy  :  -130.4665859 Eh     change       -0.1226341E-04 Eh
 * total energy  :  -130.4665985 Eh     change       -0.1265786E-04 Eh
 * total energy  :  -130.4666101 Eh     change       -0.1150352E-04 Eh
 * total energy  :  -130.4666178 Eh     change       -0.7746344E-05 Eh
 * total energy  :  -130.4666224 Eh     change       -0.4592630E-05 Eh
   *** GEOMETRY OPTIMIZATION CONVERGED AFTER 92 ITERATIONS ***

 final structure:
================
84
 xtb: 6.3.3 (4ae9cef)
C         1.51439941782546   -2.52200102199557   -2.73330666956325
C         2.37440285524798   -3.46688746710486   -3.20612868965555
C         2.83531367977263   -4.50663920187215   -2.37066652045425
C         3.72303215052743   -5.50229653367429   -2.82500045853546
C         4.14303211876153   -6.49792338841461   -1.98726047486628
C         3.69129713907016   -6.54294674614674   -0.65954464700128
C         2.82967878646526   -5.59081886051597   -0.19045064334142
C         2.38197866833426   -4.54872188258943   -1.02798143760997
C         1.50081604739783   -3.54936029816438   -0.56429149128666
C         1.07907421899841   -2.54470879247236   -1.39000925032041
C         0.10376103993023   -1.48092885752042   -0.97472118830272
C        -0.36843738213157   -1.42475859183109    0.49490759171924
C        -1.44357340532015   -2.41294143618218    0.84934758525250
C        -1.21212787576725   -3.39833161533872    1.77230241358418
C        -2.20455266084277   -4.34244445556369    2.09991426826764
C        -1.98012427802353   -5.36789062822061    3.04209125072572
C        -2.96401914717386   -6.26760345221909    3.34179590480405
C        -4.21688947421511   -6.18407317240571    2.71386497181448
C        -4.46528783833684   -5.20113787694432    1.79726777424989
C        -3.47128751340710   -4.25727467190045    1.46683194138179
C        -3.69405792916754   -3.21805921989227    0.54032689050059
C        -2.70977796510392   -2.32161714514989    0.23865016064596
N        -0.83428020838077   -0.03707874607950    0.58676050167209
C        -1.26653859721206    0.51007888347334    1.75341950527533
C        -1.51876491920173    1.98348550260974    1.65153865142934
C        -0.46244773080518    2.87509109371234    1.80140554604184
C        -0.68125599527847    4.23461891760816    1.67986107813145
C        -1.95166661330016    4.72826316952847    1.41174270879148
C        -2.17566537272775    6.20048230453351    1.21472787683304
C        -2.12618970685089    6.55126947300285   -0.27394783887201
C        -3.00314894875601    3.82937337711974    1.27958550423698
C        -2.79425642123102    2.46738683090665    1.39862900856189
O        -1.41664665216091   -0.14193156968005    2.76173636694256
C        -0.47220456474545    0.69471765881673   -0.61094368005173
C        -1.66546370940999    0.84104254081452   -1.56785604722427
O        -1.27056190585244    1.20925103963699   -2.78541676315432
O        -2.81299353955144    0.67753534798613   -1.26633279077929
N         0.57383952651863   -0.10431616625173   -1.19894277872370
C         1.90150034825040    0.23429287381155   -1.01878809799998
C         2.17580449293205    1.69901984519702   -0.98601394537450
C         1.60545534481486    2.58784227478054   -1.89256864266854
C         1.92730288345160    3.93100693400017   -1.83885040730311
C         2.81773057982644    4.41673278227209   -0.88853826029631
C         3.13922050267006    5.88127001831631   -0.81349377402496
C         2.23845274959228    6.58128526289771    0.20613904941657
C         3.38714152796505    3.52159311658979    0.01003586418327
C         3.08098810856990    2.17598289255629   -0.04281774718123
O         2.78645778778446   -0.58590382215400   -0.93153826492512
H         1.16644837480381   -1.72664416264406   -3.37701247300315
H         2.71439222182460   -3.43421291789309   -4.23149448975597
H         4.06718601289964   -5.46341421291433   -3.84895944713306
H         4.82523690484575   -7.25738108850907   -2.34088403950187
H         4.03200415205721   -7.33733026317185   -0.01141390418811
H         2.47983411784275   -5.62231576953305    0.83163554976100
H         1.17017264586120   -3.60271069611947    0.46012500214532
H        -0.79162324672982   -1.59284605727077   -1.60745045898988
H         0.48818380313959   -1.54767776023890    1.17121030368388
H        -0.26188280554905   -3.45705258030218    2.28441941809031
H        -1.01504808782933   -5.42732029499621    3.52487831452150
H        -2.78636809019775   -7.04985397506563    4.06544631017351
H        -4.98324729961540   -6.90334445282928    2.96417905789168
H        -5.42914526585730   -5.13135868306415    1.31290728341778
H        -4.66580930586153   -3.13686319745254    0.07435657744703
H        -2.91112331680543   -1.51429344714859   -0.44896455069080
H         0.53087778022675    2.50398591900152    2.01491899839552
H         0.14565230870735    4.91959848692583    1.79685913614843
H        -1.40748966226382    6.76639973314383    1.74501339757243
H        -3.14962780339785    6.48499965203958    1.61736469077274
H        -2.91075578470775    6.02564346416879   -0.81334646264325
H        -2.26098838486677    7.62064867422106   -0.41861290031512
H        -1.16788540010120    6.26033180326207   -0.70011886449847
H        -3.99832224180584    4.20084932734814    1.08175194786735
H        -3.61345083952098    1.77398727472365    1.28804410428978
H        -0.12887098133016    1.71024090640719   -0.37737859722304
H        -2.03341926109871    1.31291330514809   -3.37891937286762
H         0.92707022883490    2.22112524097452   -2.64798153258240
H         1.48691906565822    4.61262941606847   -2.55271106549354
H         2.99842965700722    6.34129676960513   -1.79351534004927
H         4.18242509976343    6.01445849552597   -0.52005954812350
H         2.46489373634322    7.64403139431046    0.24664664902762
H         1.19268115713151    6.46004480265673   -0.06760920070296
H         2.38847771362244    6.15762150553248    1.19681615753970
H         4.08769766247124    3.88247965281397    0.74928871802856
H         3.53801651468482    1.47830421532908    0.64309872608260

          :  Hamiltonian                  GFN2-xTB          :
         :: total energy            -130.466622393391 Eh    ::
         :: gradient norm              0.000349860167 Eh/a0 ::
         :: HOMO-LUMO gap              2.801598718816 eV    ::
         :: SCC energy              -132.595705803727 Eh    ::
         :: -> dispersion             -0.115805970278 Eh    ::
         :: repulsion energy           2.125933389596 Eh    ::

    * Orbital Energies and Occupations

         #    Occupation            Energy/Eh            Energy/eV
      -------------------------------------------------------------
         1        2.0000           -0.7794736             -21.2106
       ...           ...                  ...                  ...
       107        2.0000           -0.4148586             -11.2889
       108        2.0000           -0.4127509             -11.2315
       109        2.0000           -0.4114147             -11.1952
       110        2.0000           -0.4102005             -11.1621
       111        2.0000           -0.4087820             -11.1235
       112        2.0000           -0.4047649             -11.0142
       113        2.0000           -0.4044025             -11.0044
       114        2.0000           -0.3986625             -10.8482
       115        2.0000           -0.3942592             -10.7283
       116        2.0000           -0.3873563             -10.5405
       117        2.0000           -0.3865658             -10.5190
       118        2.0000           -0.3737399             -10.1700
       119        2.0000           -0.3723736             -10.1328 (HOMO)
       120                         -0.2694168              -7.3312 (LUMO)
       121                         -0.2615588              -7.1174
       122                         -0.2549997              -6.9389
       123                         -0.2540784              -6.9138
       124                         -0.2370737              -6.4511
       125                         -0.2335874              -6.3562
       126                         -0.2306269              -6.2757
       127                         -0.2258114              -6.1446
       128                         -0.2244703              -6.1081
       129                         -0.2108391              -5.7372
       130                         -0.2031552              -5.5281
       ...                                ...                  ...
       228                          0.7030894              19.1320
      -------------------------------------------------------------
                  HL-Gap            0.1029569 Eh            2.8016 eV

     #   Z          covCN         q      C6AA      Î±(0)
     1   6 C        2.922    -0.027    28.687     8.783
     2   6 C        2.917    -0.031    28.780     8.797
     3   6 C        2.988     0.015    27.665     8.628
     4   6 C        2.918    -0.034    28.842     8.807
     5   6 C        2.916    -0.030    28.752     8.793
     6   6 C        2.916    -0.030    28.739     8.791
     7   6 C        2.919    -0.034    28.835     8.806
     8   6 C        2.988     0.018    27.603     8.618
     9   6 C        2.922    -0.039    28.964     8.826
    10   6 C        2.966     0.017    27.622     8.621
    11   6 C        3.878     0.049    19.709     6.312
    12   6 C        3.825     0.047    19.763     6.326
    13   6 C        2.968     0.010    27.799     8.648
    14   6 C        2.924    -0.033    28.813     8.803
    15   6 C        2.987     0.017    27.633     8.623
    16   6 C        2.919    -0.033    28.817     8.803
    17   6 C        2.916    -0.029    28.737     8.791
    18   6 C        2.916    -0.030    28.743     8.791
    19   6 C        2.918    -0.034    28.847     8.807
    20   6 C        2.988     0.014    27.696     8.633
    21   6 C        2.917    -0.033    28.827     8.804
    22   6 C        2.919    -0.035    28.878     8.812
    23   7 N        2.772    -0.132    23.850     7.253
    24   6 C        2.759     0.276    22.326     7.738
    25   6 C        2.979    -0.023    28.583     8.770
    26   6 C        2.921    -0.034    28.839     8.807
    27   6 C        2.924    -0.039    28.977     8.828
    28   6 C        2.971     0.015    27.684     8.631
    29   6 C        3.807    -0.059    21.638     6.622
    30   6 C        3.754    -0.097    22.405     6.750
    31   6 C        2.925    -0.036    28.888     8.814
    32   6 C        2.920    -0.025    28.636     8.775
    33   8 O        0.859    -0.413    21.950     6.281
    34   6 C        3.812     0.091    19.076     6.217
    35   6 C        2.688     0.350    21.049     7.508
    36   8 O        1.659    -0.362    20.133     6.057
    37   8 O        0.856    -0.381    21.301     6.188
    38   7 N        2.763    -0.139    24.006     7.277
    39   6 C        2.764     0.277    22.311     7.735
    40   6 C        2.975    -0.025    28.614     8.774
    41   6 C        2.919    -0.037    28.915     8.818
    42   6 C        2.924    -0.037    28.917     8.819
    43   6 C        2.970     0.020    27.562     8.611
    44   6 C        3.806    -0.059    21.636     6.622
    45   6 C        3.753    -0.096    22.397     6.749
    46   6 C        2.924    -0.035    28.860     8.810
    47   6 C        2.923    -0.021    28.541     8.761
    48   8 O        0.858    -0.400    21.686     6.244
    49   1 H        0.926     0.030     2.591     2.517
    50   1 H        0.926     0.036     2.506     2.475
    51   1 H        0.926     0.032     2.561     2.503
    52   1 H        0.926     0.030     2.581     2.512
    53   1 H        0.926     0.031     2.572     2.508
    54   1 H        0.926     0.033     2.550     2.497
    55   1 H        0.926     0.038     2.469     2.457
    56   1 H        0.923     0.045     2.388     2.417
    57   1 H        0.923     0.052     2.300     2.372
    58   1 H        0.926     0.036     2.505     2.475
    59   1 H        0.926     0.033     2.539     2.492
    60   1 H        0.926     0.031     2.573     2.509
    61   1 H        0.926     0.030     2.584     2.514
    62   1 H        0.926     0.032     2.564     2.504
    63   1 H        0.926     0.036     2.505     2.475
    64   1 H        0.926     0.041     2.430     2.438
    65   1 H        0.925     0.027     2.622     2.532
    66   1 H        0.926     0.036     2.496     2.471
    67   1 H        0.924     0.039     2.463     2.454
    68   1 H        0.924     0.041     2.431     2.438
    69   1 H        0.925     0.037     2.496     2.471
    70   1 H        0.925     0.039     2.460     2.453
    71   1 H        0.925     0.031     2.571     2.508
    72   1 H        0.926     0.040     2.452     2.449
    73   1 H        0.926     0.050     2.316     2.380
    74   1 H        0.924     0.073     2.050     2.239
    75   1 H        0.804     0.343     0.605     1.222
    76   1 H        0.926     0.045     2.386     2.416
    77   1 H        0.926     0.036     2.505     2.475
    78   1 H        0.924     0.039     2.459     2.452
    79   1 H        0.924     0.042     2.422     2.434
    80   1 H        0.925     0.039     2.457     2.451
    81   1 H        0.925     0.037     2.495     2.470
    82   1 H        0.925     0.036     2.497     2.471
    83   1 H        0.926     0.041     2.434     2.440
    84   1 H        0.926     0.050     2.324     2.384

Wiberg/Mayer (AO) data.
largest (>0.10) Wiberg bond orders for each atom

     #   Z sym  total        # sym  WBO       # sym  WBO       # sym  WBO
 ---------------------------------------------------------------------------
     1   6 C    3.991 --     2 C    1.577    10 C    1.279    49 H    0.970
     2   6 C    3.991 --     1 C    1.577     3 C    1.269    50 H    0.968
                             9 C    0.110
     3   6 C    3.990 --     4 C    1.286     2 C    1.269     8 C    1.254
     4   6 C    3.992 --     5 C    1.552     3 C    1.286    51 H    0.968
                             7 C    0.118
     5   6 C    3.989 --     4 C    1.552     6 C    1.324    52 H    0.971
     6   6 C    3.992 --     7 C    1.554     5 C    1.324    53 H    0.971
     7   6 C    3.990 --     6 C    1.554     8 C    1.282    54 H    0.968
                             4 C    0.118
     8   6 C    3.990 --     7 C    1.282     9 C    1.274     3 C    1.254
     9   6 C    3.988 --    10 C    1.536     8 C    1.274    55 H    0.961
                             2 C    0.110
    10   6 C    3.984 --     9 C    1.536     1 C    1.279    11 C    0.997
    11   6 C    3.960 --    10 C    0.997    12 C    0.958    38 N    0.949
                            56 H    0.944
    12   6 C    3.961 --    13 C    0.994    11 C    0.958    57 H    0.954
                            23 N    0.947
    13   6 C    3.985 --    14 C    1.524    22 C    1.294    12 C    0.994
    14   6 C    3.988 --    13 C    1.524    15 C    1.282    58 H    0.963
                            21 C    0.114
    15   6 C    3.990 --    14 C    1.282    16 C    1.279    20 C    1.250
    16   6 C    3.990 --    17 C    1.558    15 C    1.279    59 H    0.968
                            19 C    0.118
    17   6 C    3.992 --    16 C    1.558    18 C    1.321    60 H    0.971
    18   6 C    3.990 --    19 C    1.556    17 C    1.321    61 H    0.971
    19   6 C    3.992 --    18 C    1.556    20 C    1.282    62 H    0.968
                            16 C    0.118
    20   6 C    3.990 --    19 C    1.282    21 C    1.277    15 C    1.250
    21   6 C    3.991 --    22 C    1.564    20 C    1.277    63 H    0.968
                            14 C    0.114
    22   6 C    3.991 --    21 C    1.564    13 C    1.294    64 H    0.963
    23   7 N    3.450 --    24 C    1.204    34 C    0.979    12 C    0.947
                            33 O    0.192
    24   6 C    3.945 --    33 O    1.708    23 N    1.204    25 C    0.953
    25   6 C    3.987 --    32 C    1.408    26 C    1.400    24 C    0.953
                            28 C    0.107
    26   6 C    3.991 --    27 C    1.446    25 C    1.400    65 H    0.970
                            31 C    0.110
    27   6 C    3.991 --    26 C    1.446    28 C    1.410    66 H    0.966
                            32 C    0.109
    28   6 C    3.988 --    31 C    1.411    27 C    1.410    29 C    1.013
                            25 C    0.107
    29   6 C    3.997 --    28 C    1.013    30 C    1.001    67 H    0.975
                            68 H    0.973
    30   6 C    3.996 --    29 C    1.001    69 H    0.988    71 H    0.986
                            70 H    0.986
    31   6 C    3.991 --    32 C    1.446    28 C    1.411    72 H    0.968
                            26 C    0.110
    32   6 C    3.990 --    31 C    1.446    25 C    1.408    73 H    0.968
                            27 C    0.109
    33   8 O    2.028 --    24 C    1.708    23 N    0.192
    34   6 C    3.975 --    38 N    0.990    23 N    0.979    35 C    0.922
                            74 H    0.920
    35   6 C    3.920 --    37 O    1.781    36 O    1.149    34 C    0.922
    36   8 O    2.216 --    35 C    1.149    75 H    0.856    37 O    0.181
    37   8 O    2.065 --    35 C    1.781    36 O    0.181
    38   7 N    3.391 --    39 C    1.148    34 C    0.990    11 C    0.949
                            48 O    0.169
    39   6 C    3.941 --    48 O    1.725    38 N    1.148    40 C    0.984
    40   6 C    3.985 --    47 C    1.391    41 C    1.388    39 C    0.984
                            43 C    0.103
    41   6 C    3.990 --    42 C    1.453    40 C    1.388    76 H    0.966
                            46 C    0.106
    42   6 C    3.991 --    41 C    1.453    43 C    1.406    77 H    0.968
                            47 C    0.106
    43   6 C    3.987 --    42 C    1.406    46 C    1.405    44 C    1.014
                            40 C    0.103
    44   6 C    3.997 --    43 C    1.014    45 C    1.000    78 H    0.975
                            79 H    0.972
    45   6 C    3.995 --    44 C    1.000    82 H    0.987    80 H    0.986
                            81 H    0.985
    46   6 C    3.991 --    47 C    1.455    43 C    1.405    83 H    0.968
                            41 C    0.106
    47   6 C    3.989 --    46 C    1.455    40 C    1.391    84 H    0.968
                            42 C    0.106
    48   8 O    2.046 --    39 C    1.725    38 N    0.169
    49   1 H    0.999 --     1 C    0.970
    50   1 H    0.998 --     2 C    0.968
    51   1 H    0.999 --     4 C    0.968
    52   1 H    0.999 --     5 C    0.971
    53   1 H    0.999 --     6 C    0.971
    54   1 H    0.998 --     7 C    0.968
    55   1 H    0.998 --     9 C    0.961
    56   1 H    0.995 --    11 C    0.944
    57   1 H    0.997 --    12 C    0.954
    58   1 H    0.998 --    14 C    0.963
    59   1 H    0.998 --    16 C    0.968
    60   1 H    0.999 --    17 C    0.971
    61   1 H    0.999 --    18 C    0.971
    62   1 H    0.999 --    19 C    0.968
    63   1 H    0.998 --    21 C    0.968
    64   1 H    0.998 --    22 C    0.963
    65   1 H    0.999 --    26 C    0.970
    66   1 H    0.998 --    27 C    0.966
    67   1 H    0.998 --    29 C    0.975
    68   1 H    0.998 --    29 C    0.973
    69   1 H    0.999 --    30 C    0.988
    70   1 H    0.998 --    30 C    0.986
    71   1 H    0.999 --    30 C    0.986
    72   1 H    0.997 --    31 C    0.968
    73   1 H    0.997 --    32 C    0.968
    74   1 H    0.994 --    34 C    0.920
    75   1 H    0.882 --    36 O    0.856
    76   1 H    0.998 --    41 C    0.966
    77   1 H    0.998 --    42 C    0.968
    78   1 H    0.998 --    44 C    0.975
    79   1 H    0.998 --    44 C    0.972
    80   1 H    0.997 --    45 C    0.986
    81   1 H    0.999 --    45 C    0.985
    82   1 H    0.999 --    45 C    0.987
    83   1 H    0.998 --    46 C    0.968
    84   1 H    0.997 --    47 C    0.968
 ---------------------------------------------------------------------------

molecular dipole:
                 x           y           z       tot (Debye)
 q only:       -0.172       1.422      -1.559
   full:       -0.249       1.879      -1.709       6.487

           -------------------------------------------------
          | TOTAL ENERGY             -130.466622393391 Eh   |
          | GRADIENT NORM               0.000349860167 Eh/Î± |
          | HOMO-LUMO GAP               2.801598718816 eV   |
           -------------------------------------------------

 * finished run on 2022/03/16 at 22:42:47.822
