   * xtb version 6.3.3 (4ae9cef) compiled by 'conda@95abc7406d43' on 2020-10-14
          program call               : xtb acid_410.xyz --opt --chrg 0 --uhf 0 --gfn 2
          number of atoms            :                    88
          number of electrons        :                   258
          charge                     :                     0
          spin                       :                   0.0

   ID    Z sym.   atoms
    1    6 C      1, 3-16, 18, 20-32, 34, 35, 39-51
    2    8 O      2, 17, 33, 36, 37, 52
    3    7 N      19, 38
    4    1 H      53-88

          :  Hamiltonian                  GFN2-xTB          :
 * total energy  :  -142.8290724 Eh     change       -0.4585388E-08 Eh
 * total energy  :  -142.8471403 Eh     change       -0.1806785E-01 Eh
 * total energy  :  -142.8532297 Eh     change       -0.6089470E-02 Eh
 * total energy  :  -142.8554197 Eh     change       -0.2189984E-02 Eh
 * total energy  :  -142.8568938 Eh     change       -0.1474072E-02 Eh
 * total energy  :  -142.8578857 Eh     change       -0.9919351E-03 Eh
 * total energy  :  -142.8587119 Eh     change       -0.8261228E-03 Eh
 * total energy  :  -142.8594464 Eh     change       -0.7345692E-03 Eh
 * total energy  :  -142.8601098 Eh     change       -0.6634091E-03 Eh
 * total energy  :  -142.8606441 Eh     change       -0.5342834E-03 Eh
 * total energy  :  -142.8696582 Eh     change       -0.1957812E-04 Eh
 * total energy  :  -142.8696685 Eh     change       -0.1034068E-04 Eh
 * total energy  :  -142.8696698 Eh     change       -0.1245691E-05 Eh
 * total energy  :  -142.8696768 Eh     change       -0.6989300E-05 Eh
 * total energy  :  -142.8696867 Eh     change       -0.9956864E-05 Eh
 * total energy  :  -142.8696924 Eh     change       -0.5661883E-05 Eh
 * total energy  :  -142.8697010 Eh     change       -0.8581658E-05 Eh
 * total energy  :  -142.8697062 Eh     change       -0.5248255E-05 Eh
 * total energy  :  -142.8697103 Eh     change       -0.4055740E-05 Eh
   *** GEOMETRY OPTIMIZATION CONVERGED AFTER 101 ITERATIONS ***

 final structure:
================
88
 xtb: 6.3.3 (4ae9cef)
C         2.11745856560947   -2.01942214671916    0.10776122098422
O         1.69741830308114   -2.70221661291137   -0.99676573983009
C         2.30450758463053   -3.93488174458019   -1.29801839331349
C         3.05009564287485   -2.50388483627756    1.01715008291964
C         3.40402799998726   -1.75014556965637    2.12415376883802
C         2.85078396979767   -0.50084927882347    2.32700347092225
C         1.92529471715151   -0.01090967209942    1.42212564585119
C         1.54345585655873   -0.75683022073977    0.31978339294623
C         0.46810326690090   -0.26332311567819   -0.61704820015799
C        -0.88462998387108   -0.10700097387643    0.12643092439170
C        -2.03804079438227   -0.67465489383337   -0.66248424657042
C        -2.37677544744738   -0.20087095800389   -1.91870207544880
C        -3.41811911900092   -0.76165943475178   -2.63764008105352
C        -4.11855878754436   -1.82506400260188   -2.10316340213656
C        -3.79214550677090   -2.32160233031728   -0.85310490092037
C        -2.75966152088084   -1.74986515313261   -0.11922773087540
O        -2.38074620858070   -2.16881393846909    1.12283877343371
C        -3.11435073125078   -3.19339721562627    1.74755429936152
N        -0.96699823169684    1.32371669495268    0.36372729945301
C        -1.22415685259112    1.89093648531928    1.56510509882089
C        -2.02039950235114    1.05127234070202    2.50849746284494
C        -3.37600592332838    0.78413779691048    2.28245589237822
C        -4.07910213523136    1.27622542315907    1.08633845214451
C        -3.84324626531507    2.54807862118443    0.56855431022556
C        -4.48622414305897    2.97041387531797   -0.58056636684288
C        -5.38459824948898    2.13855426474406   -1.22613343460509
C        -5.65348771440659    0.88596147609505   -0.70159386484858
C        -5.01094294583025    0.46183746471103    0.44510506365743
C        -4.06012800201896    0.02599151156805    3.23113322813888
C        -3.42273753654009   -0.46479554057438    4.35454457620276
C        -2.08007106364954   -0.19874966357201    4.56358564244594
C        -1.38670907834005    0.56820842379603    3.64563762135044
O        -0.84140313041667    3.01395924597152    1.83921753679398
C        -0.23009962340410    2.04708059385486   -0.64295133579467
C         0.46332687327677    3.32798222568252   -0.12710044702447
O         1.57907501833192    3.05262392444303    0.54887565469523
O         0.10044059773411    4.42871009638113   -0.42014112927171
N         0.71324483982436    1.06771836074489   -1.14324912218680
C         1.58814947343322    1.40972247727483   -2.11474268062417
C         2.48559280051779    0.30038890160019   -2.56929418005172
C         2.00630224750797   -0.56565664572648   -3.54369448933882
C         2.79021957857505   -1.60477717331860   -4.00925919890379
C         4.06259966818658   -1.78524326983532   -3.49377771034815
C         4.54399626725400   -0.92551452827158   -2.52530273812448
C         3.77240515933634    0.13418092838165   -2.05216162010762
C         4.32655190926452    1.03143454209142   -1.02321639220839
C         4.26036912435699    2.41604542118569   -1.15121493018953
C         4.79023938203741    3.23306881618025   -0.16909472532960
C         5.39664618114108    2.68490714925918    0.94823728164809
C         5.48804235821390    1.30909241862906    1.07090531967052
C         4.96425888753441    0.48946272306479    0.08948330926623
O         1.60122479135862    2.52879785934503   -2.58923462651360
H         2.10895577728952   -4.68081531823224   -0.52083192796353
H         3.38359959420137   -3.82484082884649   -1.44106246162970
H         1.85110450486559   -4.26168424555476   -2.23226676935564
H         3.50440538715584   -3.47187194010723    0.87545405091687
H         4.12441275990363   -2.14768109873643    2.82383003623542
H         3.13643625935176    0.09189159776489    3.18173242690049
H         1.50450398213385    0.97065947885959    1.56685434436006
H         0.37147672027325   -0.97767723309253   -1.44009652049975
H        -0.85138479816300   -0.62386317687696    1.08869472968425
H        -1.81952213404356    0.61651810927214   -2.34719331220866
H        -3.67332619509470   -0.37269016449561   -3.61082811426685
H        -4.92599180545362   -2.27910157677531   -2.65788447141777
H        -4.35170837781917   -3.15450221429239   -0.45744690882120
H        -2.66436528834532   -3.31289782129292    2.73178492259087
H        -4.16723987738385   -2.92056570094995    1.86609662294150
H        -3.03947060346495   -4.13655678771398    1.19699909582053
H        -3.17421001918577    3.22521914154631    1.07455259250350
H        -4.28298878512673    3.95685120079327   -0.96961817931549
H        -5.88039588995740    2.46772055500700   -2.12719231036281
H        -6.36417882490840    0.23479684468514   -1.18916634651783
H        -5.21875297350076   -0.52340959164998    0.83503622656165
H        -5.11517466436149   -0.16063871205700    3.09255134351040
H        -3.97722466712560   -1.04976523019342    5.07407144901352
H        -1.57785806396405   -0.57823841238026    5.44066839031152
H        -0.34135666956063    0.79287621636168    3.79958134641702
H        -0.90553723396264    2.39336165133224   -1.44521775904581
H         2.01207204267907    3.87744630260205    0.81767985666110
H         1.01198550276305   -0.41698093151821   -3.94106783648286
H         2.41015848847442   -2.26957806970866   -4.77059394331561
H         4.68289074002177   -2.59400876172312   -3.85326724611743
H         5.54394625058111   -1.05674431141826   -2.13706684388265
H         3.80456434253469    2.85520384291621   -2.02414425617791
H         4.73383937487987    4.30627857238031   -0.28223106154187
H         5.80431015288464    3.32654515955813    1.71596480910787
H         5.96918488663055    0.87190644826274    1.93387746682834
H         5.02834753784286   -0.58353813694503    0.19442699171859

          :  Hamiltonian                  GFN2-xTB          :
         :: total energy            -142.869710255659 Eh    ::
         :: gradient norm              0.000685814531 Eh/a0 ::
         :: HOMO-LUMO gap              3.521213407841 eV    ::
         :: SCC energy              -145.122988229561 Eh    ::
         :: -> dispersion             -0.143714092171 Eh    ::
         :: repulsion energy           2.243811374771 Eh    ::

    * Orbital Energies and Occupations

         #    Occupation            Energy/Eh            Energy/eV
      -------------------------------------------------------------
         1        2.0000           -0.7340925             -19.9757
       ...           ...                  ...                  ...
       117        2.0000           -0.4113656             -11.1938
       118        2.0000           -0.4088124             -11.1244
       119        2.0000           -0.4083530             -11.1119
       120        2.0000           -0.4049105             -11.0182
       121        2.0000           -0.4026494             -10.9566
       122        2.0000           -0.3983775             -10.8404
       123        2.0000           -0.3976430             -10.8204
       124        2.0000           -0.3962090             -10.7814
       125        2.0000           -0.3913946             -10.6504
       126        2.0000           -0.3888004             -10.5798
       127        2.0000           -0.3863520             -10.5132
       128        2.0000           -0.3849324             -10.4745
       129        2.0000           -0.3831419             -10.4258 (HOMO)
       130                         -0.2537396              -6.9046 (LUMO)
       131                         -0.2441234              -6.6429
       132                         -0.2439999              -6.6396
       133                         -0.2406945              -6.5496
       134                         -0.2347674              -6.3883
       135                         -0.2293116              -6.2399
       136                         -0.2278655              -6.2005
       137                         -0.2239963              -6.0952
       138                         -0.2230128              -6.0685
       139                         -0.2206773              -6.0049
       140                         -0.2170394              -5.9059
       ...                                ...                  ...
       244                          0.6908849              18.7999
      -------------------------------------------------------------
                  HL-Gap            0.1294022 Eh            3.5212 eV

     #   Z          covCN         q      C6AA      Î±(0)
     1   6 C        2.867     0.138    24.992     8.195
     2   8 O        1.705    -0.280    18.641     5.829
     3   6 C        3.644     0.039    20.249     6.469
     4   6 C        2.917    -0.066    29.644     8.928
     5   6 C        2.921    -0.030    28.754     8.794
     6   6 C        2.917    -0.038    28.944     8.822
     7   6 C        2.924    -0.034    28.854     8.809
     8   6 C        2.972    -0.023    28.577     8.769
     9   6 C        3.817     0.038    19.919     6.352
    10   6 C        3.827     0.038    19.923     6.351
    11   6 C        2.970    -0.023    28.576     8.768
    12   6 C        2.924    -0.033    28.814     8.803
    13   6 C        2.918    -0.039    28.967     8.826
    14   6 C        2.921    -0.030    28.737     8.791
    15   6 C        2.917    -0.064    29.590     8.920
    16   6 C        2.868     0.140    24.944     8.187
    17   8 O        1.705    -0.279    18.622     5.826
    18   6 C        3.643     0.040    20.240     6.468
    19   7 N        2.765    -0.112    23.439     7.190
    20   6 C        2.768     0.279    22.282     7.731
    21   6 C        2.981    -0.016    28.402     8.742
    22   6 C        2.976     0.016    27.650     8.625
    23   6 C        2.975     0.007    27.869     8.659
    24   6 C        2.925    -0.035    28.860     8.810
    25   6 C        2.919    -0.028    28.689     8.783
    26   6 C        2.920    -0.030    28.743     8.792
    27   6 C        2.919    -0.031    28.762     8.795
    28   6 C        2.927    -0.033    28.833     8.806
    29   6 C        2.926    -0.031    28.765     8.796
    30   6 C        2.918    -0.028    28.711     8.787
    31   6 C        2.919    -0.029    28.729     8.790
    32   6 C        2.924    -0.023    28.575     8.766
    33   8 O        0.860    -0.422    22.132     6.307
    34   6 C        3.771     0.103    18.923     6.199
    35   6 C        2.686     0.380    20.571     7.422
    36   8 O        1.659    -0.367    20.221     6.070
    37   8 O        0.856    -0.380    21.279     6.185
    38   7 N        2.766    -0.112    23.440     7.191
    39   6 C        2.766     0.274    22.366     7.745
    40   6 C        2.980    -0.016    28.398     8.741
    41   6 C        2.924    -0.024    28.604     8.771
    42   6 C        2.919    -0.028    28.705     8.786
    43   6 C        2.918    -0.030    28.741     8.791
    44   6 C        2.927    -0.033    28.822     8.804
    45   6 C        2.977     0.016    27.660     8.627
    46   6 C        2.977     0.008    27.828     8.653
    47   6 C        2.924    -0.031    28.778     8.797
    48   6 C        2.920    -0.030    28.753     8.793
    49   6 C        2.920    -0.031    28.784     8.798
    50   6 C        2.919    -0.030    28.752     8.793
    51   6 C        2.926    -0.034    28.836     8.806
    52   8 O        0.859    -0.434    22.379     6.343
    53   1 H        0.924     0.043     2.414     2.430
    54   1 H        0.924     0.043     2.405     2.425
    55   1 H        0.925     0.062     2.176     2.307
    56   1 H        0.926     0.038     2.470     2.458
    57   1 H        0.926     0.039     2.462     2.454
    58   1 H        0.926     0.041     2.442     2.443
    59   1 H        0.926     0.057     2.229     2.334
    60   1 H        0.924     0.068     2.103     2.268
    61   1 H        0.924     0.073     2.058     2.243
    62   1 H        0.926     0.043     2.410     2.428
    63   1 H        0.926     0.043     2.409     2.427
    64   1 H        0.926     0.042     2.426     2.436
    65   1 H        0.926     0.041     2.436     2.441
    66   1 H        0.925     0.063     2.169     2.303
    67   1 H        0.924     0.042     2.420     2.433
    68   1 H        0.924     0.044     2.397     2.421
    69   1 H        0.926     0.047     2.356     2.400
    70   1 H        0.926     0.042     2.424     2.435
    71   1 H        0.926     0.034     2.534     2.489
    72   1 H        0.926     0.029     2.602     2.522
    73   1 H        0.926     0.024     2.675     2.557
    74   1 H        0.926     0.037     2.483     2.464
    75   1 H        0.926     0.035     2.517     2.481
    76   1 H        0.926     0.038     2.480     2.463
    77   1 H        0.926     0.041     2.441     2.443
    78   1 H        0.923     0.067     2.120     2.277
    79   1 H        0.805     0.341     0.609     1.226
    80   1 H        0.926     0.032     2.565     2.504
    81   1 H        0.926     0.034     2.529     2.487
    82   1 H        0.926     0.031     2.566     2.505
    83   1 H        0.926     0.036     2.509     2.477
    84   1 H        0.926     0.057     2.237     2.339
    85   1 H        0.926     0.033     2.547     2.496
    86   1 H        0.926     0.030     2.589     2.516
    87   1 H        0.926     0.028     2.619     2.531
    88   1 H        0.926     0.024     2.669     2.555

Wiberg/Mayer (AO) data.
largest (>0.10) Wiberg bond orders for each atom

     #   Z sym  total        # sym  WBO       # sym  WBO       # sym  WBO
 ---------------------------------------------------------------------------
     1   6 C    3.932 --     4 C    1.381     8 C    1.325     2 O    1.056
     2   8 O    2.226 --     1 C    1.056     3 C    0.982
     3   6 C    3.944 --     2 O    0.982    55 H    0.979    53 H    0.976
                            54 H    0.976
     4   6 C    3.987 --     5 C    1.433     1 C    1.381    56 H    0.965
                             7 C    0.103
     5   6 C    3.989 --     6 C    1.443     4 C    1.433    57 H    0.971
                             8 C    0.106
     6   6 C    3.991 --     5 C    1.443     7 C    1.426    58 H    0.970
     7   6 C    3.988 --     8 C    1.437     6 C    1.426    59 H    0.962
                             4 C    0.103
     8   6 C    3.982 --     7 C    1.437     1 C    1.325     9 C    0.988
                             5 C    0.106
     9   6 C    3.967 --     8 C    0.988    38 N    0.965    60 H    0.951
                            10 C    0.945
    10   6 C    3.964 --    11 C    0.990    19 N    0.962    61 H    0.951
                             9 C    0.945
    11   6 C    3.982 --    12 C    1.438    16 C    1.323    10 C    0.990
                            14 C    0.106
    12   6 C    3.990 --    11 C    1.438    13 C    1.426    62 H    0.965
                            15 C    0.102
    13   6 C    3.991 --    14 C    1.442    12 C    1.426    63 H    0.970
    14   6 C    3.989 --    13 C    1.442    15 C    1.435    64 H    0.971
                            11 C    0.106
    15   6 C    3.987 --    14 C    1.435    16 C    1.381    65 H    0.965
                            12 C    0.102
    16   6 C    3.932 --    15 C    1.381    11 C    1.323    17 O    1.058
    17   8 O    2.229 --    16 C    1.058    18 C    0.981
    18   6 C    3.943 --    17 O    0.981    66 H    0.979    68 H    0.976
                            67 H    0.976
    19   7 N    3.467 --    20 C    1.220    34 C    0.980    10 C    0.962
                            33 O    0.181
    20   6 C    3.940 --    33 O    1.659    19 N    1.220    21 C    0.964
    21   6 C    3.986 --    32 C    1.413    22 C    1.353    20 C    0.964
                            30 C    0.104
    22   6 C    3.987 --    29 C    1.388    21 C    1.353    23 C    1.049
                            31 C    0.104
    23   6 C    3.989 --    24 C    1.389    28 C    1.386    22 C    1.049
                            26 C    0.105
    24   6 C    3.991 --    25 C    1.449    23 C    1.389    69 H    0.964
                            27 C    0.108
    25   6 C    3.991 --    24 C    1.449    26 C    1.437    70 H    0.970
                            28 C    0.108
    26   6 C    3.987 --    25 C    1.437    27 C    1.432    71 H    0.971
                            23 C    0.105
    27   6 C    3.992 --    28 C    1.452    26 C    1.432    72 H    0.970
                            24 C    0.108
    28   6 C    3.992 --    27 C    1.452    23 C    1.386    73 H    0.966
                            25 C    0.108
    29   6 C    3.991 --    30 C    1.452    22 C    1.388    74 H    0.967
                            32 C    0.107
    30   6 C    3.991 --    29 C    1.452    31 C    1.430    75 H    0.971
                            21 C    0.104
    31   6 C    3.986 --    32 C    1.439    30 C    1.430    76 H    0.970
                            22 C    0.104
    32   6 C    3.990 --    31 C    1.439    21 C    1.413    77 H    0.969
                            29 C    0.107
    33   8 O    2.053 --    20 C    1.659    19 N    0.181
    34   6 C    3.959 --    19 N    0.980    38 N    0.972    78 H    0.938
                            35 C    0.911
    35   6 C    3.927 --    37 O    1.778    36 O    1.136    34 C    0.911
    36   8 O    2.204 --    35 C    1.136    79 H    0.857    37 O    0.170
    37   8 O    2.067 --    35 C    1.778    36 O    0.170
    38   7 N    3.476 --    39 C    1.227    34 C    0.972     9 C    0.965
                            52 O    0.192
    39   6 C    3.944 --    52 O    1.674    38 N    1.227    40 C    0.955
    40   6 C    3.987 --    41 C    1.412    45 C    1.367    39 C    0.955
                            43 C    0.106
    41   6 C    3.991 --    42 C    1.440    40 C    1.412    80 H    0.969
                            44 C    0.108
    42   6 C    3.987 --    41 C    1.440    43 C    1.429    81 H    0.970
                            45 C    0.105
    43   6 C    3.991 --    44 C    1.453    42 C    1.429    82 H    0.971
                            40 C    0.106
    44   6 C    3.991 --    43 C    1.453    45 C    1.388    83 H    0.968
                            41 C    0.108
    45   6 C    3.987 --    44 C    1.388    40 C    1.367    46 C    1.039
                            42 C    0.105
    46   6 C    3.989 --    47 C    1.393    51 C    1.391    45 C    1.039
                            49 C    0.106
    47   6 C    3.989 --    48 C    1.447    46 C    1.393    84 H    0.965
                            50 C    0.110
    48   6 C    3.992 --    47 C    1.447    49 C    1.437    85 H    0.970
                            51 C    0.109
    49   6 C    3.988 --    48 C    1.437    50 C    1.435    86 H    0.971
                            46 C    0.106
    50   6 C    3.992 --    51 C    1.450    49 C    1.435    87 H    0.971
                            47 C    0.110
    51   6 C    3.992 --    50 C    1.450    46 C    1.391    88 H    0.967
                            48 C    0.109
    52   8 O    2.010 --    39 C    1.674    38 N    0.192
    53   1 H    0.998 --     3 C    0.976
    54   1 H    0.998 --     3 C    0.976
    55   1 H    0.996 --     3 C    0.979
    56   1 H    0.998 --     4 C    0.965
    57   1 H    0.998 --     5 C    0.971
    58   1 H    0.998 --     6 C    0.970
    59   1 H    0.996 --     7 C    0.962
    60   1 H    0.994 --     9 C    0.951
    61   1 H    0.994 --    10 C    0.951
    62   1 H    0.997 --    12 C    0.965
    63   1 H    0.998 --    13 C    0.970
    64   1 H    0.998 --    14 C    0.971
    65   1 H    0.998 --    15 C    0.965
    66   1 H    0.996 --    18 C    0.979
    67   1 H    0.998 --    18 C    0.976
    68   1 H    0.998 --    18 C    0.976
    69   1 H    0.998 --    24 C    0.964
    70   1 H    0.998 --    25 C    0.970
    71   1 H    0.998 --    26 C    0.971
    72   1 H    0.999 --    27 C    0.970
    73   1 H    0.999 --    28 C    0.966
    74   1 H    0.998 --    29 C    0.967
    75   1 H    0.998 --    30 C    0.971
    76   1 H    0.998 --    31 C    0.970
    77   1 H    0.998 --    32 C    0.969
    78   1 H    0.995 --    34 C    0.938
    79   1 H    0.883 --    36 O    0.857
    80   1 H    0.998 --    41 C    0.969
    81   1 H    0.998 --    42 C    0.970
    82   1 H    0.998 --    43 C    0.971
    83   1 H    0.998 --    44 C    0.968
    84   1 H    0.997 --    47 C    0.965
    85   1 H    0.998 --    48 C    0.970
    86   1 H    0.999 --    49 C    0.971
    87   1 H    0.999 --    50 C    0.971
    88   1 H    0.999 --    51 C    0.967
 ---------------------------------------------------------------------------

molecular dipole:
                 x           y           z       tot (Debye)
 q only:       -0.429      -3.806       0.723
   full:       -0.408      -4.271       0.804      11.095

           -------------------------------------------------
          | TOTAL ENERGY             -142.869710255659 Eh   |
          | GRADIENT NORM               0.000685814531 Eh/Î± |
          | HOMO-LUMO GAP               3.521213407841 eV   |
           -------------------------------------------------

 * finished run on 2022/03/17 at 00:51:40.582
