   * xtb version 6.3.3 (4ae9cef) compiled by 'conda@95abc7406d43' on 2020-10-14
          program call               : xtb acid_351.xyz --opt --chrg 0 --uhf 0 --gfn 2
          number of atoms            :                    60
          number of electrons        :                   218
          charge                     :                     0
          spin                       :                   0.0

   ID    Z sym.   atoms
    1    6 C      1, 2, 6-15, 19-22, 24-28, 31, 32, 36-40
    2    9 F      3-5, 16-18
    3    7 N      23, 35
    4    8 O      29, 30, 33, 34, 41, 42
    5    1 H      43-60

          :  Hamiltonian                  GFN2-xTB          :
 * total energy  :  -127.8062678 Eh     change       -0.2649585E-08 Eh
 * total energy  :  -127.8197252 Eh     change       -0.1345735E-01 Eh
 * total energy  :  -127.8234730 Eh     change       -0.3747838E-02 Eh
 * total energy  :  -127.8245602 Eh     change       -0.1087131E-02 Eh
 * total energy  :  -127.8252395 Eh     change       -0.6792984E-03 Eh
 * total energy  :  -127.8256330 Eh     change       -0.3935872E-03 Eh
 * total energy  :  -127.8259542 Eh     change       -0.3211868E-03 Eh
 * total energy  :  -127.8262424 Eh     change       -0.2881549E-03 Eh
 * total energy  :  -127.8264858 Eh     change       -0.2434028E-03 Eh
 * total energy  :  -127.8267660 Eh     change       -0.2801742E-03 Eh
 * total energy  :  -127.8360347 Eh     change       -0.3678333E-04 Eh
 * total energy  :  -127.8360500 Eh     change       -0.1529000E-04 Eh
 * total energy  :  -127.8360594 Eh     change       -0.9381727E-05 Eh
 * total energy  :  -127.8360671 Eh     change       -0.7714086E-05 Eh
 * total energy  :  -127.8360761 Eh     change       -0.8946281E-05 Eh
 * total energy  :  -127.8360735 Eh     change        0.2608290E-05 Eh
 * total energy  :  -127.8360818 Eh     change       -0.8296029E-05 Eh
 * total energy  :  -127.8360866 Eh     change       -0.4865672E-05 Eh
 * total energy  :  -127.8360893 Eh     change       -0.2720588E-05 Eh
   *** GEOMETRY OPTIMIZATION CONVERGED AFTER 70 ITERATIONS ***

 final structure:
================
60
 xtb: 6.3.3 (4ae9cef)
C        -2.12374997389233   -1.20543447446799   -2.06680876088932
C        -2.61437546716398   -2.20641537396654   -1.05662878539991
F        -3.36698357123391   -3.17086345238724   -1.60094278997030
F        -3.35065662250790   -1.68406916482967   -0.06412987233136
F        -1.59299445022518   -2.85311237325912   -0.44195366382226
C        -2.51789811588310   -1.36264623736433   -3.38944324874075
C        -2.06012742451397   -0.49554654256347   -4.36346137915940
C        -1.19499425353464    0.52676942358117   -4.01902651828784
C        -0.80377748984148    0.68610769139779   -2.70300100406309
C        -1.26297097372446   -0.16637682896484   -1.70656339331758
C        -0.82499687336552    0.07429254582147   -0.28396678527273
C         0.67906962729229   -0.22068792768953   -0.02322293870180
C         0.85558086994651   -1.57499280704665    0.61514096751112
C         1.35994268053570   -2.68419153355811   -0.06641822086092
C         1.73619131092622   -2.60982931785003   -1.52170735458385
F         2.72450053100257   -1.73281440044004   -1.77939187498811
F         2.15856626477553   -3.78163963764386   -2.01039399028066
F         0.70521030906053   -2.23447985412963   -2.30492996879380
C         1.49221852687251   -3.90669896399020    0.58222514475165
C         1.11653329848713   -4.04157597786441    1.90454849258873
C         0.58418545274581   -2.95740311529996    2.57983095538427
C         0.45181024756485   -1.74288036345967    1.93623091027731
N         1.05690514744327    0.86488647695107    0.86730789787965
C         2.01787507003224    0.93361744101447    1.83023104211532
C         2.99285064057508   -0.17831089279000    1.84108206390011
C         3.82851145351108   -0.61636408647363    0.84931137553375
C         4.63558100293311   -1.61616394971374    1.43676422552759
C         4.23457782766356   -1.70484805591165    2.73512455645098
O         3.25298702583060   -0.83101294722868    2.99166733227776
O         2.06733616481007    1.87557603013855    2.59526177647837
C         0.25441014520032    2.02681928851419    0.58462687125928
C         0.97892548407867    2.85995408071836   -0.52069147242165
O         0.51599252512429    4.08511339183353   -0.71614768323067
O         1.87818292281408    2.39866596278717   -1.15894879356457
N        -0.98730319015570    1.48107911024817    0.09282158671740
C        -2.25840334292714    1.97029499605675    0.14961275301787
C        -2.50900117359614    3.28846309602187    0.75040252674608
C        -3.74073149806740    3.81448836227305    1.04335336374932
C        -3.51096277062207    5.07953601716561    1.62777263590997
C        -2.16217611454964    5.24546632242842    1.64863067399850
O        -1.53963554044234    4.17078683019373    1.12463528804057
O        -3.19002139982086    1.31639176089794   -0.28036796880386
H        -3.18425618092460   -2.16829462673812   -3.65479350784587
H        -2.37481976512866   -0.62512947675772   -5.38705095531285
H        -0.82097615628510    1.20268862027894   -4.77250137329006
H        -0.12443401647663    1.48400938430121   -2.44737810110085
H        -1.44037624383855   -0.51510457319753    0.40371737926056
H         1.23672738225404   -0.12958183567193   -0.96114346082635
H         1.88616022626003   -4.75443334759879    0.04442936273793
H         1.22796686729040   -4.99345764019324    2.39909188719170
H         0.26956283086244   -3.05565751702450    3.60718923517536
H         0.03902182163867   -0.90045333428084    2.47086931238296
H         3.87329345108965   -0.25373652857758   -0.15614647578238
H         5.40594628675924   -2.18240051874083    0.95618004433984
H         4.55818903101419   -2.32873480691238    3.54442943323160
H         0.13912953838041    2.62517479677557    1.49832596702908
H        -0.19225653004401    4.32780185472201   -0.09105394152241
H        -4.67908430816597    3.33429210831920    0.86024613777936
H        -4.24897502968862    5.76885318055941    1.98124376376274
H        -1.53700448815553    6.04421971159193    1.99591032014632

          :  Hamiltonian                  GFN2-xTB          :
         :: total energy            -127.836089337233 Eh    ::
         :: gradient norm              0.000689706209 Eh/a0 ::
         :: HOMO-LUMO gap              3.093638394793 eV    ::
         :: SCC energy              -129.238380022735 Eh    ::
         :: -> dispersion             -0.089859976529 Eh    ::
         :: repulsion energy           1.399031913129 Eh    ::

    * Orbital Energies and Occupations

         #    Occupation            Energy/Eh            Energy/eV
      -------------------------------------------------------------
         1        2.0000           -0.8844925             -24.0683
       ...           ...                  ...                  ...
        97        2.0000           -0.4567074             -12.4276
        98        2.0000           -0.4525667             -12.3150
        99        2.0000           -0.4489419             -12.2163
       100        2.0000           -0.4447295             -12.1017
       101        2.0000           -0.4398451             -11.9688
       102        2.0000           -0.4379956             -11.9185
       103        2.0000           -0.4362328             -11.8705
       104        2.0000           -0.4343168             -11.8184
       105        2.0000           -0.4267224             -11.6117
       106        2.0000           -0.4227135             -11.5026
       107        2.0000           -0.4190295             -11.4024
       108        2.0000           -0.4100102             -11.1569
       109        2.0000           -0.4047572             -11.0140 (HOMO)
       110                         -0.2910681              -7.9204 (LUMO)
       111                         -0.2751108              -7.4861
       112                         -0.2667335              -7.2582
       113                         -0.2652432              -7.2176
       114                         -0.2618421              -7.1251
       115                         -0.2575594              -7.0085
       116                         -0.2533915              -6.8951
       117                         -0.2194252              -5.9709
       118                         -0.2080721              -5.6619
       119                         -0.1708770              -4.6498
       120                         -0.1692112              -4.6045
       ...                                ...                  ...
       186                          0.6866408              18.6844
      -------------------------------------------------------------
                  HL-Gap            0.1136891 Eh            3.0936 eV

     #   Z          covCN         q      C6AA      Î±(0)
     1   6 C        2.976    -0.020    28.504     8.758
     2   6 C        3.335     0.486    17.299     6.588
     3   9 F        0.792    -0.200    11.234     3.959
     4   9 F        0.791    -0.200    11.232     3.959
     5   9 F        0.791    -0.227    11.520     4.009
     6   6 C        2.924    -0.019    28.474     8.751
     7   6 C        2.920    -0.020    28.511     8.756
     8   6 C        2.919    -0.016    28.409     8.740
     9   6 C        2.927    -0.025    28.635     8.776
    10   6 C        2.970     0.022    27.507     8.603
    11   6 C        3.833     0.048    19.750     6.323
    12   6 C        3.821     0.035    19.968     6.359
    13   6 C        2.971     0.012    27.746     8.640
    14   6 C        2.976    -0.029    28.710     8.789
    15   6 C        3.335     0.485    17.309     6.590
    16   9 F        0.791    -0.208    11.318     3.974
    17   9 F        0.792    -0.198    11.214     3.956
    18   9 F        0.791    -0.216    11.401     3.989
    19   6 C        2.923    -0.020    28.516     8.757
    20   6 C        2.920    -0.021    28.534     8.760
    21   6 C        2.918    -0.015    28.386     8.737
    22   6 C        2.927    -0.024    28.614     8.772
    23   7 N        2.771    -0.110    23.394     7.184
    24   6 C        2.759     0.270    22.447     7.759
    25   6 C        3.130     0.080    26.026     8.352
    26   6 C        3.023    -0.063    29.532     8.914
    27   6 C        3.018    -0.061    29.481     8.907
    28   6 C        3.078     0.071    26.328     8.412
    29   8 O        1.730    -0.162    16.740     5.524
    30   8 O        0.860    -0.415    21.984     6.286
    31   6 C        3.768     0.072    19.406     6.278
    32   6 C        2.686     0.351    21.037     7.506
    33   8 O        1.658    -0.357    20.039     6.043
    34   8 O        0.856    -0.351    20.723     6.103
    35   7 N        2.759    -0.117    23.552     7.208
    36   6 C        2.761     0.258    22.648     7.794
    37   6 C        3.089     0.079    26.146     8.381
    38   6 C        3.024    -0.037    28.902     8.818
    39   6 C        3.005    -0.051    29.249     8.872
    40   6 C        3.051     0.078    26.223     8.398
    41   8 O        1.728    -0.210    17.484     5.646
    42   8 O        0.861    -0.419    22.053     6.296
    43   1 H        0.926     0.070     2.084     2.257
    44   1 H        0.926     0.060     2.203     2.321
    45   1 H        0.926     0.060     2.197     2.318
    46   1 H        0.926     0.055     2.255     2.348
    47   1 H        0.924     0.072     2.061     2.245
    48   1 H        0.924     0.078     2.001     2.212
    49   1 H        0.926     0.072     2.067     2.248
    50   1 H        0.926     0.061     2.182     2.310
    51   1 H        0.926     0.062     2.176     2.307
    52   1 H        0.926     0.055     2.254     2.348
    53   1 H        0.927     0.063     2.169     2.303
    54   1 H        0.927     0.052     2.290     2.366
    55   1 H        0.926     0.058     2.217     2.328
    56   1 H        0.923     0.092     1.856     2.131
    57   1 H        0.804     0.345     0.600     1.217
    58   1 H        0.927     0.078     1.998     2.210
    59   1 H        0.927     0.063     2.169     2.303
    60   1 H        0.926     0.067     2.117     2.275

Wiberg/Mayer (AO) data.
largest (>0.10) Wiberg bond orders for each atom

     #   Z sym  total        # sym  WBO       # sym  WBO       # sym  WBO
 ---------------------------------------------------------------------------
     1   6 C    3.971 --     6 C    1.417    10 C    1.382     2 C    0.951
                             8 C    0.106
     2   6 C    3.821 --     3 F    0.956     1 C    0.951     4 F    0.950
                             5 F    0.924
     3   9 F    1.079 --     2 C    0.956
     4   9 F    1.082 --     2 C    0.950
     5   9 F    1.051 --     2 C    0.924
     6   6 C    3.987 --     7 C    1.440     1 C    1.417    43 H    0.965
                             9 C    0.108
     7   6 C    3.988 --     6 C    1.440     8 C    1.437    44 H    0.968
                            10 C    0.109
     8   6 C    3.990 --     9 C    1.443     7 C    1.437    45 H    0.968
                             1 C    0.106
     9   6 C    3.989 --     8 C    1.443    10 C    1.415    46 H    0.964
                             6 C    0.108
    10   6 C    3.985 --     9 C    1.415     1 C    1.382    11 C    0.994
                             7 C    0.109
    11   6 C    3.964 --    10 C    0.994    35 N    0.954    47 H    0.952
                            12 C    0.945
    12   6 C    3.967 --    13 C    0.997    23 N    0.966    48 H    0.950
                            11 C    0.945
    13   6 C    3.987 --    22 C    1.407    14 C    1.387    12 C    0.997
                            20 C    0.109
    14   6 C    3.970 --    19 C    1.411    13 C    1.387    15 C    0.951
                            21 C    0.104
    15   6 C    3.823 --    17 F    0.957    14 C    0.951    16 F    0.940
                            18 F    0.936
    16   9 F    1.071 --    15 C    0.940
    17   9 F    1.081 --    15 C    0.957
    18   9 F    1.064 --    15 C    0.936
    19   6 C    3.986 --    20 C    1.445    14 C    1.411    49 H    0.965
                            22 C    0.109
    20   6 C    3.988 --    19 C    1.445    21 C    1.431    50 H    0.968
                            13 C    0.109
    21   6 C    3.989 --    22 C    1.449    20 C    1.431    51 H    0.968
                            14 C    0.104
    22   6 C    3.990 --    21 C    1.449    13 C    1.407    52 H    0.966
                            19 C    0.109
    23   7 N    3.464 --    24 C    1.195    31 C    0.990    12 C    0.966
                            30 O    0.190
    24   6 C    3.954 --    30 O    1.681    23 N    1.195    25 C    0.985
    25   6 C    3.909 --    26 C    1.541    29 O    1.121    24 C    0.985
                            28 C    0.142
    26   6 C    3.983 --    25 C    1.541    27 C    1.309    53 H    0.972
    27   6 C    3.983 --    28 C    1.593    26 C    1.309    54 H    0.973
    28   6 C    3.906 --    27 C    1.593    29 O    1.148    55 H    0.965
                            25 C    0.142
    29   8 O    2.463 --    28 C    1.148    25 C    1.121
    30   8 O    2.021 --    24 C    1.681    23 N    0.190
    31   6 C    3.958 --    23 N    0.990    35 N    0.980    56 H    0.936
                            32 C    0.888
    32   6 C    3.925 --    34 O    1.798    33 O    1.173    31 C    0.888
    33   8 O    2.237 --    32 C    1.173    57 H    0.821    34 O    0.176
    34   8 O    2.092 --    32 C    1.798    33 O    0.176
    35   7 N    3.463 --    36 C    1.193    31 C    0.980    11 C    0.954
                            42 O    0.189
    36   6 C    3.961 --    42 O    1.652    35 N    1.193    37 C    1.026
    37   6 C    3.900 --    38 C    1.544    41 O    1.073    36 C    1.026
                            40 C    0.142
    38   6 C    3.983 --    37 C    1.544    39 C    1.306    58 H    0.970
    39   6 C    3.985 --    40 C    1.606    38 C    1.306    59 H    0.972
    40   6 C    3.902 --    39 C    1.606    41 O    1.117    60 H    0.964
                            37 C    0.142
    41   8 O    2.434 --    40 C    1.117    37 C    1.073
    42   8 O    2.014 --    36 C    1.652    35 N    0.189
    43   1 H    0.995 --     6 C    0.965
    44   1 H    0.996 --     7 C    0.968
    45   1 H    0.996 --     8 C    0.968
    46   1 H    0.997 --     9 C    0.964
    47   1 H    0.994 --    11 C    0.952
    48   1 H    0.994 --    12 C    0.950
    49   1 H    0.994 --    19 C    0.965
    50   1 H    0.995 --    20 C    0.968
    51   1 H    0.995 --    21 C    0.968
    52   1 H    0.997 --    22 C    0.966
    53   1 H    0.996 --    26 C    0.972
    54   1 H    0.996 --    27 C    0.973
    55   1 H    0.996 --    28 C    0.965
    56   1 H    0.991 --    31 C    0.936
    57   1 H    0.881 --    33 O    0.821
    58   1 H    0.994 --    38 C    0.970
    59   1 H    0.995 --    39 C    0.972
    60   1 H    0.995 --    40 C    0.964
 ---------------------------------------------------------------------------

molecular dipole:
                 x           y           z       tot (Debye)
 q only:       -0.596       0.518       0.513
   full:       -0.650       0.666       0.854       3.211

           -------------------------------------------------
          | TOTAL ENERGY             -127.836089337233 Eh   |
          | GRADIENT NORM               0.000689706209 Eh/Î± |
          | HOMO-LUMO GAP               3.093638394793 eV   |
           -------------------------------------------------

 * finished run on 2022/03/17 at 00:10:18.269
