   * xtb version 6.3.3 (4ae9cef) compiled by 'conda@95abc7406d43' on 2020-10-14
          program call               : xtb alk_9.xyz --opt --chrg 0 --uhf 0 --gfn 2
          number of atoms            :                    28
          number of electrons        :                    74
          charge                     :                     0
          spin                       :                   0.0

   ID    Z sym.   atoms
    1    6 C      1-8, 10, 11, 13, 14
    2    8 O      9, 12
    3    1 H      15-28

          :  Hamiltonian                  GFN2-xTB          :
 * total energy  :   -40.9386363 Eh     change       -0.9299583E-09 Eh
 * total energy  :   -40.9424867 Eh     change       -0.3850332E-02 Eh
 * total energy  :   -40.9429081 Eh     change       -0.4213977E-03 Eh
 * total energy  :   -40.9429854 Eh     change       -0.7736394E-04 Eh
 * total energy  :   -40.9430338 Eh     change       -0.4841496E-04 Eh
 * total energy  :   -40.9430587 Eh     change       -0.2487001E-04 Eh
 * total energy  :   -40.9430696 Eh     change       -0.1090398E-04 Eh
 * total energy  :   -40.9430832 Eh     change       -0.1362867E-04 Eh
 * total energy  :   -40.9430880 Eh     change       -0.4803971E-05 Eh
   *** GEOMETRY OPTIMIZATION CONVERGED AFTER 9 ITERATIONS ***

 final structure:
================
28
 xtb: 6.3.3 (4ae9cef)
C         4.91805131027334    1.21182980630612    0.96360380926485
C         4.05079345715774    0.22325782232316    0.86376342338993
C         3.54105623964014   -0.33068136042297   -0.43516364171937
C         2.04353784295893   -0.19779881903375   -0.48279383521758
C         1.46245335328816    1.01685052075263   -0.83218862426849
C         0.09057931508337    1.15926701645002   -0.84860197239995
C        -0.73079903303510    0.08515743148724   -0.51147541529705
C        -2.19870148634677    0.28012922929494   -0.55406650407397
O        -2.87214936787021   -0.84220467506524   -0.25685389973125
C        -4.29572349831512   -0.76046654243694   -0.26896171971616
C        -4.83512330699650   -0.22766807702488    1.05074115731456
O        -2.73553555062458    1.32331616732337   -0.84085372634512
C        -0.15475733368543   -1.12966668519269   -0.15130728689444
C         1.21994275660702   -1.26306204765878   -0.13676948817032
H         5.33701871500743    1.68955484947440    0.09294627930450
H         5.25404017150477    1.58154294705777    1.91714715703054
H         3.63946633603208   -0.24059070555578    1.75067712713621
H         3.99481958705741    0.20987801460881   -1.26759568524871
H         3.81868479984800   -1.38559698246145   -0.50815879126071
H         2.09578158286570    1.85214826903965   -1.09285463571980
H        -0.37029009123521    2.09648439135671   -1.12160669854525
H        -4.63764816114402   -1.78199217438503   -0.45094782769249
H        -4.60634081989601   -0.11005691896510   -1.09370227245316
H        -5.92114546931017   -0.23781524839563    1.03172916662855
H        -4.48700060090494   -0.84436434503528    1.87611955512533
H        -4.49466831645499    0.79346464848672    1.20410281154467
H        -0.78814836784540   -1.96159945794018    0.11373367812737
H         1.66180793634012   -2.20931407438766    0.14186785988778

          :  Hamiltonian                  GFN2-xTB          :
         :: total energy             -40.943088044568 Eh    ::
         :: gradient norm              0.000888510249 Eh/a0 ::
         :: HOMO-LUMO gap              3.701501073661 eV    ::
         :: SCC energy               -41.566345635834 Eh    ::
         :: -> dispersion             -0.023425166715 Eh    ::
         :: repulsion energy           0.623328802701 Eh    ::

    * Orbital Energies and Occupations

         #    Occupation            Energy/Eh            Energy/eV
      -------------------------------------------------------------
         1        2.0000           -0.7351761             -20.0052
       ...           ...                  ...                  ...
        25        2.0000           -0.4831148             -13.1462
        26        2.0000           -0.4747358             -12.9182
        27        2.0000           -0.4696998             -12.7812
        28        2.0000           -0.4608618             -12.5407
        29        2.0000           -0.4473431             -12.1728
        30        2.0000           -0.4450703             -12.1110
        31        2.0000           -0.4404261             -11.9846
        32        2.0000           -0.4397254             -11.9655
        33        2.0000           -0.4273714             -11.6294
        34        2.0000           -0.4141466             -11.2695
        35        2.0000           -0.4101723             -11.1614
        36        2.0000           -0.4062454             -11.0545
        37        2.0000           -0.4033398             -10.9754 (HOMO)
        38                         -0.2673122              -7.2739 (LUMO)
        39                         -0.2310522              -6.2872
        40                         -0.2085033              -5.6737
        41                         -0.1823005              -4.9606
        42                         -0.0887667              -2.4155
        43                          0.0124996               0.3401
        44                          0.0941028               2.5607
        45                          0.1111631               3.0249
        46                          0.1150078               3.1295
        47                          0.1201035               3.2682
        48                          0.1284974               3.4966
       ...                                ...                  ...
        70                          0.7001748              19.0527
      -------------------------------------------------------------
                  HL-Gap            0.1360277 Eh            3.7015 eV

     #   Z          covCN         q      C6AA      Î±(0)
     1   6 C        2.837    -0.093    30.334     9.026
     2   6 C        2.891    -0.022    28.556     8.761
     3   6 C        3.812    -0.065    21.733     6.636
     4   6 C        2.975     0.025    27.431     8.591
     5   6 C        2.923    -0.035    28.871     8.812
     6   6 C        2.923    -0.021    28.531     8.759
     7   6 C        2.973    -0.024    28.611     8.774
     8   6 C        2.725     0.353    21.014     7.505
     9   8 O        1.704    -0.273    18.527     5.811
    10   6 C        3.700     0.082    19.371     6.294
    11   6 C        3.750    -0.113    22.722     6.798
    12   8 O        0.856    -0.421    22.115     6.305
    13   6 C        2.919    -0.024    28.607     8.771
    14   6 C        2.923    -0.036    28.900     8.816
    15   1 H        0.926     0.039     2.463     2.454
    16   1 H        0.926     0.038     2.471     2.458
    17   1 H        0.925     0.033     2.538     2.491
    18   1 H        0.924     0.049     2.327     2.386
    19   1 H        0.924     0.049     2.333     2.389
    20   1 H        0.926     0.042     2.420     2.433
    21   1 H        0.926     0.060     2.195     2.317
    22   1 H        0.924     0.051     2.303     2.373
    23   1 H        0.924     0.057     2.240     2.341
    24   1 H        0.925     0.048     2.341     2.393
    25   1 H        0.925     0.050     2.316     2.380
    26   1 H        0.925     0.060     2.198     2.319
    27   1 H        0.926     0.052     2.293     2.368
    28   1 H        0.926     0.038     2.471     2.458

Wiberg/Mayer (AO) data.
largest (>0.10) Wiberg bond orders for each atom

     #   Z sym  total        # sym  WBO       # sym  WBO       # sym  WBO
 ---------------------------------------------------------------------------
     1   6 C    3.989 --     2 C    1.978    16 H    0.976    15 H    0.975
     2   6 C    3.989 --     1 C    1.978     3 C    1.004    17 H    0.967
     3   6 C    3.996 --     2 C    1.004     4 C    1.000    18 H    0.968
                            19 H    0.958
     4   6 C    3.986 --    14 C    1.403     5 C    1.399     3 C    1.000
     5   6 C    3.991 --     6 C    1.465     4 C    1.399    20 H    0.968
                            13 C    0.105
     6   6 C    3.988 --     5 C    1.465     7 C    1.380    21 H    0.966
                            14 C    0.103
     7   6 C    3.986 --    13 C    1.386     6 C    1.380     8 C    1.006
     8   6 C    3.917 --    12 O    1.719     9 O    1.117     7 C    1.006
     9   8 O    2.298 --     8 C    1.117    10 C    0.942    12 O    0.168
    10   6 C    3.929 --    11 C    1.012    22 H    0.973    23 H    0.968
                             9 O    0.942
    11   6 C    3.992 --    10 C    1.012    25 H    0.986    26 H    0.985
                            24 H    0.984
    12   8 O    2.025 --     8 C    1.719     9 O    0.168
    13   6 C    3.990 --    14 C    1.459     7 C    1.386    27 H    0.967
                             5 C    0.105
    14   6 C    3.991 --    13 C    1.459     4 C    1.403    28 H    0.968
                             6 C    0.103
    15   1 H    0.998 --     1 C    0.975
    16   1 H    0.997 --     1 C    0.976
    17   1 H    0.999 --     2 C    0.967
    18   1 H    0.997 --     3 C    0.968
    19   1 H    0.997 --     3 C    0.958
    20   1 H    0.998 --     5 C    0.968
    21   1 H    0.996 --     6 C    0.966
    22   1 H    0.997 --    10 C    0.973
    23   1 H    0.997 --    10 C    0.968
    24   1 H    0.997 --    11 C    0.984
    25   1 H    0.997 --    11 C    0.986
    26   1 H    0.996 --    11 C    0.985
    27   1 H    0.997 --    13 C    0.967
    28   1 H    0.998 --    14 C    0.968
 ---------------------------------------------------------------------------

molecular dipole:
                 x           y           z       tot (Debye)
 q only:        0.524      -0.721       0.266
   full:        0.496      -0.829       0.268       2.547

           -------------------------------------------------
          | TOTAL ENERGY              -40.943088044568 Eh   |
          | GRADIENT NORM               0.000888510249 Eh/Î± |
          | HOMO-LUMO GAP               3.701501073661 eV   |
           -------------------------------------------------

 * finished run on 2022/03/17 at 19:35:15.056
