   * xtb version 6.3.3 (4ae9cef) compiled by 'conda@95abc7406d43' on 2020-10-14
          program call               : xtb acid_348.xyz --opt --chrg 0 --uhf 0 --gfn 2
          number of atoms            :                    56
          number of electrons        :                   186
          charge                     :                     0
          spin                       :                   0.0

   ID    Z sym.   atoms
    1    6 C      1-14, 16-21, 25, 26, 30-35
    2    7 N      15, 22, 29, 36
    3    8 O      23, 24, 27, 28, 37, 38
    4    1 H      39-56

          :  Hamiltonian                  GFN2-xTB          :
 * total energy  :  -105.1551367 Eh     change       -0.3428767E-08 Eh
 * total energy  :  -105.1674382 Eh     change       -0.1230149E-01 Eh
 * total energy  :  -105.1713664 Eh     change       -0.3928262E-02 Eh
 * total energy  :  -105.1723196 Eh     change       -0.9531955E-03 Eh
 * total energy  :  -105.1718912 Eh     change        0.4284567E-03 Eh
 * total energy  :  -105.1729398 Eh     change       -0.1048602E-02 Eh
 * total energy  :  -105.1728778 Eh     change        0.6197110E-04 Eh
 * total energy  :  -105.1732749 Eh     change       -0.3970583E-03 Eh
 * total energy  :  -105.1734785 Eh     change       -0.2035918E-03 Eh
 * total energy  :  -105.1738111 Eh     change       -0.3326823E-03 Eh
 * total energy  :  -105.1764196 Eh     change       -0.1738365E-04 Eh
 * total energy  :  -105.1764349 Eh     change       -0.1531945E-04 Eh
 * total energy  :  -105.1764474 Eh     change       -0.1245603E-04 Eh
 * total energy  :  -105.1764544 Eh     change       -0.7015236E-05 Eh
 * total energy  :  -105.1764616 Eh     change       -0.7179749E-05 Eh
 * total energy  :  -105.1764640 Eh     change       -0.2408572E-05 Eh
 * total energy  :  -105.1764661 Eh     change       -0.2137424E-05 Eh
 * total energy  :  -105.1764688 Eh     change       -0.2672308E-05 Eh
 * total energy  :  -105.1764698 Eh     change       -0.1030321E-05 Eh
   *** GEOMETRY OPTIMIZATION CONVERGED AFTER 44 ITERATIONS ***

 final structure:
================
56
 xtb: 6.3.3 (4ae9cef)
C        -3.11024865428820   -1.03881385859075   -0.89522132684911
C        -3.93944749479669   -1.07747676400853   -2.00245254779656
C        -3.49579849406178   -0.58694286238426   -3.21841008802026
C        -2.21425398265620   -0.07372458127827   -3.32744897911634
C        -1.38446023692324   -0.03444597079719   -2.22189613899997
C        -1.83158201338449   -0.50537935054607   -0.99313227889141
C        -0.95226784589630   -0.41082137317263    0.23110280700955
C         0.28779890466760   -1.31786863220162    0.14317166536518
C         0.70305496820797   -1.93851265502133    1.45920047582553
C         1.38334540821811   -3.15042371026222    1.44209275355364
C         1.83760556419132   -3.71560451301815    2.61999520298012
C         1.61624420158978   -3.07821454921719    3.82869463072208
C         0.93835472814626   -1.87228980913264    3.85308112457738
C         0.48522373268999   -1.30261383073050    2.67557844191459
N         1.32754072188100   -0.40435906617400   -0.33183340659156
C         2.44935679670044   -0.88939023028854   -0.92514486610818
C         3.54308311876271    0.04525892011024   -1.23525152961657
C         4.80505551923877   -0.31134958720488   -1.65739824740905
C         5.52911715314798    0.88112095386507   -1.80072573206732
C         4.65624198811866    1.89210844277281   -1.46014556467448
C         4.86948621915543    3.27929521783507   -1.43355225908219
N         5.07652075119108    4.40691238992417   -1.41952143782890
O         3.45299521626360    1.38238453993819   -1.12124834790340
O         2.55116965275642   -2.06688939919815   -1.21594085100847
C         1.06096601493513    0.90508693637373    0.18991741912584
C         1.84732082993918    1.16174381114395    1.49259031038209
O         1.17412282164334    1.91881093071367    2.34497218560199
O         2.95526503837375    0.74384033273290    1.67821727299696
N        -0.37389774167608    0.92482453188298    0.36783333428370
C        -1.04722541363097    2.08834170331293    0.17037736603263
C        -2.53166352098232    1.94022721171567    0.24254485804976
C        -3.34878728557529    1.56874543514934    1.28077396692187
C        -4.66316307668791    1.62450428378880    0.78341166064270
C        -4.54999941295620    2.02612526511736   -0.52902435700676
C        -5.55250239078072    2.18958973535220   -1.49690014881930
N        -6.39790018459229    2.29974722380649   -2.26381543004574
O        -3.25412078108088    2.23137555817762   -0.84425084909448
O        -0.49150184285927    3.14589141668851   -0.01764556395815
H        -3.46144810233654   -1.41314110778131    0.05625130343138
H        -4.93731127397958   -1.47931194020123   -1.91186691729976
H        -4.14902457372388   -0.60084029968189   -4.07705030217558
H        -1.86159781737792    0.30488619172988   -4.27460408114530
H        -0.38908869182792    0.37520182979193   -2.31258195338744
H        -1.54457709009684   -0.66392741793241    1.11639279010075
H         0.16352653109954   -2.10394120164394   -0.60789355422183
H         1.57134353172111   -3.63742506614830    0.49793195334668
H         2.36801639837643   -4.65538449107503    2.59266880825325
H         1.97186446144443   -3.51728660494266    4.74870755241088
H         0.76191424675858   -1.36906524547005    4.79258642597627
H        -0.04175928065041   -0.36047011537810    2.71955707133304
H         5.14380746168980   -1.31158966781433   -1.83012145376050
H         6.54813222572711    0.99890485724258   -2.10804271718197
H         1.34819850431202    1.71480349861114   -0.49980360373653
H         1.71246680100014    2.13095851968008    3.12571012606824
H        -3.04491921152703    1.30513723759382    2.27307095980214
H        -5.57059709759075    1.40167792624460    1.30649106708144

          :  Hamiltonian                  GFN2-xTB          :
         :: total energy            -105.176469837466 Eh    ::
         :: gradient norm              0.000811917149 Eh/a0 ::
         :: HOMO-LUMO gap              3.023145539883 eV    ::
         :: SCC energy              -106.742605895464 Eh    ::
         :: -> dispersion             -0.082312095334 Eh    ::
         :: repulsion energy           1.564057480213 Eh    ::

    * Orbital Energies and Occupations

         #    Occupation            Energy/Eh            Energy/eV
      -------------------------------------------------------------
         1        2.0000           -0.7818362             -21.2748
       ...           ...                  ...                  ...
        81        2.0000           -0.4454686             -12.1218
        82        2.0000           -0.4451876             -12.1142
        83        2.0000           -0.4398156             -11.9680
        84        2.0000           -0.4377952             -11.9130
        85        2.0000           -0.4317612             -11.7488
        86        2.0000           -0.4282611             -11.6536
        87        2.0000           -0.4264058             -11.6031
        88        2.0000           -0.4255771             -11.5805
        89        2.0000           -0.4241444             -11.5416
        90        2.0000           -0.4218110             -11.4781
        91        2.0000           -0.4210907             -11.4585
        92        2.0000           -0.4157053             -11.3119
        93        2.0000           -0.4112602             -11.1910 (HOMO)
        94                         -0.3001617              -8.1678 (LUMO)
        95                         -0.2905018              -7.9050
        96                         -0.2700856              -7.3494
        97                         -0.2547869              -6.9331
        98                         -0.2514423              -6.8421
        99                         -0.2471754              -6.7260
       100                         -0.2458259              -6.6893
       101                         -0.2427285              -6.6050
       102                         -0.2394107              -6.5147
       103                         -0.2356403              -6.4121
       104                         -0.2353393              -6.4039
       ...                                ...                  ...
       170                          1.1628314              31.6423
      -------------------------------------------------------------
                  HL-Gap            0.1110986 Eh            3.0231 eV

     #   Z          covCN         q      C6AA      Î±(0)
     1   6 C        2.924    -0.037    28.925     8.820
     2   6 C        2.919    -0.026    28.658     8.779
     3   6 C        2.920    -0.025    28.622     8.773
     4   6 C        2.920    -0.022    28.565     8.764
     5   6 C        2.923    -0.029    28.726     8.789
     6   6 C        2.973    -0.007    28.191     8.709
     7   6 C        3.820     0.032    20.029     6.369
     8   6 C        3.840     0.039    19.886     6.344
     9   6 C        2.972    -0.002    28.069     8.690
    10   6 C        2.925    -0.030    28.739     8.791
    11   6 C        2.920    -0.024    28.602     8.770
    12   6 C        2.920    -0.026    28.661     8.779
    13   6 C        2.920    -0.028    28.702     8.785
    14   6 C        2.922    -0.040    28.984     8.829
    15   7 N        2.767    -0.104    23.272     7.165
    16   6 C        2.757     0.266    22.506     7.769
    17   6 C        3.112     0.101    25.629     8.293
    18   6 C        3.022    -0.039    28.955     8.827
    19   6 C        3.010    -0.044    29.069     8.844
    20   6 C        3.120     0.131    24.972     8.185
    21   6 C        1.894     0.111    28.366     8.602
    22   7 N        0.911    -0.194    25.204     7.261
    23   8 O        1.727    -0.180    17.024     5.571
    24   8 O        0.860    -0.421    22.097     6.302
    25   6 C        3.774     0.094    19.059     6.221
    26   6 C        2.687     0.359    20.905     7.483
    27   8 O        1.659    -0.350    19.897     6.022
    28   8 O        0.856    -0.391    21.500     6.217
    29   7 N        2.768    -0.112    23.441     7.191
    30   6 C        2.761     0.272    22.400     7.751
    31   6 C        3.128     0.100    25.610     8.286
    32   6 C        3.018    -0.060    29.473     8.905
    33   6 C        3.017    -0.048    29.163     8.858
    34   6 C        3.125     0.123    25.132     8.209
    35   6 C        1.895     0.112    28.352     8.600
    36   7 N        0.911    -0.199    25.314     7.277
    37   8 O        1.729    -0.155    16.641     5.508
    38   8 O        0.859    -0.394    21.556     6.225
    39   1 H        0.926     0.029     2.602     2.522
    40   1 H        0.926     0.042     2.427     2.436
    41   1 H        0.926     0.047     2.363     2.404
    42   1 H        0.926     0.045     2.383     2.414
    43   1 H        0.926     0.033     2.544     2.494
    44   1 H        0.924     0.059     2.214     2.327
    45   1 H        0.924     0.081     1.965     2.192
    46   1 H        0.926     0.060     2.193     2.316
    47   1 H        0.926     0.044     2.401     2.423
    48   1 H        0.926     0.040     2.451     2.448
    49   1 H        0.926     0.035     2.519     2.482
    50   1 H        0.926     0.027     2.622     2.532
    51   1 H        0.927     0.077     2.014     2.219
    52   1 H        0.926     0.064     2.158     2.297
    53   1 H        0.923     0.107     1.726     2.054
    54   1 H        0.804     0.347     0.595     1.212
    55   1 H        0.926     0.051     2.304     2.374
    56   1 H        0.926     0.060     2.201     2.320

Wiberg/Mayer (AO) data.
largest (>0.10) Wiberg bond orders for each atom

     #   Z sym  total        # sym  WBO       # sym  WBO       # sym  WBO
 ---------------------------------------------------------------------------
     1   6 C    3.990 --     2 C    1.443     6 C    1.412    39 H    0.968
                             4 C    0.110
     2   6 C    3.992 --     1 C    1.443     3 C    1.440    40 H    0.970
                             5 C    0.111
     3   6 C    3.990 --     2 C    1.440     4 C    1.437    41 H    0.970
                             6 C    0.109
     4   6 C    3.992 --     5 C    1.447     3 C    1.437    42 H    0.970
                             1 C    0.110
     5   6 C    3.992 --     4 C    1.447     6 C    1.410    43 H    0.969
                             2 C    0.111
     6   6 C    3.985 --     1 C    1.412     5 C    1.410     7 C    0.986
                             3 C    0.109
     7   6 C    3.961 --     6 C    0.986     8 C    0.966    29 N    0.954
                            44 H    0.953
     8   6 C    3.958 --     9 C    0.981     7 C    0.966    45 H    0.954
                            15 N    0.948
     9   6 C    3.982 --    14 C    1.415    10 C    1.411     8 C    0.981
                            12 C    0.109
    10   6 C    3.988 --    11 C    1.445     9 C    1.411    46 H    0.965
                            13 C    0.112
    11   6 C    3.991 --    10 C    1.445    12 C    1.438    47 H    0.970
                            14 C    0.111
    12   6 C    3.991 --    13 C    1.440    11 C    1.438    48 H    0.971
                             9 C    0.109
    13   6 C    3.992 --    14 C    1.441    12 C    1.440    49 H    0.971
                            10 C    0.112
    14   6 C    3.992 --    13 C    1.441     9 C    1.415    50 H    0.965
                            11 C    0.111
    15   7 N    3.471 --    16 C    1.201    25 C    0.995     8 C    0.948
                            24 O    0.187
    16   6 C    3.958 --    24 O    1.649    15 N    1.201    17 C    1.017
    17   6 C    3.912 --    18 C    1.495    23 O    1.125    16 C    1.017
                            20 C    0.123
    18   6 C    3.982 --    17 C    1.495    19 C    1.357    51 H    0.969
    19   6 C    3.985 --    20 C    1.465    18 C    1.357    52 H    0.972
    20   6 C    3.909 --    19 C    1.465    21 C    1.109    23 O    1.098
                            17 C    0.123
    21   6 C    3.955 --    22 N    2.798    20 C    1.109
    22   7 N    3.001 --    21 C    2.798
    23   8 O    2.449 --    17 C    1.125    20 C    1.098
    24   8 O    1.996 --    16 C    1.649    15 N    0.187
    25   6 C    3.965 --    15 N    0.995    29 N    0.982    53 H    0.916
                            26 C    0.910
    26   6 C    3.921 --    28 O    1.774    27 O    1.168    25 C    0.910
    27   8 O    2.233 --    26 C    1.168    54 H    0.853    28 O    0.183
    28   8 O    2.061 --    26 C    1.774    27 O    0.183
    29   7 N    3.463 --    30 C    1.211    25 C    0.982     7 C    0.954
                            38 O    0.199
    30   6 C    3.956 --    38 O    1.707    29 N    1.211    31 C    0.955
    31   6 C    3.915 --    32 C    1.519    37 O    1.154    30 C    0.955
                            34 C    0.127
    32   6 C    3.982 --    31 C    1.519    33 C    1.341    55 H    0.973
    33   6 C    3.985 --    34 C    1.476    32 C    1.341    56 H    0.973
    34   6 C    3.907 --    33 C    1.476    35 C    1.109    37 O    1.098
                            31 C    0.127
    35   6 C    3.955 --    36 N    2.797    34 C    1.109
    36   7 N    3.006 --    35 C    2.797
    37   8 O    2.470 --    31 C    1.154    34 C    1.098
    38   8 O    2.044 --    30 C    1.707    29 N    0.199
    39   1 H    0.999 --     1 C    0.968
    40   1 H    0.998 --     2 C    0.970
    41   1 H    0.997 --     3 C    0.970
    42   1 H    0.998 --     4 C    0.970
    43   1 H    0.999 --     5 C    0.969
    44   1 H    0.996 --     7 C    0.953
    45   1 H    0.992 --     8 C    0.954
    46   1 H    0.996 --    10 C    0.965
    47   1 H    0.998 --    11 C    0.970
    48   1 H    0.998 --    12 C    0.971
    49   1 H    0.998 --    13 C    0.971
    50   1 H    0.999 --    14 C    0.965
    51   1 H    0.993 --    18 C    0.969
    52   1 H    0.995 --    19 C    0.972
    53   1 H    0.988 --    25 C    0.916
    54   1 H    0.879 --    27 O    0.853
    55   1 H    0.996 --    32 C    0.973
    56   1 H    0.996 --    33 C    0.973
 ---------------------------------------------------------------------------

molecular dipole:
                 x           y           z       tot (Debye)
 q only:       -0.507      -1.633       1.325
   full:       -0.231      -1.886       1.834       6.711

           -------------------------------------------------
          | TOTAL ENERGY             -105.176469837466 Eh   |
          | GRADIENT NORM               0.000811917149 Eh/Î± |
          | HOMO-LUMO GAP               3.023145539883 eV   |
           -------------------------------------------------

 * finished run on 2022/03/17 at 00:07:49.683
