   * xtb version 6.3.3 (4ae9cef) compiled by 'conda@95abc7406d43' on 2020-10-14
          program call               : xtb acid_170.xyz --opt --chrg 0 --uhf 0 --gfn 2
          number of atoms            :                    72
          number of electrons        :                   202
          charge                     :                     0
          spin                       :                   0.0

   ID    Z sym.   atoms
    1    6 C      1-14, 16-24, 26, 27, 31-39
    2    7 N      15, 30
    3    8 O      25, 28, 29, 40
    4    1 H      41-72

          :  Hamiltonian                  GFN2-xTB          :
 * total energy  :  -111.2810298 Eh     change       -0.9028298E-09 Eh
 * total energy  :  -111.2937833 Eh     change       -0.1275345E-01 Eh
 * total energy  :  -111.2972595 Eh     change       -0.3476253E-02 Eh
 * total energy  :  -111.2982361 Eh     change       -0.9766058E-03 Eh
 * total energy  :  -111.2987446 Eh     change       -0.5084919E-03 Eh
 * total energy  :  -111.2990009 Eh     change       -0.2562656E-03 Eh
 * total energy  :  -111.2992421 Eh     change       -0.2412208E-03 Eh
 * total energy  :  -111.2995152 Eh     change       -0.2730673E-03 Eh
 * total energy  :  -111.2998235 Eh     change       -0.3083340E-03 Eh
 * total energy  :  -111.3001391 Eh     change       -0.3155573E-03 Eh
 * total energy  :  -111.3038632 Eh     change       -0.3594538E-04 Eh
 * total energy  :  -111.3038734 Eh     change       -0.1018203E-04 Eh
 * total energy  :  -111.3038756 Eh     change       -0.2170707E-05 Eh
 * total energy  :  -111.3038916 Eh     change       -0.1600003E-04 Eh
 * total energy  :  -111.3039004 Eh     change       -0.8784651E-05 Eh
 * total energy  :  -111.3039063 Eh     change       -0.5920159E-05 Eh
 * total energy  :  -111.3039149 Eh     change       -0.8624073E-05 Eh
 * total energy  :  -111.3039201 Eh     change       -0.5198021E-05 Eh
 * total energy  :  -111.3039233 Eh     change       -0.3146289E-05 Eh
   *** GEOMETRY OPTIMIZATION CONVERGED AFTER 68 ITERATIONS ***

 final structure:
================
72
 xtb: 6.3.3 (4ae9cef)
C        -2.64167618832534    3.03844171885628    0.41186271357312
C        -3.13043618693048    4.20887013309420    0.96737089794222
C        -2.28225055304378    5.27556035342695    1.20555703962367
C        -0.94241162461466    5.17274085671711    0.87016529216321
C        -0.45262284379596    4.00336433649054    0.31847360563635
C        -1.29486426995848    2.91867934977181    0.09976693548443
C        -0.73226369264382    1.65571320961450   -0.50736219469695
C         0.52120130804698    1.12240346492681    0.24843048490599
C         1.66894303557332    0.85931578440807   -0.69186128505808
C         1.56169095158834   -0.13012845284479   -1.66181169218757
C         2.61206302311798   -0.37708376830592   -2.52536212745410
C         3.77824731002406    0.36364189472258   -2.43077328051409
C         3.88678764634041    1.35754304553566   -1.47423990550459
C         2.83505012657405    1.60668855887766   -0.61142873609743
N         0.03657148172314   -0.09855184262004    0.87278972486827
C         0.76694203011244   -1.11257791725749    1.40464588669404
C         2.22891971574748   -0.83945813352841    1.51119830323281
C         3.12218680291593   -1.61722414590258    0.79287386058427
C         4.48525660591330   -1.35750404377182    0.85316915004950
C         5.43781282293009   -2.16439601683171    0.02593408497482
C         4.93301527648678   -0.33177668950899    1.67042488668733
C         4.05354692667420    0.42887170487989    2.43281518838459
C         4.57745311189494    1.52122275051078    3.31569105238222
C         2.69518192395558    0.17128462046596    2.34261867611434
O         0.24197199979892   -2.14932933767436    1.76053396904437
C        -1.39247086975032   -0.22383693246508    0.70760929364116
C        -2.14230165406315    0.36338592524074    1.91901562125704
O        -1.33464092735955    1.02323024395117    2.74265000863007
O        -3.32179509340582    0.24714671166184    2.10306012892217
N        -1.66845494655451    0.54388357772035   -0.47791866700655
C        -2.16985200747696    0.05767264056234   -1.66190114057371
C        -2.93096993576746   -1.21387121597545   -1.58673871210856
C        -3.88819046147623   -1.45308681951637   -0.60631267600656
C        -4.59131800143796   -2.64875416793190   -0.59485618075117
C        -5.63306328630959   -2.89892825249928    0.45163197962911
C        -4.32411083960627   -3.59832839381313   -1.57382735741185
C        -3.38519693663525   -3.36988990187574   -2.56960327547636
C        -3.11020825911310   -4.39287273803608   -3.62938188268621
C        -2.69696123855736   -2.16457260296955   -2.57313524155520
O        -1.99749343783538    0.66196933300214   -2.70106139974570
H        -3.31547112248021    2.21935110433308    0.21229637212328
H        -4.17984064713405    4.28532237484683    1.21004082968959
H        -2.66450032582447    6.18780007485473    1.63872255974235
H        -0.27761548737796    6.00805520595722    1.03413043608775
H         0.58923500432709    3.93573134131792    0.04010081671406
H        -0.49533598381902    1.85350665431648   -1.56144236952086
H         0.82565813645150    1.83851395854103    1.02006954679439
H         0.65545972591105   -0.71378638771641   -1.73607985045117
H         2.52045457815067   -1.14971194802009   -3.27414050183426
H         4.59966541815266    0.16885405808328   -3.10445876192427
H         4.79344475054064    1.93890795695645   -1.39757205387864
H         2.92510028896454    2.37833758445615    0.13945129122995
H         2.74917415710544   -2.41582761706304    0.16924770964984
H         5.33637668759462   -1.88794684081273   -1.02364698976171
H         5.21695298529764   -3.22609855257355    0.11429187947543
H         6.46656006453624   -1.99105525841462    0.33091494087327
H         5.99199390633404   -0.12040817076750    1.72571279125165
H         5.02039138476511    2.31333464073906    2.71218457907647
H         5.35152553539453    1.13792544141005    3.97818827901816
H         3.78223618340169    1.94989744727218    3.92008322748728
H         1.99238806321656    0.74773435250860    2.92756290064491
H        -1.68099091933232   -1.27824779359619    0.60901351419355
H        -1.83289913653462    1.37691306110726    3.49767944702738
H        -4.09827725621261   -0.70664045245217    0.14368104495090
H        -5.42296616779787   -2.31830577921380    1.34626685054820
H        -5.67682817884193   -3.95407386108807    0.71189119086991
H        -6.61350933614264   -2.60279446527352    0.07724821469979
H        -4.86586070808517   -4.53405771606417   -1.56109756265771
H        -2.06177967640019   -4.68723306597500   -3.60865659007009
H        -3.31959456651810   -3.97958890023098   -4.61496814624006
H        -3.72316021287484   -5.27882415535828   -3.48573868071104
H        -1.96727398954995   -1.95504113319560   -3.34168994469848

          :  Hamiltonian                  GFN2-xTB          :
         :: total energy            -111.303923269032 Eh    ::
         :: gradient norm              0.000290919606 Eh/a0 ::
         :: HOMO-LUMO gap              3.500487524182 eV    ::
         :: SCC energy              -113.056834146504 Eh    ::
         :: -> dispersion             -0.099940490225 Eh    ::
         :: repulsion energy           1.749728086777 Eh    ::

    * Orbital Energies and Occupations

         #    Occupation            Energy/Eh            Energy/eV
      -------------------------------------------------------------
         1        2.0000           -0.7681298             -20.9019
       ...           ...                  ...                  ...
        89        2.0000           -0.4222037             -11.4887
        90        2.0000           -0.4189143             -11.3992
        91        2.0000           -0.4150722             -11.2947
        92        2.0000           -0.4130516             -11.2397
        93        2.0000           -0.4078419             -11.0979
        94        2.0000           -0.4048382             -11.0162
        95        2.0000           -0.3999784             -10.8840
        96        2.0000           -0.3987153             -10.8496
        97        2.0000           -0.3973346             -10.8120
        98        2.0000           -0.3956011             -10.7649
        99        2.0000           -0.3909398             -10.6380
       100        2.0000           -0.3893069             -10.5936
       101        2.0000           -0.3880774             -10.5601 (HOMO)
       102                         -0.2594369              -7.0596 (LUMO)
       103                         -0.2480301              -6.7492
       104                         -0.2421434              -6.5891
       105                         -0.2354100              -6.4058
       106                         -0.2324307              -6.3248
       107                         -0.2312693              -6.2932
       108                         -0.2301011              -6.2614
       109                         -0.2229226              -6.0660
       110                         -0.2179783              -5.9315
       111                         -0.1996164              -5.4318
       112                         -0.1890073              -5.1431
       ...                                ...                  ...
       192                          0.6701961              18.2370
      -------------------------------------------------------------
                  HL-Gap            0.1286405 Eh            3.5005 eV

     #   Z          covCN         q      C6AA      Î±(0)
     1   6 C        2.923    -0.033    28.816     8.803
     2   6 C        2.920    -0.028    28.689     8.783
     3   6 C        2.920    -0.031    28.781     8.798
     4   6 C        2.919    -0.028    28.708     8.786
     5   6 C        2.925    -0.038    28.946     8.823
     6   6 C        2.971     0.003    27.955     8.673
     7   6 C        3.845     0.037    19.919     6.349
     8   6 C        3.818     0.034    19.987     6.363
     9   6 C        2.973     0.000    28.017     8.682
    10   6 C        2.924    -0.028    28.690     8.784
    11   6 C        2.920    -0.026    28.643     8.776
    12   6 C        2.921    -0.029    28.728     8.790
    13   6 C        2.920    -0.027    28.676     8.782
    14   6 C        2.924    -0.034    28.851     8.808
    15   7 N        2.767    -0.116    23.518     7.203
    16   6 C        2.764     0.272    22.407     7.752
    17   6 C        2.975    -0.016    28.408     8.743
    18   6 C        2.930    -0.037    28.922     8.820
    19   6 C        2.965     0.020    27.568     8.612
    20   6 C        3.758    -0.111    22.665     6.787
    21   6 C        2.931    -0.049    29.221     8.865
    22   6 C        2.965     0.019    27.591     8.616
    23   6 C        3.758    -0.109    22.642     6.784
    24   6 C        2.928    -0.045    29.109     8.848
    25   8 O        0.859    -0.438    22.445     6.352
    26   6 C        3.785     0.093    19.062     6.219
    27   6 C        2.689     0.358    20.922     7.486
    28   8 O        1.659    -0.357    20.024     6.041
    29   8 O        0.856    -0.389    21.472     6.213
    30   7 N        2.762    -0.124    23.687     7.228
    31   6 C        2.766     0.272    22.408     7.752
    32   6 C        2.972    -0.024    28.593     8.771
    33   6 C        2.926    -0.051    29.267     8.872
    34   6 C        2.965     0.023    27.500     8.602
    35   6 C        3.758    -0.113    22.709     6.794
    36   6 C        2.930    -0.046    29.132     8.852
    37   6 C        2.964     0.020    27.561     8.611
    38   6 C        3.758    -0.110    22.659     6.787
    39   6 C        2.932    -0.036    28.900     8.816
    40   8 O        0.859    -0.423    22.138     6.308
    41   1 H        0.926     0.040     2.449     2.447
    42   1 H        0.926     0.039     2.467     2.456
    43   1 H        0.926     0.035     2.511     2.478
    44   1 H        0.926     0.035     2.513     2.479
    45   1 H        0.926     0.031     2.576     2.510
    46   1 H        0.923     0.086     1.915     2.164
    47   1 H        0.924     0.055     2.261     2.352
    48   1 H        0.926     0.034     2.534     2.489
    49   1 H        0.926     0.039     2.461     2.453
    50   1 H        0.926     0.036     2.506     2.475
    51   1 H        0.926     0.037     2.495     2.470
    52   1 H        0.926     0.030     2.591     2.517
    53   1 H        0.926     0.039     2.466     2.456
    54   1 H        0.925     0.049     2.335     2.390
    55   1 H        0.925     0.050     2.316     2.380
    56   1 H        0.925     0.045     2.388     2.417
    57   1 H        0.925     0.035     2.510     2.478
    58   1 H        0.925     0.047     2.354     2.399
    59   1 H        0.925     0.049     2.331     2.387
    60   1 H        0.925     0.042     2.421     2.433
    61   1 H        0.926     0.031     2.572     2.508
    62   1 H        0.924     0.096     1.824     2.112
    63   1 H        0.804     0.341     0.611     1.228
    64   1 H        0.926     0.052     2.295     2.369
    65   1 H        0.925     0.053     2.278     2.360
    66   1 H        0.925     0.046     2.372     2.408
    67   1 H        0.924     0.051     2.309     2.376
    68   1 H        0.925     0.036     2.505     2.475
    69   1 H        0.925     0.048     2.342     2.393
    70   1 H        0.925     0.050     2.315     2.379
    71   1 H        0.925     0.043     2.406     2.426
    72   1 H        0.926     0.044     2.394     2.420

Wiberg/Mayer (AO) data.
largest (>0.10) Wiberg bond orders for each atom

     #   Z sym  total        # sym  WBO       # sym  WBO       # sym  WBO
 ---------------------------------------------------------------------------
     1   6 C    3.991 --     2 C    1.438     6 C    1.418    41 H    0.966
                             4 C    0.110
     2   6 C    3.992 --     3 C    1.444     1 C    1.438    42 H    0.971
                             5 C    0.112
     3   6 C    3.992 --     2 C    1.444     4 C    1.433    43 H    0.971
                             6 C    0.109
     4   6 C    3.992 --     5 C    1.451     3 C    1.433    44 H    0.971
                             1 C    0.110
     5   6 C    3.991 --     4 C    1.451     6 C    1.404    45 H    0.968
                             2 C    0.112
     6   6 C    3.985 --     1 C    1.418     5 C    1.404     7 C    0.990
                             3 C    0.109
     7   6 C    3.964 --     6 C    0.990    30 N    0.972     8 C    0.946
                            46 H    0.937
     8   6 C    3.967 --     9 C    0.992    15 N    0.965    47 H    0.952
                             7 C    0.946
     9   6 C    3.987 --    14 C    1.414    10 C    1.407     8 C    0.992
                            12 C    0.109
    10   6 C    3.992 --    11 C    1.449     9 C    1.407    48 H    0.969
                            13 C    0.111
    11   6 C    3.992 --    10 C    1.449    12 C    1.435    49 H    0.971
                            14 C    0.110
    12   6 C    3.990 --    13 C    1.440    11 C    1.435    50 H    0.971
                             9 C    0.109
    13   6 C    3.992 --    14 C    1.442    12 C    1.440    51 H    0.971
                            10 C    0.111
    14   6 C    3.990 --    13 C    1.442     9 C    1.414    52 H    0.968
                            11 C    0.110
    15   7 N    3.468 --    16 C    1.209    26 C    0.980     8 C    0.965
                            25 O    0.188
    16   6 C    3.943 --    25 O    1.681    15 N    1.209    17 C    0.968
    17   6 C    3.987 --    18 C    1.417    24 C    1.392    16 C    0.968
                            21 C    0.105
    18   6 C    3.989 --    17 C    1.417    19 C    1.400    53 H    0.968
                            22 C    0.105
    19   6 C    3.988 --    21 C    1.425    18 C    1.400    20 C    1.025
                            24 C    0.103
    20   6 C    3.995 --    19 C    1.025    56 H    0.985    55 H    0.976
                            54 H    0.968
    21   6 C    3.990 --    19 C    1.425    22 C    1.402    57 H    0.968
                            17 C    0.105
    22   6 C    3.989 --    24 C    1.423    21 C    1.402    23 C    1.024
                            18 C    0.105
    23   6 C    3.995 --    22 C    1.024    60 H    0.986    59 H    0.975
                            58 H    0.971
    24   6 C    3.989 --    22 C    1.423    17 C    1.392    61 H    0.967
                            19 C    0.103
    25   8 O    2.004 --    16 C    1.681    15 N    0.188
    26   6 C    3.968 --    30 N    0.986    15 N    0.980    62 H    0.932
                            27 C    0.915
    27   6 C    3.916 --    29 O    1.773    28 O    1.160    26 C    0.915
    28   8 O    2.226 --    27 C    1.160    63 H    0.858    29 O    0.181
    29   8 O    2.059 --    27 C    1.773    28 O    0.181
    30   7 N    3.439 --    31 C    1.164    26 C    0.986     7 C    0.972
                            40 O    0.175
    31   6 C    3.939 --    40 O    1.694    30 N    1.164    32 C    0.994
    32   6 C    3.987 --    39 C    1.400    33 C    1.388    31 C    0.994
    33   6 C    3.989 --    34 C    1.417    32 C    1.388    64 H    0.962
                            37 C    0.102
    34   6 C    3.989 --    33 C    1.417    36 C    1.406    35 C    1.026
                            39 C    0.104
    35   6 C    3.995 --    34 C    1.026    65 H    0.982    66 H    0.981
                            67 H    0.966
    36   6 C    3.990 --    37 C    1.418    34 C    1.406    68 H    0.967
    37   6 C    3.988 --    36 C    1.418    39 C    1.409    38 C    1.025
                            33 C    0.102
    38   6 C    3.995 --    37 C    1.025    71 H    0.986    69 H    0.973
                            70 H    0.972
    39   6 C    3.989 --    37 C    1.409    32 C    1.400    72 H    0.968
                            34 C    0.104
    40   8 O    2.022 --    31 C    1.694    30 N    0.175
    41   1 H    0.998 --     1 C    0.966
    42   1 H    0.998 --     2 C    0.971
    43   1 H    0.998 --     3 C    0.971
    44   1 H    0.998 --     4 C    0.971
    45   1 H    0.999 --     5 C    0.968
    46   1 H    0.992 --     7 C    0.937
    47   1 H    0.996 --     8 C    0.952
    48   1 H    0.999 --    10 C    0.969
    49   1 H    0.998 --    11 C    0.971
    50   1 H    0.998 --    12 C    0.971
    51   1 H    0.998 --    13 C    0.971
    52   1 H    0.999 --    14 C    0.968
    53   1 H    0.998 --    18 C    0.968
    54   1 H    0.998 --    20 C    0.968
    55   1 H    0.997 --    20 C    0.976
    56   1 H    0.998 --    20 C    0.985
    57   1 H    0.998 --    21 C    0.968
    58   1 H    0.998 --    23 C    0.971
    59   1 H    0.997 --    23 C    0.975
    60   1 H    0.998 --    23 C    0.986
    61   1 H    0.999 --    24 C    0.967
    62   1 H    0.990 --    26 C    0.932
    63   1 H    0.883 --    28 O    0.858
    64   1 H    0.997 --    33 C    0.962
    65   1 H    0.997 --    35 C    0.982
    66   1 H    0.997 --    35 C    0.981
    67   1 H    0.997 --    35 C    0.966
    68   1 H    0.998 --    36 C    0.967
    69   1 H    0.997 --    38 C    0.973
    70   1 H    0.997 --    38 C    0.972
    71   1 H    0.998 --    38 C    0.986
    72   1 H    0.998 --    39 C    0.968
 ---------------------------------------------------------------------------

molecular dipole:
                 x           y           z       tot (Debye)
 q only:        1.228       0.786       0.484
   full:        1.277       0.801       0.648       4.171

           -------------------------------------------------
          | TOTAL ENERGY             -111.303923269032 Eh   |
          | GRADIENT NORM               0.000290919606 Eh/Î± |
          | HOMO-LUMO GAP               3.500487524182 eV   |
           -------------------------------------------------

 * finished run on 2022/03/16 at 22:03:14.837
