   * xtb version 6.3.3 (4ae9cef) compiled by 'conda@95abc7406d43' on 2020-10-14
          program call               : xtb acid_338.xyz --opt --chrg 0 --uhf 0 --gfn 2
          number of atoms            :                    66
          number of electrons        :                   218
          charge                     :                     0
          spin                       :                   0.0

   ID    Z sym.   atoms
    1    6 C      1-22, 24-26, 28, 29, 32, 33, 37-39, 41, 42
    2    7 N      23, 36
    3   35 Br     27, 40
    4   16 S      30, 43
    5    8 O      31, 34, 35, 44
    6    1 H      45-66

          :  Hamiltonian                  GFN2-xTB          :
 * total energy  :  -120.8113816 Eh     change       -0.2527671E-08 Eh
 * total energy  :  -120.8277232 Eh     change       -0.1634163E-01 Eh
 * total energy  :  -120.8328979 Eh     change       -0.5174638E-02 Eh
 * total energy  :  -120.8340019 Eh     change       -0.1104082E-02 Eh
 * total energy  :  -120.8344402 Eh     change       -0.4382599E-03 Eh
 * total energy  :  -120.8346206 Eh     change       -0.1804003E-03 Eh
 * total energy  :  -120.8348077 Eh     change       -0.1871023E-03 Eh
 * total energy  :  -120.8349871 Eh     change       -0.1793788E-03 Eh
 * total energy  :  -120.8351661 Eh     change       -0.1790301E-03 Eh
 * total energy  :  -120.8353485 Eh     change       -0.1823687E-03 Eh
 * total energy  :  -120.8390954 Eh     change       -0.1114232E-04 Eh
 * total energy  :  -120.8391067 Eh     change       -0.1132791E-04 Eh
 * total energy  :  -120.8391174 Eh     change       -0.1065203E-04 Eh
 * total energy  :  -120.8391267 Eh     change       -0.9363554E-05 Eh
 * total energy  :  -120.8391351 Eh     change       -0.8359625E-05 Eh
 * total energy  :  -120.8391427 Eh     change       -0.7609415E-05 Eh
 * total energy  :  -120.8391497 Eh     change       -0.6970765E-05 Eh
 * total energy  :  -120.8391560 Eh     change       -0.6364404E-05 Eh
 * total energy  :  -120.8391604 Eh     change       -0.4361028E-05 Eh
   *** GEOMETRY OPTIMIZATION CONVERGED AFTER 94 ITERATIONS ***

 final structure:
================
66
 xtb: 6.3.3 (4ae9cef)
C        -2.61356748282246    1.76610698975876   -1.39280343623683
C        -3.73854856703319    2.45060233595562   -1.03673677851604
C        -3.85865300327896    3.02708222510818    0.24634729828787
C        -5.00861140293283    3.73379050584784    0.65342628734317
C        -5.08851891339723    4.26850785103682    1.90932490989463
C        -4.02634281259410    4.11830800064773    2.81497972694999
C        -2.89548323906780    3.44284296277449    2.44921899284377
C        -2.78142630836559    2.88592372157088    1.15878978137100
C        -1.62725064385298    2.17920395595506    0.75914821536897
C        -1.53728210373309    1.62473406115777   -0.49089995416853
C        -0.37802403957854    0.76895878228709   -0.93962173350393
C         0.86288336154349    0.79508025706031   -0.03505923760714
C         2.08453159913380    0.35710413664054   -0.80883421484939
C         2.82724670663000    1.29233619751450   -1.48149703579771
C         3.93549949355632    0.91826966427242   -2.26557566469507
C         4.71663606504842    1.86628218476057   -2.95976500965085
C         5.78567158204416    1.47014644508285   -3.71267408236956
C         6.12162103130089    0.11001729851039   -3.81015904474368
C         5.38449111247265   -0.83234789886762   -3.15014847237692
C         4.27810851832628   -0.45562893544259   -2.36114220122961
C         3.50319763319211   -1.39715585856605   -1.65558882832944
C         2.43671262567428   -1.00250135664002   -0.89933425473472
N         0.50559980862799   -0.16729328637022    1.00375436696567
C         0.98584458234659   -0.01176683015936    2.26555241932373
C         0.66632009626473   -1.06204625204923    3.25220609722542
C         0.44264367530744   -0.85412348971972    4.58536809987278
Br        0.28556376885193    0.84565571035166    5.35545761582480
C         0.27914973089045   -2.04293738534069    5.33377566222807
C         0.40703829593969   -3.14824584419870    4.56167749208960
S         0.70609433053355   -2.76115668922394    2.91284249739026
O         1.68752497867063    0.93225683998719    2.56631614210529
C        -0.60337198773009   -0.99083757624460    0.56247370380402
C        -1.88816243979896   -0.69119736758456    1.36858821196670
O        -2.97124899381171   -0.91390950808077    0.63564306394485
O        -1.90540687118449   -0.35774536741495    2.51860568189162
N        -0.77177883483313   -0.63500713572627   -0.81655762996430
C        -0.76651269574697   -1.45886932932751   -1.89691212637600
C        -0.97508470114019   -2.90016506111929   -1.63809153573365
C        -0.32126630818864   -3.91943644781230   -2.27916780340872
Br        1.11805041398268   -3.65397195912730   -3.46159743175570
C        -0.78586544343264   -5.20774439363705   -1.92754057953266
C        -1.80962136636603   -5.14904396306811   -1.04083984192368
S        -2.21494082907786   -3.53596971289838   -0.60574297438668
O        -0.62849296980950   -1.04084873112934   -3.02677477281491
H        -2.52819468146164    1.31744210532091   -2.37143400817353
H        -4.55620839299418    2.55987050462755   -1.73455383439186
H        -5.82455452850007    3.84488178524647   -0.04658562114410
H        -5.97189702316858    4.80999280291368    2.21471209678261
H        -4.11050816768036    4.54170160508472    3.80470678571210
H        -2.07629645776705    3.31961841106892    3.14234265899070
H        -0.82814932378889    2.09579359389409    1.48029295793877
H        -0.13218146388709    0.96385378248782   -1.98695878918342
H         1.04286447212403    1.77545786914008    0.41257577044092
H         2.56572779503923    2.33936550564313   -1.41604137745091
H         4.45341119843185    2.91155988986084   -2.88323844998945
H         6.38120073357245    2.20078037550207   -4.24031156155263
H         6.96945839291778   -0.18333591271251   -4.41168558393526
H         5.63626027514391   -1.88061034685247   -3.22212487654334
H         3.76427095286786   -2.44298951949198   -1.72556780630539
H         1.86784395175860   -1.74211476007134   -0.35370702909666
H         0.08398807109895   -2.05142414143859    6.39032592172345
H         0.34764148299086   -4.17777287987216    4.85266474334252
H        -0.39595295588683   -2.06417348098125    0.67751715722487
H        -3.78037639101129   -0.72722509210245    1.13985340248277
H        -0.37136640699039   -6.11285650032974   -2.33106582936087
H        -2.36194398545425   -5.96107534349023   -0.61214934949707

          :  Hamiltonian                  GFN2-xTB          :
         :: total energy            -120.839160392767 Eh    ::
         :: gradient norm              0.000339182888 Eh/a0 ::
         :: HOMO-LUMO gap              2.317975300485 eV    ::
         :: SCC energy              -122.556838600748 Eh    ::
         :: -> dispersion             -0.111284636775 Eh    ::
         :: repulsion energy           1.714667797088 Eh    ::

    * Orbital Energies and Occupations

         #    Occupation            Energy/Eh            Energy/eV
      -------------------------------------------------------------
         1        2.0000           -0.8437492             -22.9596
       ...           ...                  ...                  ...
        97        2.0000           -0.4232492             -11.5172
        98        2.0000           -0.4203066             -11.4371
        99        2.0000           -0.4174361             -11.3590
       100        2.0000           -0.4169034             -11.3445
       101        2.0000           -0.4149546             -11.2915
       102        2.0000           -0.4114634             -11.1965
       103        2.0000           -0.4079245             -11.1002
       104        2.0000           -0.4068264             -11.0703
       105        2.0000           -0.4050642             -11.0224
       106        2.0000           -0.4005665             -10.9000
       107        2.0000           -0.3976033             -10.8193
       108        2.0000           -0.3892386             -10.5917
       109        2.0000           -0.3800930             -10.3429 (HOMO)
       110                         -0.2949090              -8.0249 (LUMO)
       111                         -0.2888941              -7.8612
       112                         -0.2766193              -7.5272
       113                         -0.2695979              -7.3361
       114                         -0.2624147              -7.1407
       115                         -0.2494370              -6.7875
       116                         -0.2436138              -6.6291
       117                         -0.2402529              -6.5376
       118                         -0.2320869              -6.3154
       119                         -0.2312739              -6.2933
       120                         -0.2241124              -6.0984
       ...                                ...                  ...
       218                          0.6969396              18.9647
      -------------------------------------------------------------
                  HL-Gap            0.0851840 Eh            2.3180 eV

     #   Z          covCN         q      C6AA      Î±(0)
     1   6 C        2.921    -0.036    28.894     8.815
     2   6 C        2.916    -0.035    28.879     8.812
     3   6 C        2.987     0.011    27.774     8.645
     4   6 C        2.918    -0.036    28.895     8.815
     5   6 C        2.916    -0.028    28.702     8.785
     6   6 C        2.916    -0.028    28.689     8.783
     7   6 C        2.918    -0.032    28.787     8.798
     8   6 C        2.987     0.014    27.701     8.634
     9   6 C        2.921    -0.043    29.079     8.843
    10   6 C        2.970    -0.006    28.163     8.705
    11   6 C        3.858     0.037    19.914     6.347
    12   6 C        3.840     0.040    19.866     6.341
    13   6 C        2.970     0.001    28.011     8.681
    14   6 C        2.924    -0.040    28.999     8.831
    15   6 C        2.987     0.018    27.606     8.619
    16   6 C        2.918    -0.033    28.832     8.805
    17   6 C        2.916    -0.028    28.691     8.784
    18   6 C        2.916    -0.028    28.701     8.785
    19   6 C        2.918    -0.032    28.803     8.801
    20   6 C        2.988     0.016    27.646     8.625
    21   6 C        2.918    -0.030    28.752     8.793
    22   6 C        2.919    -0.030    28.752     8.793
    23   7 N        2.768    -0.121    23.633     7.220
    24   6 C        2.774     0.282    22.226     7.721
    25   6 C        3.049    -0.015    28.340     8.731
    26   6 C        3.131     0.086    25.888     8.330
    27  35 Br       1.043    -0.112   188.121    22.115
    28   6 C        3.159    -0.046    28.799     8.774
    29   6 C        2.945    -0.015    28.389     8.739
    30  16 S        2.335    -0.024   142.040    20.059
    31   8 O        0.860    -0.409    21.860     6.269
    32   6 C        3.781     0.093    19.060     6.219
    33   6 C        2.687     0.354    20.989     7.498
    34   8 O        1.660    -0.354    19.978     6.034
    35   8 O        0.856    -0.385    21.377     6.199
    36   7 N        2.779    -0.109    23.384     7.182
    37   6 C        2.772     0.280    22.259     7.727
    38   6 C        3.044    -0.029    28.689     8.785
    39   6 C        3.125     0.079    26.052     8.358
    40  35 Br       1.032    -0.122   188.381    22.130
    41   6 C        3.149    -0.048    28.910     8.795
    42   6 C        2.946    -0.019    28.488     8.754
    43  16 S        2.321     0.007   140.787    19.970
    44   8 O        0.860    -0.406    21.802     6.260
    45   1 H        0.926     0.044     2.401     2.423
    46   1 H        0.926     0.038     2.471     2.458
    47   1 H        0.926     0.033     2.540     2.492
    48   1 H        0.926     0.034     2.530     2.487
    49   1 H        0.926     0.038     2.479     2.462
    50   1 H        0.926     0.047     2.362     2.403
    51   1 H        0.926     0.044     2.402     2.424
    52   1 H        0.924     0.085     1.928     2.171
    53   1 H        0.924     0.080     1.976     2.198
    54   1 H        0.926     0.036     2.509     2.477
    55   1 H        0.926     0.035     2.519     2.482
    56   1 H        0.926     0.034     2.537     2.491
    57   1 H        0.926     0.034     2.536     2.490
    58   1 H        0.926     0.037     2.495     2.470
    59   1 H        0.926     0.042     2.422     2.434
    60   1 H        0.926     0.016     2.802     2.618
    61   1 H        0.926     0.067     2.119     2.276
    62   1 H        0.926     0.063     2.166     2.301
    63   1 H        0.923     0.073     2.054     2.241
    64   1 H        0.804     0.348     0.594     1.210
    65   1 H        0.926     0.071     2.078     2.254
    66   1 H        0.926     0.067     2.114     2.274

Wiberg/Mayer (AO) data.
largest (>0.10) Wiberg bond orders for each atom

     #   Z sym  total        # sym  WBO       # sym  WBO       # sym  WBO
 ---------------------------------------------------------------------------
     1   6 C    3.990 --     2 C    1.570    10 C    1.287    45 H    0.968
     2   6 C    3.991 --     1 C    1.570     3 C    1.272    46 H    0.967
                             9 C    0.112
     3   6 C    3.990 --     4 C    1.283     2 C    1.272     8 C    1.254
     4   6 C    3.991 --     5 C    1.554     3 C    1.283    47 H    0.968
                             7 C    0.118
     5   6 C    3.990 --     4 C    1.554     6 C    1.323    48 H    0.971
     6   6 C    3.992 --     7 C    1.555     5 C    1.323    49 H    0.971
     7   6 C    3.989 --     6 C    1.555     8 C    1.281    50 H    0.967
                             4 C    0.118
     8   6 C    3.990 --     7 C    1.281     9 C    1.275     3 C    1.254
     9   6 C    3.989 --    10 C    1.529     8 C    1.275    51 H    0.962
                             2 C    0.112
    10   6 C    3.983 --     9 C    1.529     1 C    1.287    11 C    0.984
    11   6 C    3.952 --    10 C    0.984    12 C    0.961    52 H    0.950
                            36 N    0.943
    12   6 C    3.957 --    13 C    0.985    11 C    0.961    23 N    0.957
                            53 H    0.947
    13   6 C    3.984 --    14 C    1.520    22 C    1.301    12 C    0.985
    14   6 C    3.989 --    13 C    1.520    15 C    1.287    54 H    0.966
                            21 C    0.117
    15   6 C    3.990 --    14 C    1.287    16 C    1.276    20 C    1.249
    16   6 C    3.990 --    17 C    1.560    15 C    1.276    55 H    0.968
                            19 C    0.119
    17   6 C    3.992 --    16 C    1.560    18 C    1.319    56 H    0.971
    18   6 C    3.990 --    19 C    1.559    17 C    1.319    57 H    0.971
    19   6 C    3.992 --    18 C    1.559    20 C    1.279    58 H    0.968
                            16 C    0.119
    20   6 C    3.990 --    21 C    1.281    19 C    1.279    15 C    1.249
    21   6 C    3.991 --    22 C    1.556    20 C    1.281    59 H    0.967
                            14 C    0.117
    22   6 C    3.991 --    21 C    1.556    13 C    1.301    60 H    0.967
    23   7 N    3.454 --    24 C    1.198    32 C    0.980    12 C    0.957
                            31 O    0.186
    24   6 C    3.956 --    31 O    1.670    23 N    1.198    25 C    1.007
    25   6 C    3.943 --    26 C    1.530    30 S    1.138    24 C    1.007
                            29 C    0.108
    26   6 C    3.944 --    25 C    1.530    28 C    1.251    27 Br   1.008
    27  35 Br   1.174 --    26 C    1.008
    28   6 C    3.985 --    29 C    1.632    26 C    1.251    61 H    0.961
    29   6 C    3.949 --    28 C    1.632    30 S    1.187    62 H    0.967
                            25 C    0.108
    30  16 S    2.632 --    29 C    1.187    25 C    1.138
    31   8 O    2.034 --    24 C    1.670    23 N    0.186
    32   6 C    3.976 --    36 N    1.000    23 N    0.980    63 H    0.922
                            33 C    0.910
    33   6 C    3.920 --    35 O    1.775    34 O    1.160    32 C    0.910
    34   8 O    2.232 --    33 C    1.160    64 H    0.853    35 O    0.180
    35   8 O    2.068 --    33 C    1.775    34 O    0.180
    36   7 N    3.466 --    37 C    1.198    32 C    1.000    11 C    0.943
                            44 O    0.187
    37   6 C    3.955 --    44 O    1.676    36 N    1.198    38 C    1.001
    38   6 C    3.940 --    39 C    1.520    43 S    1.145    37 C    1.001
                            42 C    0.106
    39   6 C    3.941 --    38 C    1.520    41 C    1.255    40 Br   1.008
    40  35 Br   1.177 --    39 C    1.008
    41   6 C    3.984 --    42 C    1.623    39 C    1.255    65 H    0.961
    42   6 C    3.951 --    41 C    1.623    43 S    1.203    66 H    0.966
                            38 C    0.106
    43  16 S    2.669 --    42 C    1.203    38 C    1.145
    44   8 O    2.039 --    37 C    1.676    36 N    0.187
    45   1 H    0.998 --     1 C    0.968
    46   1 H    0.997 --     2 C    0.967
    47   1 H    0.998 --     4 C    0.968
    48   1 H    0.998 --     5 C    0.971
    49   1 H    0.998 --     6 C    0.971
    50   1 H    0.997 --     7 C    0.967
    51   1 H    0.998 --     9 C    0.962
    52   1 H    0.991 --    11 C    0.950
    53   1 H    0.992 --    12 C    0.947
    54   1 H    0.998 --    14 C    0.966
    55   1 H    0.998 --    16 C    0.968
    56   1 H    0.998 --    17 C    0.971
    57   1 H    0.998 --    18 C    0.971
    58   1 H    0.998 --    19 C    0.968
    59   1 H    0.997 --    21 C    0.967
    60   1 H    0.999 --    22 C    0.967
    61   1 H    0.995 --    28 C    0.961
    62   1 H    0.995 --    29 C    0.967
    63   1 H    0.994 --    32 C    0.922
    64   1 H    0.878 --    34 O    0.853
    65   1 H    0.995 --    41 C    0.961
    66   1 H    0.995 --    42 C    0.966
 ---------------------------------------------------------------------------

molecular dipole:
                 x           y           z       tot (Debye)
 q only:       -1.430      -1.321       0.171
   full:       -1.909      -1.822       0.208       6.728

           -------------------------------------------------
          | TOTAL ENERGY             -120.839160392767 Eh   |
          | GRADIENT NORM               0.000339182888 Eh/Î± |
          | HOMO-LUMO GAP               2.317975300485 eV   |
           -------------------------------------------------

 * finished run on 2022/03/17 at 00:00:28.511
