   * xtb version 6.3.3 (4ae9cef) compiled by 'conda@95abc7406d43' on 2020-10-14
          program call               : xtb acid_87.xyz --opt --chrg 0 --uhf 0 --gfn 2
          number of atoms            :                    86
          number of electrons        :                   238
          charge                     :                     0
          spin                       :                   0.0

   ID    Z sym.   atoms
    1    6 C      1, 3-16, 18, 20-29, 31, 32, 36-45
    2    8 O      2, 17, 30, 33, 34, 46
    3    7 N      19, 35
    4    1 H      47-86

          :  Hamiltonian                  GFN2-xTB          :
 * total energy  :  -132.0505914 Eh     change       -0.2218172E-08 Eh
 * total energy  :  -132.0652033 Eh     change       -0.1461188E-01 Eh
 * total energy  :  -132.0695822 Eh     change       -0.4378845E-02 Eh
 * total energy  :  -132.0708512 Eh     change       -0.1269002E-02 Eh
 * total energy  :  -132.0716867 Eh     change       -0.8355780E-03 Eh
 * total energy  :  -132.0720470 Eh     change       -0.3602630E-03 Eh
 * total energy  :  -132.0722507 Eh     change       -0.2037379E-03 Eh
 * total energy  :  -132.0724368 Eh     change       -0.1860669E-03 Eh
 * total energy  :  -132.0726522 Eh     change       -0.2154270E-03 Eh
 * total energy  :  -132.0728879 Eh     change       -0.2356904E-03 Eh
 * total energy  :  -132.0826640 Eh     change       -0.1308891E-04 Eh
 * total energy  :  -132.0826767 Eh     change       -0.1271214E-04 Eh
 * total energy  :  -132.0826892 Eh     change       -0.1247158E-04 Eh
 * total energy  :  -132.0827006 Eh     change       -0.1137880E-04 Eh
 * total energy  :  -132.0827106 Eh     change       -0.9968776E-05 Eh
 * total energy  :  -132.0827192 Eh     change       -0.8590986E-05 Eh
 * total energy  :  -132.0827265 Eh     change       -0.7343561E-05 Eh
 * total energy  :  -132.0827326 Eh     change       -0.6082201E-05 Eh
 * total energy  :  -132.0827373 Eh     change       -0.4708678E-05 Eh
   *** GEOMETRY OPTIMIZATION CONVERGED AFTER 116 ITERATIONS ***

 final structure:
================
86
 xtb: 6.3.3 (4ae9cef)
C         1.56470561863172   -3.35389909063247    2.43736636955185
O         0.55372037073581   -2.52112203748637    2.83182447494382
C         0.29960335921822   -2.35867356239686    4.20548554958407
C         2.43681475148182   -3.96965398201454    3.32754725153386
C         3.45208995792142   -4.78903491347662    2.86691240152798
C         3.61066868444986   -5.00451784444859    1.51192301761259
C         2.73820468380506   -4.40120851697289    0.62419758377198
C         1.70696349936844   -3.58234763742376    1.06126858895550
C         0.83077923231998   -2.94634869091456    0.00891075285612
C        -0.65763419902773   -2.73912632484582    0.36388109897233
C        -1.56119701507528   -3.17524421791788   -0.76246728460406
C        -1.57474824530630   -2.48376036708218   -1.96184005603971
C        -2.41567198484751   -2.85910296328976   -2.99436806918164
C        -3.25841693258508   -3.93991593520983   -2.82033067054407
C        -3.25486313392912   -4.65021492327439   -1.63224613246541
C        -2.40464900291571   -4.28203097263441   -0.59541987034536
O        -2.31535880770603   -4.93834807197385    0.59444681088049
C        -3.23176676003556   -5.97149734659070    0.86253086855860
N        -0.76992547680214   -1.29561838214091    0.56288439552032
C        -1.96491985138519   -0.69615893262388    0.78994796597052
C        -1.96820326894133    0.79369413551589    0.64883411559789
C        -2.33534801908206    1.60936484092150    1.70967567372741
C        -2.38986207431657    2.98106591018456    1.54929949994573
C        -2.09419377718484    3.57220298794714    0.32617797833853
C        -2.17609309863691    5.06712635792346    0.13799737385555
C        -1.24362971451907    5.80158036132935    1.10331886635841
C        -3.62011850653809    5.54527336679887    0.30907060077654
C        -1.75011090917421    2.74705542679077   -0.73730590361642
C        -1.69024778080579    1.37449664446020   -0.58392526035630
O        -2.96873509591737   -1.32988520305316    1.04506543945874
C         0.51124347593873   -0.65029271266457    0.41491186598695
C         1.16825338263779   -0.29181748258057    1.76256803516048
O         0.30680151613966    0.31906137639173    2.57385632462662
O         2.33478299073484   -0.42212233318798    2.00795503417786
N         1.29088489810040   -1.60017193362698   -0.32090626381054
C         1.96064890651310   -1.35231292585941   -1.48214927651447
C         2.12178396845541    0.09827971381612   -1.79640757427840
C         1.55811042495021    0.60645155913565   -2.95981785596598
C         1.65178265190314    1.95713976883518   -3.24240375865681
C         2.32169869674632    2.82238829658263   -2.38683556513771
C         2.39879465714304    4.29703437634781   -2.69484344549698
C         3.84878602235555    4.72719448688280   -2.92540650963158
C         1.75831583408510    5.11675804776428   -1.57228982849184
C         2.91687710884539    2.29560010449143   -1.24526158943554
C         2.81763308503796    0.95076467992140   -0.94586340068002
O         2.36706254722546   -2.24510500815151   -2.19518631789900
H         0.08708363249510   -3.31716878275881    4.68835621682530
H        -0.58505920761430   -1.72499529844688    4.26271127608847
H         1.13752589038116   -1.87215426531334    4.71731244854763
H         2.33901445449115   -3.80787312594778    4.38927362861693
H         4.12039760640682   -5.25301368995488    3.57703453897900
H         4.40621209709720   -5.63520104195107    1.14675422673477
H         2.85973259888578   -4.55475783620666   -0.43755367320413
H         0.92405209652498   -3.54392450494041   -0.90541638616992
H        -0.94516683100536   -3.27542033811489    1.26946082848361
H        -0.91476565274487   -1.63720218450267   -2.08852362117676
H        -2.41512666825740   -2.30958346248581   -3.92319058322910
H        -3.92744965762271   -4.24000667289345   -3.61321941894436
H        -3.92261201395310   -5.49019300843152   -1.52383024137975
H        -3.01992576862710   -6.29444908765274    1.88089435983586
H        -4.26510697318270   -5.61611493382544    0.80375021614542
H        -3.09504104215993   -6.81865960002688    0.18166047351078
H        -2.57686350278181    1.15931681111662    2.66029526164369
H        -2.67632995902379    3.59708008270779    2.38864100016810
H        -1.86042407051049    5.30004772294393   -0.88550090007813
H        -1.55153017987852    5.64643516281597    2.13413087454771
H        -1.26079053811640    6.86974460453085    0.89893245844811
H        -0.22204130476149    5.44487827156122    0.99139978329718
H        -4.27597120267677    5.02335491649336   -0.38430787164929
H        -3.97162379519213    5.35601729971140    1.32020692672122
H        -3.68862651325456    6.61335788579988    0.11485932004670
H        -1.53342213983664    3.18049787355565   -1.70393535018348
H        -1.45231763509787    0.75206823933396   -1.43566252421362
H         0.42562003865980    0.30594203713198   -0.12190076556225
H         0.74599868488666    0.57774959789484    3.40052393345244
H         1.03949425872149   -0.05949782791691   -3.63416649919142
H         1.19337833753841    2.34469189173071   -4.14131029152575
H         1.83724465748395    4.48317333807310   -3.61724925966873
H         4.44085674532854    4.58819697882378   -2.02434915938388
H         4.29578294808287    4.13800701398960   -3.72293365250514
H         3.88957568381591    5.77759418788131   -3.20501593860592
H         1.72589529027207    6.16913290940742   -1.84582693949660
H         2.32702600262238    5.02106042888731   -0.65049218081856
H         0.74288590781103    4.77391402468758   -1.38503695496739
H         3.46250729907930    2.94201753182915   -0.57449622846791
H         3.27859475573946    0.55293772091485   -0.05434363688343

          :  Hamiltonian                  GFN2-xTB          :
         :: total energy            -132.082737294450 Eh    ::
         :: gradient norm              0.000658057118 Eh/a0 ::
         :: HOMO-LUMO gap              3.332547395935 eV    ::
         :: SCC energy              -134.023088704521 Eh    ::
         :: -> dispersion             -0.115730994089 Eh    ::
         :: repulsion energy           1.935571202442 Eh    ::

    * Orbital Energies and Occupations

         #    Occupation            Energy/Eh            Energy/eV
      -------------------------------------------------------------
         1        2.0000           -0.7630808             -20.7645
       ...           ...                  ...                  ...
       107        2.0000           -0.4210374             -11.4570
       108        2.0000           -0.4107571             -11.1773
       109        2.0000           -0.4103299             -11.1656
       110        2.0000           -0.4071665             -11.0796
       111        2.0000           -0.4050017             -11.0207
       112        2.0000           -0.4012897             -10.9196
       113        2.0000           -0.4005198             -10.8987
       114        2.0000           -0.3929131             -10.6917
       115        2.0000           -0.3915215             -10.6538
       116        2.0000           -0.3846609             -10.4672
       117        2.0000           -0.3819518             -10.3934
       118        2.0000           -0.3798909             -10.3374
       119        2.0000           -0.3730272             -10.1506 (HOMO)
       120                         -0.2505583              -6.8180 (LUMO)
       121                         -0.2415724              -6.5735
       122                         -0.2387063              -6.4955
       123                         -0.2284966              -6.2177
       124                         -0.2281507              -6.2083
       125                         -0.2270437              -6.1782
       126                         -0.2208024              -6.0083
       127                         -0.2140581              -5.8248
       128                         -0.2097574              -5.7078
       129                         -0.1986938              -5.4067
       130                         -0.1940396              -5.2801
       ...                                ...                  ...
       224                          0.6698142              18.2266
      -------------------------------------------------------------
                  HL-Gap            0.1224689 Eh            3.3325 eV

     #   Z          covCN         q      C6AA      Î±(0)
     1   6 C        2.864     0.143    24.880     8.176
     2   8 O        1.705    -0.279    18.622     5.826
     3   6 C        3.641     0.042    20.219     6.465
     4   6 C        2.918    -0.063    29.566     8.917
     5   6 C        2.921    -0.030    28.749     8.793
     6   6 C        2.917    -0.038    28.941     8.822
     7   6 C        2.929    -0.032    28.793     8.800
     8   6 C        2.968    -0.016    28.401     8.741
     9   6 C        3.837     0.040    19.883     6.344
    10   6 C        3.824     0.040    19.887     6.346
    11   6 C        2.974    -0.014    28.351     8.734
    12   6 C        2.925    -0.030    28.737     8.791
    13   6 C        2.917    -0.040    28.994     8.830
    14   6 C        2.921    -0.031    28.772     8.796
    15   6 C        2.918    -0.064    29.592     8.920
    16   6 C        2.868     0.145    24.843     8.170
    17   8 O        1.705    -0.268    18.445     5.799
    18   6 C        3.644     0.038    20.274     6.472
    19   7 N        2.767    -0.107    23.342     7.176
    20   6 C        2.760     0.273    22.394     7.750
    21   6 C        2.975    -0.018    28.452     8.749
    22   6 C        2.922    -0.022    28.552     8.763
    23   6 C        2.925    -0.033    28.830     8.805
    24   6 C        2.972     0.012    27.740     8.639
    25   6 C        3.855    -0.014    20.780     6.483
    26   6 C        3.755    -0.104    22.544     6.770
    27   6 C        3.756    -0.103    22.531     6.768
    28   6 C        2.925    -0.038    28.952     8.824
    29   6 C        2.922    -0.034    28.841     8.807
    30   8 O        0.859    -0.425    22.185     6.315
    31   6 C        3.770     0.090    19.119     6.231
    32   6 C        2.687     0.360    20.887     7.479
    33   8 O        1.659    -0.367    20.224     6.071
    34   8 O        0.856    -0.393    21.550     6.224
    35   7 N        2.769    -0.110    23.402     7.185
    36   6 C        2.763     0.272    22.404     7.751
    37   6 C        2.978    -0.023    28.573     8.768
    38   6 C        2.922    -0.025    28.629     8.774
    39   6 C        2.925    -0.037    28.933     8.821
    40   6 C        2.973     0.013    27.713     8.635
    41   6 C        3.855    -0.014    20.790     6.485
    42   6 C        3.756    -0.103    22.529     6.768
    43   6 C        3.756    -0.102    22.504     6.764
    44   6 C        2.925    -0.033    28.828     8.805
    45   6 C        2.920    -0.037    28.920     8.819
    46   8 O        0.859    -0.420    22.080     6.300
    47   1 H        0.924     0.045     2.384     2.415
    48   1 H        0.925     0.064     2.150     2.293
    49   1 H        0.924     0.037     2.490     2.468
    50   1 H        0.926     0.039     2.465     2.455
    51   1 H        0.926     0.039     2.466     2.456
    52   1 H        0.926     0.042     2.426     2.436
    53   1 H        0.926     0.057     2.237     2.339
    54   1 H        0.924     0.080     1.977     2.199
    55   1 H        0.924     0.090     1.879     2.144
    56   1 H        0.926     0.027     2.636     2.539
    57   1 H        0.926     0.036     2.508     2.477
    58   1 H        0.926     0.037     2.486     2.465
    59   1 H        0.926     0.039     2.456     2.451
    60   1 H        0.925     0.061     2.187     2.313
    61   1 H        0.924     0.047     2.363     2.404
    62   1 H        0.924     0.040     2.452     2.449
    63   1 H        0.926     0.044     2.398     2.422
    64   1 H        0.926     0.039     2.468     2.457
    65   1 H        0.924     0.031     2.567     2.506
    66   1 H        0.925     0.038     2.469     2.457
    67   1 H        0.925     0.039     2.468     2.457
    68   1 H        0.925     0.034     2.536     2.491
    69   1 H        0.925     0.036     2.506     2.475
    70   1 H        0.925     0.039     2.457     2.451
    71   1 H        0.925     0.039     2.468     2.457
    72   1 H        0.925     0.031     2.571     2.507
    73   1 H        0.925     0.027     2.630     2.536
    74   1 H        0.923     0.069     2.096     2.264
    75   1 H        0.804     0.340     0.613     1.229
    76   1 H        0.926     0.041     2.431     2.438
    77   1 H        0.926     0.035     2.513     2.479
    78   1 H        0.924     0.033     2.543     2.494
    79   1 H        0.925     0.039     2.462     2.454
    80   1 H        0.925     0.036     2.500     2.473
    81   1 H        0.925     0.038     2.471     2.458
    82   1 H        0.925     0.038     2.470     2.458
    83   1 H        0.925     0.036     2.504     2.475
    84   1 H        0.925     0.034     2.533     2.489
    85   1 H        0.926     0.038     2.478     2.462
    86   1 H        0.926     0.047     2.357     2.401

Wiberg/Mayer (AO) data.
largest (>0.10) Wiberg bond orders for each atom

     #   Z sym  total        # sym  WBO       # sym  WBO       # sym  WBO
 ---------------------------------------------------------------------------
     1   6 C    3.930 --     4 C    1.382     8 C    1.334     2 O    1.044
     2   8 O    2.237 --     1 C    1.044     3 C    0.982
     3   6 C    3.944 --     2 O    0.982    48 H    0.978    47 H    0.976
                            49 H    0.976
     4   6 C    3.987 --     5 C    1.437     1 C    1.382    50 H    0.965
                             7 C    0.104
     5   6 C    3.990 --     6 C    1.441     4 C    1.437    51 H    0.971
                             8 C    0.107
     6   6 C    3.990 --     5 C    1.441     7 C    1.431    52 H    0.970
     7   6 C    3.987 --     6 C    1.431     8 C    1.431    53 H    0.966
                             4 C    0.104
     8   6 C    3.982 --     7 C    1.431     1 C    1.334     9 C    0.989
                             5 C    0.107
     9   6 C    3.961 --     8 C    0.989    10 C    0.959    54 H    0.951
                            35 N    0.950
    10   6 C    3.960 --    11 C    0.990     9 C    0.959    19 N    0.953
                            55 H    0.947
    11   6 C    3.984 --    12 C    1.437    16 C    1.326    10 C    0.990
                            14 C    0.106
    12   6 C    3.991 --    11 C    1.437    13 C    1.428    56 H    0.967
                            15 C    0.102
    13   6 C    3.991 --    14 C    1.441    12 C    1.428    57 H    0.971
    14   6 C    3.990 --    13 C    1.441    15 C    1.438    58 H    0.971
                            11 C    0.106
    15   6 C    3.987 --    14 C    1.438    16 C    1.378    59 H    0.965
                            12 C    0.102
    16   6 C    3.935 --    15 C    1.378    11 C    1.326    17 O    1.064
    17   8 O    2.236 --    16 C    1.064    18 C    0.983
    18   6 C    3.945 --    17 O    0.983    60 H    0.980    61 H    0.977
                            62 H    0.976
    19   7 N    3.469 --    20 C    1.214    31 C    0.984    10 C    0.953
                            30 O    0.191
    20   6 C    3.947 --    30 O    1.685    19 N    1.214    21 C    0.963
    21   6 C    3.987 --    22 C    1.404    29 C    1.397    20 C    0.963
                            24 C    0.107
    22   6 C    3.990 --    23 C    1.451    21 C    1.404    63 H    0.969
                            28 C    0.107
    23   6 C    3.991 --    22 C    1.451    24 C    1.408    64 H    0.966
                            29 C    0.109
    24   6 C    3.987 --    28 C    1.410    23 C    1.408    25 C    0.999
                            21 C    0.107
    25   6 C    3.996 --    24 C    0.999    26 C    0.998    27 C    0.996
                            65 H    0.967
    26   6 C    3.996 --    25 C    0.998    68 H    0.987    67 H    0.986
                            66 H    0.985
    27   6 C    3.995 --    25 C    0.996    69 H    0.987    70 H    0.985
                            71 H    0.985
    28   6 C    3.991 --    29 C    1.447    24 C    1.410    72 H    0.967
                            22 C    0.107
    29   6 C    3.991 --    28 C    1.447    21 C    1.397    73 H    0.966
                            23 C    0.109
    30   8 O    2.012 --    20 C    1.685    19 N    0.191
    31   6 C    3.976 --    35 N    1.001    19 N    0.984    74 H    0.918
                            32 C    0.913
    32   6 C    3.917 --    34 O    1.770    33 O    1.145    31 C    0.913
    33   8 O    2.208 --    32 C    1.145    75 H    0.858    34 O    0.174
    34   8 O    2.053 --    32 C    1.770    33 O    0.174
    35   7 N    3.466 --    36 C    1.196    31 C    1.001     9 C    0.950
                            46 O    0.187
    36   6 C    3.943 --    46 O    1.695    35 N    1.196    37 C    0.969
    37   6 C    3.987 --    38 C    1.404    45 C    1.390    36 C    0.969
                            40 C    0.106
    38   6 C    3.990 --    39 C    1.444    37 C    1.404    76 H    0.969
                            44 C    0.108
    39   6 C    3.991 --    38 C    1.444    40 C    1.415    77 H    0.967
                            45 C    0.108
    40   6 C    3.987 --    39 C    1.415    44 C    1.403    41 C    0.999
                            37 C    0.106
    41   6 C    3.995 --    40 C    0.999    43 C    0.997    42 C    0.997
                            78 H    0.968
    42   6 C    3.995 --    41 C    0.997    80 H    0.987    81 H    0.985
                            79 H    0.985
    43   6 C    3.996 --    41 C    0.997    82 H    0.986    84 H    0.985
                            83 H    0.985
    44   6 C    3.992 --    45 C    1.457    40 C    1.403    85 H    0.966
                            38 C    0.108
    45   6 C    3.990 --    44 C    1.457    37 C    1.390    86 H    0.967
                            39 C    0.108
    46   8 O    2.020 --    36 C    1.695    35 N    0.187
    47   1 H    0.998 --     3 C    0.976
    48   1 H    0.995 --     3 C    0.978
    49   1 H    0.999 --     3 C    0.976
    50   1 H    0.998 --     4 C    0.965
    51   1 H    0.998 --     5 C    0.971
    52   1 H    0.998 --     6 C    0.970
    53   1 H    0.996 --     7 C    0.966
    54   1 H    0.993 --     9 C    0.951
    55   1 H    0.991 --    10 C    0.947
    56   1 H    0.999 --    12 C    0.967
    57   1 H    0.998 --    13 C    0.971
    58   1 H    0.998 --    14 C    0.971
    59   1 H    0.998 --    15 C    0.965
    60   1 H    0.996 --    18 C    0.980
    61   1 H    0.998 --    18 C    0.977
    62   1 H    0.998 --    18 C    0.976
    63   1 H    0.998 --    22 C    0.969
    64   1 H    0.998 --    23 C    0.966
    65   1 H    0.999 --    25 C    0.967
    66   1 H    0.999 --    26 C    0.985
    67   1 H    0.998 --    26 C    0.986
    68   1 H    0.999 --    26 C    0.987
    69   1 H    0.999 --    27 C    0.987
    70   1 H    0.998 --    27 C    0.985
    71   1 H    0.998 --    27 C    0.985
    72   1 H    0.998 --    28 C    0.967
    73   1 H    0.999 --    29 C    0.966
    74   1 H    0.994 --    31 C    0.918
    75   1 H    0.884 --    33 O    0.858
    76   1 H    0.998 --    38 C    0.969
    77   1 H    0.998 --    39 C    0.967
    78   1 H    0.999 --    41 C    0.968
    79   1 H    0.998 --    42 C    0.985
    80   1 H    0.999 --    42 C    0.987
    81   1 H    0.998 --    42 C    0.985
    82   1 H    0.998 --    43 C    0.986
    83   1 H    0.999 --    43 C    0.985
    84   1 H    0.999 --    43 C    0.985
    85   1 H    0.998 --    44 C    0.966
    86   1 H    0.997 --    45 C    0.967
 ---------------------------------------------------------------------------

molecular dipole:
                 x           y           z       tot (Debye)
 q only:       -0.324       1.024       1.188
   full:       -0.370       1.264       1.429       4.940

           -------------------------------------------------
          | TOTAL ENERGY             -132.082737294450 Eh   |
          | GRADIENT NORM               0.000658057118 Eh/Î± |
          | HOMO-LUMO GAP               3.332547395935 eV   |
           -------------------------------------------------

 * finished run on 2022/03/17 at 02:11:47.096
