   * xtb version 6.3.3 (4ae9cef) compiled by 'conda@95abc7406d43' on 2020-10-14
          program call               : xtb acid_233.xyz --opt --chrg 0 --uhf 0 --gfn 2
          number of atoms            :                    54
          number of electrons        :                   182
          charge                     :                     0
          spin                       :                   0.0

   ID    Z sym.   atoms
    1    6 C      1-14, 16-20, 24, 25, 29-33
    2    7 N      15, 28
    3   17 Cl     21, 34
    4    8 O      22, 23, 26, 27, 35, 36
    5    1 H      37-54

          :  Hamiltonian                  GFN2-xTB          :
 * total energy  :  -104.2149820 Eh     change       -0.3331294E-08 Eh
 * total energy  :  -104.2276145 Eh     change       -0.1263245E-01 Eh
 * total energy  :  -104.2321221 Eh     change       -0.4507606E-02 Eh
 * total energy  :  -104.2330997 Eh     change       -0.9776221E-03 Eh
 * total energy  :  -104.2335146 Eh     change       -0.4149501E-03 Eh
 * total energy  :  -104.2337184 Eh     change       -0.2038014E-03 Eh
 * total energy  :  -104.2339022 Eh     change       -0.1837318E-03 Eh
 * total energy  :  -104.2341153 Eh     change       -0.2130908E-03 Eh
 * total energy  :  -104.2343851 Eh     change       -0.2698411E-03 Eh
 * total energy  :  -104.2347066 Eh     change       -0.3214604E-03 Eh
 * total energy  :  -104.2366207 Eh     change       -0.5202607E-04 Eh
 * total energy  :  -104.2366509 Eh     change       -0.3020308E-04 Eh
 * total energy  :  -104.2366786 Eh     change       -0.2764580E-04 Eh
 * total energy  :  -104.2367031 Eh     change       -0.2451837E-04 Eh
 * total energy  :  -104.2367305 Eh     change       -0.2740768E-04 Eh
 * total energy  :  -104.2367615 Eh     change       -0.3100338E-04 Eh
 * total energy  :  -104.2367701 Eh     change       -0.8588797E-05 Eh
 * total energy  :  -104.2367817 Eh     change       -0.1154669E-04 Eh
 * total energy  :  -104.2367865 Eh     change       -0.4870280E-05 Eh
   *** GEOMETRY OPTIMIZATION CONVERGED AFTER 34 ITERATIONS ***

 final structure:
================
54
 xtb: 6.3.3 (4ae9cef)
C        -0.73188550488758   -1.14901015275392   -2.28603696097273
C        -1.21197668003108   -1.82578835640117   -3.39214352955331
C        -2.41347984969504   -2.51033140686903   -3.32218205863223
C        -3.12803413683934   -2.52669891690308   -2.13689173196010
C        -2.64953069784626   -1.84875844530196   -1.02992196796202
C        -1.45356570637588   -1.14649557630529   -1.09853082132413
C        -0.95888091591692   -0.37162443244999    0.09966221400196
C         0.32709387673331   -0.96785356904349    0.69934958305894
C         0.42589288231970   -0.86253924173763    2.20552837543281
C         1.21849343413101   -1.77990171913749    2.88553690227232
C         1.39105557504117   -1.67864684912092    4.25400892398549
C         0.77234132565100   -0.66134916480711    4.96010669995833
C        -0.01769580096124    0.25523745504087    4.28947433032511
C        -0.18913191941939    0.15896036774688    2.91904367245947
N         1.37801099209390   -0.16728888600558    0.07337100153922
C         2.64282578694678   -0.65216144295790   -0.03989168317105
C         3.69633467293320    0.23479042738003   -0.54537158360579
C         5.03748216996187   -0.05459010269130   -0.59943269619553
C         5.68128865351848    1.08786232805756   -1.11588068379335
C         4.68194406154656    1.99134884133542   -1.34055716113529
Cl        4.72600361989988    3.57033245403226   -1.95776845674725
O         3.48302731484574    1.49537366136371   -1.00748588136522
O         2.90068404816950   -1.80674811218446    0.25143704786167
C         0.87822695704718    1.16222652306799   -0.12413651881485
C         1.25345256056513    2.08665248606078    1.05126945507498
O         0.31049583277003    2.98482700598126    1.30246455049969
O         2.29586715858109    2.01651911237873    1.63754312993619
N        -0.54925165464980    0.98033638883866   -0.27446128157889
C        -1.23395022179109    1.78896590082546   -1.12672097371931
C        -2.66775661669400    1.41137654504946   -1.28311350256321
C        -3.68570070690943    1.32110112687881   -0.37585527834418
C        -4.83806138584608    0.93802858129894   -1.10174438850045
C        -4.42374220497231    0.82597139044287   -2.39583917971210
Cl       -5.25909253280781    0.36092840375408   -3.79589846098089
O        -3.12346653708041    1.12201184272301   -2.52184901123769
O        -0.72553066069250    2.73847511888951   -1.67835168649343
H         0.20319025192249   -0.61250944748295   -2.35052918402816
H        -0.64882245518703   -1.81307469690140   -4.31297528077226
H        -2.79317235169677   -3.02794034992854   -4.18998320045316
H        -4.06531344971085   -3.05901221856758   -2.07560215839981
H        -3.21360145195527   -1.85358678818373   -0.10810365937440
H        -1.75072736997008   -0.33927924532216    0.85395409782854
H         0.47335064569740   -2.00895146714228    0.39585821677349
H         1.71507822560850   -2.56066596239581    2.33074593082894
H         2.01268361928593   -2.39495683685113    4.76956400503120
H         0.90697178971910   -0.58023087754012    6.02835500076967
H        -0.50249049229914    1.05269074772069    4.83374877807575
H        -0.80799057431787    0.88823665136452    2.41688400498118
H         5.48624875945943   -0.97788868955293   -0.29728090615894
H         6.72618176192295    1.22933954612517   -1.29381306623043
H         1.27820592332285    1.64514986011918   -1.02930298923902
H         0.59398843742497    3.60001023303039    1.99896603616591
H        -3.62914477677475    1.51911485180847    0.67470054657544
H        -5.82442568179554    0.77201810322591   -0.72391856042460

          :  Hamiltonian                  GFN2-xTB          :
         :: total energy            -104.236786529454 Eh    ::
         :: gradient norm              0.000719003036 Eh/a0 ::
         :: HOMO-LUMO gap              3.409384114886 eV    ::
         :: SCC energy              -105.561006152489 Eh    ::
         :: -> dispersion             -0.081545449875 Eh    ::
         :: repulsion energy           1.322115129145 Eh    ::

    * Orbital Energies and Occupations

         #    Occupation            Energy/Eh            Energy/eV
      -------------------------------------------------------------
         1        2.0000           -1.0749365             -29.2505
       ...           ...                  ...                  ...
        79        2.0000           -0.4444075             -12.0929
        80        2.0000           -0.4384387             -11.9305
        81        2.0000           -0.4325298             -11.7697
        82        2.0000           -0.4266001             -11.6084
        83        2.0000           -0.4222664             -11.4905
        84        2.0000           -0.4207795             -11.4500
        85        2.0000           -0.4169044             -11.3445
        86        2.0000           -0.4149218             -11.2906
        87        2.0000           -0.4139995             -11.2655
        88        2.0000           -0.4079851             -11.1018
        89        2.0000           -0.4063800             -11.0582
        90        2.0000           -0.4032416             -10.9728
        91        2.0000           -0.3994916             -10.8707 (HOMO)
        92                         -0.2741991              -7.4613 (LUMO)
        93                         -0.2613898              -7.1128
        94                         -0.2606640              -7.0930
        95                         -0.2449166              -6.6645
        96                         -0.2390057              -6.5037
        97                         -0.2371234              -6.4525
        98                         -0.2326200              -6.3299
        99                         -0.2227102              -6.0603
       100                         -0.2071454              -5.6367
       101                         -0.1868271              -5.0838
       102                         -0.1552382              -4.2242
       ...                                ...                  ...
       172                          0.6831302              18.5889
      -------------------------------------------------------------
                  HL-Gap            0.1252926 Eh            3.4094 eV

     #   Z          covCN         q      C6AA      Î±(0)
     1   6 C        2.923    -0.029    28.716     8.788
     2   6 C        2.920    -0.023    28.575     8.766
     3   6 C        2.920    -0.025    28.630     8.774
     4   6 C        2.919    -0.026    28.651     8.778
     5   6 C        2.924    -0.037    28.930     8.821
     6   6 C        2.973    -0.005    28.147     8.702
     7   6 C        3.821     0.029    20.076     6.376
     8   6 C        3.842     0.038    19.911     6.348
     9   6 C        2.972    -0.001    28.045     8.687
    10   6 C        2.925    -0.030    28.754     8.794
    11   6 C        2.920    -0.024    28.611     8.772
    12   6 C        2.920    -0.027    28.678     8.782
    13   6 C        2.920    -0.029    28.713     8.787
    14   6 C        2.922    -0.040    28.990     8.830
    15   7 N        2.768    -0.102    23.236     7.159
    16   6 C        2.757     0.267    22.492     7.766
    17   6 C        3.109     0.084    25.983     8.351
    18   6 C        3.035    -0.041    28.985     8.831
    19   6 C        3.015    -0.071    29.758     8.948
    20   6 C        3.049     0.206    23.598     7.967
    21  17 Cl       0.921    -0.111   102.609    15.497
    22   8 O        1.741    -0.186    17.108     5.585
    23   8 O        0.860    -0.426    22.210     6.319
    24   6 C        3.775     0.090    19.114     6.229
    25   6 C        2.687     0.359    20.912     7.484
    26   8 O        1.659    -0.352    19.947     6.029
    27   8 O        0.856    -0.389    21.453     6.210
    28   7 N        2.768    -0.111    23.422     7.188
    29   6 C        2.760     0.274    22.375     7.746
    30   6 C        3.125     0.083    25.963     8.344
    31   6 C        3.032    -0.062    29.518     8.912
    32   6 C        3.022    -0.076    29.870     8.965
    33   6 C        3.055     0.198    23.742     7.991
    34  17 Cl       0.921    -0.117   102.800    15.511
    35   8 O        1.743    -0.163    16.757     5.527
    36   8 O        0.859    -0.397    21.611     6.233
    37   1 H        0.926     0.034     2.527     2.486
    38   1 H        0.926     0.043     2.410     2.428
    39   1 H        0.926     0.042     2.422     2.434
    40   1 H        0.926     0.040     2.445     2.445
    41   1 H        0.926     0.030     2.582     2.513
    42   1 H        0.924     0.060     2.198     2.319
    43   1 H        0.924     0.082     1.955     2.187
    44   1 H        0.926     0.061     2.187     2.313
    45   1 H        0.926     0.042     2.419     2.432
    46   1 H        0.926     0.038     2.473     2.459
    47   1 H        0.926     0.034     2.536     2.490
    48   1 H        0.926     0.029     2.603     2.523
    49   1 H        0.927     0.083     1.944     2.181
    50   1 H        0.927     0.073     2.050     2.239
    51   1 H        0.923     0.110     1.700     2.039
    52   1 H        0.804     0.345     0.601     1.217
    53   1 H        0.926     0.057     2.236     2.338
    54   1 H        0.927     0.069     2.096     2.264

Wiberg/Mayer (AO) data.
largest (>0.10) Wiberg bond orders for each atom

     #   Z sym  total        # sym  WBO       # sym  WBO       # sym  WBO
 ---------------------------------------------------------------------------
     1   6 C    3.992 --     2 C    1.447     6 C    1.410    37 H    0.968
                             4 C    0.111
     2   6 C    3.992 --     1 C    1.447     3 C    1.437    38 H    0.970
                             5 C    0.110
     3   6 C    3.990 --     4 C    1.440     2 C    1.437    39 H    0.971
                             6 C    0.109
     4   6 C    3.992 --     5 C    1.443     3 C    1.440    40 H    0.970
                             1 C    0.111
     5   6 C    3.990 --     4 C    1.443     6 C    1.412    41 H    0.968
                             2 C    0.110
     6   6 C    3.985 --     5 C    1.412     1 C    1.410     7 C    0.987
                             3 C    0.109
     7   6 C    3.962 --     6 C    0.987     8 C    0.965    28 N    0.955
                            42 H    0.953
     8   6 C    3.959 --     9 C    0.981     7 C    0.965    43 H    0.953
                            15 N    0.950
     9   6 C    3.983 --    14 C    1.415    10 C    1.411     8 C    0.981
                            12 C    0.109
    10   6 C    3.988 --    11 C    1.446     9 C    1.411    44 H    0.965
                            13 C    0.112
    11   6 C    3.991 --    10 C    1.446    12 C    1.438    45 H    0.970
                            14 C    0.111
    12   6 C    3.991 --    13 C    1.441    11 C    1.438    46 H    0.971
                             9 C    0.109
    13   6 C    3.992 --    12 C    1.441    14 C    1.440    47 H    0.971
                            10 C    0.112
    14   6 C    3.992 --    13 C    1.440     9 C    1.415    48 H    0.965
                            11 C    0.111
    15   7 N    3.471 --    16 C    1.197    24 C    0.995     8 C    0.950
                            23 O    0.183
    16   6 C    3.962 --    23 O    1.640    15 N    1.197    17 C    1.030
    17   6 C    3.893 --    18 C    1.527    22 O    1.074    16 C    1.030
                            20 C    0.125
    18   6 C    3.981 --    17 C    1.527    19 C    1.316    49 H    0.969
    19   6 C    3.974 --    20 C    1.523    18 C    1.316    50 H    0.970
    20   6 C    3.866 --    19 C    1.523    22 O    1.134    21 Cl   1.013
                            17 C    0.125
    21  17 Cl   1.169 --    20 C    1.013
    22   8 O    2.434 --    20 C    1.134    17 C    1.074
    23   8 O    1.990 --    16 C    1.640    15 N    0.183
    24   6 C    3.965 --    15 N    0.995    28 N    0.981    51 H    0.915
                            25 C    0.912
    25   6 C    3.921 --    27 O    1.777    26 O    1.162    24 C    0.912
    26   8 O    2.228 --    25 C    1.162    52 H    0.855    27 O    0.183
    27   8 O    2.063 --    25 C    1.777    26 O    0.183
    28   7 N    3.461 --    29 C    1.208    24 C    0.981     7 C    0.955
                            36 O    0.196
    29   6 C    3.959 --    36 O    1.703    28 N    1.208    30 C    0.963
    30   6 C    3.897 --    31 C    1.561    35 O    1.102    29 C    0.963
                            33 C    0.130
    31   6 C    3.980 --    30 C    1.561    32 C    1.294    53 H    0.972
    32   6 C    3.973 --    33 C    1.539    31 C    1.294    54 H    0.971
    33   6 C    3.862 --    32 C    1.539    35 O    1.133    34 Cl   1.007
                            30 C    0.130
    34  17 Cl   1.161 --    33 C    1.007
    35   8 O    2.454 --    33 C    1.133    30 C    1.102
    36   8 O    2.041 --    29 C    1.703    28 N    0.196
    37   1 H    0.999 --     1 C    0.968
    38   1 H    0.998 --     2 C    0.970
    39   1 H    0.998 --     3 C    0.971
    40   1 H    0.998 --     4 C    0.970
    41   1 H    0.999 --     5 C    0.968
    42   1 H    0.996 --     7 C    0.953
    43   1 H    0.992 --     8 C    0.953
    44   1 H    0.996 --    10 C    0.965
    45   1 H    0.998 --    11 C    0.970
    46   1 H    0.998 --    12 C    0.971
    47   1 H    0.999 --    13 C    0.971
    48   1 H    0.999 --    14 C    0.965
    49   1 H    0.993 --    18 C    0.969
    50   1 H    0.994 --    19 C    0.970
    51   1 H    0.988 --    24 C    0.915
    52   1 H    0.880 --    26 O    0.855
    53   1 H    0.997 --    31 C    0.972
    54   1 H    0.995 --    32 C    0.971
 ---------------------------------------------------------------------------

molecular dipole:
                 x           y           z       tot (Debye)
 q only:       -0.783      -0.759       1.320
   full:       -0.917      -0.267       1.132       3.765

           -------------------------------------------------
          | TOTAL ENERGY             -104.236786529454 Eh   |
          | GRADIENT NORM               0.000719003036 Eh/Î± |
          | HOMO-LUMO GAP               3.409384114886 eV   |
           -------------------------------------------------

 * finished run on 2022/03/16 at 22:47:05.791
