   * xtb version 6.3.3 (4ae9cef) compiled by 'conda@95abc7406d43' on 2020-10-14
          program call               : xtb sub_2.xyz --opt --chrg 0 --uhf 0 --gfn 2
          number of atoms            :                    31
          number of electrons        :                    90
          charge                     :                     0
          spin                       :                   0.0

   ID    Z sym.   atoms
    1    6 C      1-4, 6, 8-19
    2    7 N      5, 7
    3    1 H      20-31

          :  Hamiltonian                  GFN2-xTB          :
 * total energy  :   -48.3674346 Eh     change       -0.5557652E-09 Eh
 * total energy  :   -48.3761793 Eh     change       -0.8744698E-02 Eh
 * total energy  :   -48.3779783 Eh     change       -0.1798996E-02 Eh
 * total energy  :   -48.3782372 Eh     change       -0.2589276E-03 Eh
 * total energy  :   -48.3783806 Eh     change       -0.1434328E-03 Eh
 * total energy  :   -48.3784099 Eh     change       -0.2927573E-04 Eh
 * total energy  :   -48.3784426 Eh     change       -0.3269430E-04 Eh
 * total energy  :   -48.3784588 Eh     change       -0.1614322E-04 Eh
 * total energy  :   -48.3784763 Eh     change       -0.1757427E-04 Eh
 * total energy  :   -48.3784905 Eh     change       -0.1418665E-04 Eh
 * total energy  :   -48.3785003 Eh     change       -0.9827892E-05 Eh
 * total energy  :   -48.3785065 Eh     change       -0.6154926E-05 Eh
 * total energy  :   -48.3785113 Eh     change       -0.4814419E-05 Eh
   *** GEOMETRY OPTIMIZATION CONVERGED AFTER 13 ITERATIONS ***

 final structure:
================
31
 xtb: 6.3.3 (4ae9cef)
C         1.95025812095757   -0.24149429695862   -0.09836416108286
C         2.91521709081906    0.48031473226942    0.64047407591781
C         2.21230687184495    1.14999463394649    1.68616579120116
C         0.89879283354294    0.84655833879507    1.54117828647102
N         0.71114113802566    0.01839342728644    0.45381824597906
C        -0.49377526549269   -0.54952338197884    0.06239212916473
N        -0.43834924106396   -1.79356190439443   -0.34721985177644
C        -1.56986516629168   -2.43943964226842   -0.64687758201632
C        -2.81112315918865   -1.88569921802730   -0.50370611337993
C        -2.91013093384105   -0.52681161399167   -0.13235431365594
C        -1.71285080230591    0.19668746623384    0.11575844606889
C        -1.79224573690309    1.58646371907840    0.33360649221023
C        -3.00841587352580    2.21154952297797    0.39254570316202
C        -4.19490806666601    1.48117538784433    0.23322475985774
C        -4.14730903234217    0.14299681757787   -0.04036448559683
C         4.25703304819933    0.41922137351983    0.27211876317303
C         4.60458587904429   -0.35201331370461   -0.81517077719456
C         3.64050298344084   -1.05410598090134   -1.54096260638354
C         2.30447158112986   -1.00822439616391   -1.19875257195233
H         2.64400809561188    1.76592036187538    2.45008130829838
H         0.07047949891149    1.11303929285488    2.16954734136360
H        -1.43238002165852   -3.45754942908320   -0.98540721943550
H        -3.70656912444868   -2.45593156846934   -0.69576204847388
H        -0.88561734104466    2.16542295295562    0.42351819645577
H        -3.06003010359959    3.27770970301928    0.55651036536628
H        -5.14475816771206    1.99056388179709    0.30324323689601
H        -5.05331340755953   -0.42194384948812   -0.20519186246214
H         5.00181761589489    0.96637771242612    0.83087606425147
H         5.63998936073510   -0.41826324061620   -1.11627316980173
H         3.95057820645404   -1.64914517796926   -2.38727115184332
H         1.56045911903195   -1.55868231044300   -1.75138229078191

          :  Hamiltonian                  GFN2-xTB          :
         :: total energy             -48.378511313104 Eh    ::
         :: gradient norm              0.000426705991 Eh/a0 ::
         :: HOMO-LUMO gap              2.351641239739 eV    ::
         :: SCC energy               -49.270213485141 Eh    ::
         :: -> dispersion             -0.037092467988 Eh    ::
         :: repulsion energy           0.891676741476 Eh    ::

    * Orbital Energies and Occupations

         #    Occupation            Energy/Eh            Energy/eV
      -------------------------------------------------------------
         1        2.0000           -0.6770858             -18.4244
       ...           ...                  ...                  ...
        33        2.0000           -0.4562533             -12.4153
        34        2.0000           -0.4552502             -12.3880
        35        2.0000           -0.4466393             -12.1537
        36        2.0000           -0.4395845             -11.9617
        37        2.0000           -0.4320625             -11.7570
        38        2.0000           -0.4267860             -11.6134
        39        2.0000           -0.4228525             -11.5064
        40        2.0000           -0.4168133             -11.3421
        41        2.0000           -0.4126526             -11.2288
        42        2.0000           -0.3967189             -10.7953
        43        2.0000           -0.3790060             -10.3133
        44        2.0000           -0.3732148             -10.1557
        45        2.0000           -0.3635978              -9.8940 (HOMO)
        46                         -0.2771766              -7.5424 (LUMO)
        47                         -0.2478340              -6.7439
        48                         -0.2300528              -6.2601
        49                         -0.2109934              -5.7414
        50                         -0.1889523              -5.1417
        51                         -0.1647502              -4.4831
        52                         -0.1511580              -4.1132
        53                         -0.0756049              -2.0573
        54                         -0.0654275              -1.7804
        55                          0.0217942               0.5930
        56                          0.1106716               3.0115
       ...                                ...                  ...
        88                          0.7331432              19.9498
      -------------------------------------------------------------
                  HL-Gap            0.0864212 Eh            2.3516 eV

     #   Z          covCN         q      C6AA      Î±(0)
     1   6 C        3.090     0.044    26.910     8.503
     2   6 C        3.111    -0.008    28.067     8.679
     3   6 C        3.002    -0.068    29.683     8.937
     4   6 C        3.032    -0.005    28.110     8.696
     5   7 N        2.831    -0.018    21.588     6.901
     6   6 C        2.890     0.146    24.827     8.169
     7   7 N        1.847    -0.248    27.324     7.747
     8   6 C        2.897     0.053    26.802     8.488
     9   6 C        2.911    -0.055    29.363     8.886
    10   6 C        2.995     0.023    27.476     8.598
    11   6 C        2.982    -0.013    28.328     8.731
    12   6 C        2.915    -0.032    28.801     8.800
    13   6 C        2.917    -0.029    28.731     8.790
    14   6 C        2.916    -0.024    28.612     8.771
    15   6 C        2.918    -0.035    28.873     8.811
    16   6 C        2.912    -0.037    28.914     8.817
    17   6 C        2.920    -0.038    28.955     8.824
    18   6 C        2.925    -0.035    28.880     8.813
    19   6 C        2.909    -0.042    29.049     8.838
    20   1 H        0.926     0.033     2.539     2.492
    21   1 H        0.926     0.036     2.507     2.476
    22   1 H        0.925     0.039     2.463     2.454
    23   1 H        0.926     0.035     2.515     2.480
    24   1 H        0.926     0.041     2.442     2.444
    25   1 H        0.926     0.035     2.516     2.481
    26   1 H        0.926     0.036     2.506     2.476
    27   1 H        0.926     0.037     2.495     2.470
    28   1 H        0.926     0.029     2.596     2.520
    29   1 H        0.926     0.028     2.620     2.531
    30   1 H        0.926     0.030     2.589     2.516
    31   1 H        0.926     0.044     2.395     2.420

Wiberg/Mayer (AO) data.
largest (>0.10) Wiberg bond orders for each atom

     #   Z sym  total        # sym  WBO       # sym  WBO       # sym  WBO
 ---------------------------------------------------------------------------
     1   6 C    3.955 --    19 C    1.357     2 C    1.262     5 N    1.118
     2   6 C    3.981 --    16 C    1.339     1 C    1.262     3 C    1.200
     3   6 C    3.969 --     4 C    1.638     2 C    1.200    20 H    0.972
     4   6 C    3.950 --     3 C    1.638     5 N    1.148    21 H    0.966
     5   7 N    3.624 --     4 C    1.148     1 C    1.118     6 C    1.082
     6   6 C    3.968 --     7 N    1.471    11 C    1.198     5 N    1.082
                             9 C    0.100
     7   7 N    3.066 --     6 C    1.471     8 C    1.330
     8   6 C    3.981 --     9 C    1.537     7 N    1.330    22 H    0.963
     9   6 C    3.976 --     8 C    1.537    10 C    1.272    23 H    0.968
                             6 C    0.100
    10   6 C    3.988 --    15 C    1.280     9 C    1.272    11 C    1.260
    11   6 C    3.987 --    12 C    1.295    10 C    1.260     6 C    1.198
    12   6 C    3.991 --    13 C    1.545    11 C    1.295    24 H    0.964
                            15 C    0.118
    13   6 C    3.988 --    12 C    1.545    14 C    1.327    25 H    0.971
    14   6 C    3.991 --    15 C    1.554    13 C    1.327    26 H    0.971
    15   6 C    3.988 --    14 C    1.554    10 C    1.280    27 H    0.968
                            12 C    0.118
    16   6 C    3.990 --    17 C    1.494     2 C    1.339    28 H    0.970
                            19 C    0.112
    17   6 C    3.988 --    16 C    1.494    18 C    1.382    29 H    0.972
    18   6 C    3.989 --    19 C    1.481    17 C    1.382    30 H    0.972
    19   6 C    3.989 --    18 C    1.481     1 C    1.357    31 H    0.965
                            16 C    0.112
    20   1 H    0.998 --     3 C    0.972
    21   1 H    0.998 --     4 C    0.966
    22   1 H    0.997 --     8 C    0.963
    23   1 H    0.998 --     9 C    0.968
    24   1 H    0.998 --    12 C    0.964
    25   1 H    0.998 --    13 C    0.971
    26   1 H    0.998 --    14 C    0.971
    27   1 H    0.998 --    15 C    0.968
    28   1 H    0.999 --    16 C    0.970
    29   1 H    0.999 --    17 C    0.972
    30   1 H    0.999 --    18 C    0.972
    31   1 H    0.998 --    19 C    0.965
 ---------------------------------------------------------------------------

molecular dipole:
                 x           y           z       tot (Debye)
 q only:       -0.619       0.345       0.048
   full:       -1.089       0.502       0.082       3.056

           -------------------------------------------------
          | TOTAL ENERGY              -48.378511313104 Eh   |
          | GRADIENT NORM               0.000426705991 Eh/Î± |
          | HOMO-LUMO GAP               2.351641239739 eV   |
           -------------------------------------------------

 * finished run on 2022/03/17 at 02:20:16.179
