   * xtb version 6.3.3 (4ae9cef) compiled by 'conda@95abc7406d43' on 2020-10-14
          program call               : xtb acid_232.xyz --opt --chrg 0 --uhf 0 --gfn 2
          number of atoms            :                    54
          number of electrons        :                   182
          charge                     :                     0
          spin                       :                   0.0

   ID    Z sym.   atoms
    1    6 C      1-14, 16-20, 24, 25, 29-33
    2    7 N      15, 28
    3   35 Br     21, 34
    4   16 S      22, 35
    5    8 O      23, 26, 27, 36
    6    1 H      37-54

          :  Hamiltonian                  GFN2-xTB          :
 * total energy  :  -101.6101144 Eh     change       -0.8732854E-09 Eh
 * total energy  :  -101.6237920 Eh     change       -0.1367767E-01 Eh
 * total energy  :  -101.6281467 Eh     change       -0.4354622E-02 Eh
 * total energy  :  -101.6291826 Eh     change       -0.1035996E-02 Eh
 * total energy  :  -101.6295784 Eh     change       -0.3957319E-03 Eh
 * total energy  :  -101.6298140 Eh     change       -0.2355911E-03 Eh
 * total energy  :  -101.6300696 Eh     change       -0.2555983E-03 Eh
 * total energy  :  -101.6303579 Eh     change       -0.2883562E-03 Eh
 * total energy  :  -101.6306675 Eh     change       -0.3095260E-03 Eh
 * total energy  :  -101.6309468 Eh     change       -0.2793166E-03 Eh
 * total energy  :  -101.6335345 Eh     change       -0.1735331E-04 Eh
 * total energy  :  -101.6335548 Eh     change       -0.2032276E-04 Eh
 * total energy  :  -101.6335750 Eh     change       -0.2022069E-04 Eh
 * total energy  :  -101.6335900 Eh     change       -0.1496604E-04 Eh
 * total energy  :  -101.6335922 Eh     change       -0.2190914E-05 Eh
 * total energy  :  -101.6335999 Eh     change       -0.7715264E-05 Eh
 * total energy  :  -101.6336117 Eh     change       -0.1184296E-04 Eh
 * total energy  :  -101.6336182 Eh     change       -0.6472973E-05 Eh
 * total energy  :  -101.6336218 Eh     change       -0.3551012E-05 Eh
   *** GEOMETRY OPTIMIZATION CONVERGED AFTER 45 ITERATIONS ***

 final structure:
================
54
 xtb: 6.3.3 (4ae9cef)
C        -2.67724090023286    2.04802364200902   -1.82760583812713
C        -4.03501797858169    2.29334298135762   -1.73669362526221
C        -4.66361071959551    2.27240494427567   -0.50266481850535
C        -3.92631202794063    2.00742354467673    0.63782991971210
C        -2.56608773440309    1.75993376878949    0.55017162753983
C        -1.93012581232764    1.77964484360015   -0.68523282455554
C        -0.46641945717581    1.43829745645696   -0.85498544515307
C         0.41094645743954    1.64703279632104    0.38544925045459
C         1.81955342019103    2.07569932279179    0.05155385053271
C         2.33943460392403    3.24066613475223    0.59713896850647
C         3.63475014037273    3.63195204068462    0.30686118601045
C         4.42277303605701    2.86056858145162   -0.52941277347289
C         3.91136005754743    1.69486803390262   -1.07433698283486
C         2.61723390652206    1.30306086569672   -0.78413670392587
N         0.42874324375404    0.32412875049978    1.01794222351275
C         0.68920452443168    0.22922843830380    2.35330445560883
C         0.79581244161578   -1.13241677170768    2.91111766805656
C         1.44304136662172   -2.23646648257141    2.42752114886405
C         1.41772559704797   -3.32785877328239    3.31497516134466
C         0.75091501086508   -3.02143365227639    4.46359982049566
Br        0.45292399507230   -4.17390252840896    5.90938150316135
S         0.16173613682226   -1.39985502231259    4.49356587415171
O         0.87148318217989    1.21731944773982    3.03405455187450
C        -0.19315753998588   -0.66582843455852    0.17404879649996
C        -1.56591260113560   -1.11160502185856    0.73753145552943
O        -2.35157938520511   -1.57129204561415   -0.22776293451926
O        -1.85535638601618   -1.09111369762205    1.89860734741056
N        -0.32295981155715    0.00044608876978   -1.09011283442413
C        -0.41465785575441   -0.54498096803084   -2.32747449230095
C        -0.22471402057532   -2.01780662282160   -2.39123611833666
C         0.88620303939152   -2.75601361139175   -2.09823229155904
C         0.72583728543489   -4.13184218819612   -2.35970383439224
C        -0.51244113111850   -4.40613787965432   -2.85392341445335
Br       -1.18186492192828   -6.09558402927017   -3.31644554665898
S        -1.49851710498675   -2.99445959842228   -3.02563356901419
O        -0.61973070552353    0.12289915729173   -3.31740455672234
H        -2.18835186866252    2.04955477109524   -2.78989892388535
H        -4.60264826399150    2.50111489985237   -2.63120682096494
H        -5.72382089068326    2.46364498325936   -0.42963817522931
H        -4.40719345255863    1.99012739707657    1.60450734099509
H        -2.01745253263796    1.55821452787303    1.45790624819986
H        -0.06669916315879    1.96121641601548   -1.72873570249567
H        -0.02270608121909    2.37364086324986    1.07884589244430
H         1.72967361521264    3.83691202432451    1.25886651401940
H         4.02997380448088    4.53932510999832    0.73808098507295
H         5.43397713703247    3.16428175963965   -0.75508071838680
H         4.52223478883048    1.08891775336552   -1.72718405035635
H         2.22382721340255    0.39426941635896   -1.21644293820306
H         1.96359263619408   -2.26303168781433    1.48617821299883
H         1.86801965224791   -4.28406770419972    3.12007667804903
H         0.40668482793756   -1.58028336285028    0.08091828699997
H        -3.21338652643364   -1.85420878182769    0.12171121197146
H         1.80681338584828   -2.33234628617445   -1.73586782936578
H         1.48349236691365   -4.87563061061742   -2.19469241690563

          :  Hamiltonian                  GFN2-xTB          :
         :: total energy            -101.633621767285 Eh    ::
         :: gradient norm              0.000498924391 Eh/a0 ::
         :: HOMO-LUMO gap              3.048959380819 eV    ::
         :: SCC energy              -102.967113180728 Eh    ::
         :: -> dispersion             -0.084822578267 Eh    ::
         :: repulsion energy           1.331176129536 Eh    ::

    * Orbital Energies and Occupations

         #    Occupation            Energy/Eh            Energy/eV
      -------------------------------------------------------------
         1        2.0000           -0.8593612             -23.3844
       ...           ...                  ...                  ...
        79        2.0000           -0.4340233             -11.8104
        80        2.0000           -0.4304942             -11.7143
        81        2.0000           -0.4286715             -11.6647
        82        2.0000           -0.4264351             -11.6039
        83        2.0000           -0.4238333             -11.5331
        84        2.0000           -0.4221408             -11.4870
        85        2.0000           -0.4206701             -11.4470
        86        2.0000           -0.4198013             -11.4234
        87        2.0000           -0.4175179             -11.3612
        88        2.0000           -0.4160311             -11.3208
        89        2.0000           -0.4137293             -11.2581
        90        2.0000           -0.4111684             -11.1885
        91        2.0000           -0.4032526             -10.9731 (HOMO)
        92                         -0.2912054              -7.9241 (LUMO)
        93                         -0.2882216              -7.8429
        94                         -0.2831165              -7.7040
        95                         -0.2528778              -6.8812
        96                         -0.2460608              -6.6957
        97                         -0.2422164              -6.5910
        98                         -0.2411074              -6.5609
        99                         -0.2391025              -6.5063
       100                         -0.2379323              -6.4745
       101                         -0.2370282              -6.4499
       102                         -0.2318826              -6.3098
       ...                                ...                  ...
       182                          0.6522622              17.7490
      -------------------------------------------------------------
                  HL-Gap            0.1120472 Eh            3.0490 eV

     #   Z          covCN         q      C6AA      Î±(0)
     1   6 C        2.925    -0.033    28.816     8.803
     2   6 C        2.919    -0.026    28.661     8.779
     3   6 C        2.919    -0.029    28.722     8.788
     4   6 C        2.920    -0.029    28.723     8.789
     5   6 C        2.921    -0.039    28.963     8.825
     6   6 C        2.972    -0.004    28.111     8.697
     7   6 C        3.835     0.037    19.933     6.352
     8   6 C        3.831     0.038    19.917     6.350
     9   6 C        2.973     0.002    27.967     8.675
    10   6 C        2.924    -0.029    28.717     8.788
    11   6 C        2.920    -0.025    28.621     8.773
    12   6 C        2.920    -0.027    28.685     8.783
    13   6 C        2.919    -0.028    28.693     8.784
    14   6 C        2.924    -0.033    28.818     8.803
    15   7 N        2.768    -0.122    23.657     7.224
    16   6 C        2.799     0.276    22.334     7.742
    17   6 C        2.993    -0.020    28.484     8.755
    18   6 C        3.116    -0.052    29.110     8.838
    19   6 C        3.137    -0.055    29.121     8.832
    20   6 C        2.944     0.076    26.295     8.410
    21  35 Br       1.139    -0.116   188.231    22.121
    22  16 S        2.478     0.095   137.250    19.718
    23   8 O        0.860    -0.414    21.960     6.283
    24   6 C        3.764     0.091    19.121     6.233
    25   6 C        2.686     0.351    21.038     7.506
    26   8 O        1.659    -0.361    20.113     6.054
    27   8 O        0.856    -0.380    21.282     6.185
    28   7 N        2.775    -0.107    23.334     7.174
    29   6 C        2.786     0.275    22.352     7.744
    30   6 C        2.993    -0.021    28.526     8.761
    31   6 C        3.116    -0.050    29.057     8.829
    32   6 C        3.134    -0.054    29.117     8.833
    33   6 C        2.942     0.078    26.267     8.406
    34  35 Br       1.134    -0.117   188.274    22.124
    35  16 S        2.466     0.064   138.476    19.806
    36   8 O        0.859    -0.409    21.864     6.269
    37   1 H        0.926     0.057     2.232     2.336
    38   1 H        0.926     0.042     2.428     2.437
    39   1 H        0.926     0.038     2.469     2.457
    40   1 H        0.926     0.040     2.448     2.447
    41   1 H        0.926     0.037     2.483     2.464
    42   1 H        0.924     0.079     1.987     2.204
    43   1 H        0.924     0.078     1.995     2.209
    44   1 H        0.926     0.046     2.368     2.406
    45   1 H        0.926     0.043     2.415     2.430
    46   1 H        0.926     0.040     2.454     2.450
    47   1 H        0.926     0.036     2.496     2.471
    48   1 H        0.926     0.023     2.690     2.565
    49   1 H        0.926     0.039     2.459     2.452
    50   1 H        0.926     0.062     2.173     2.305
    51   1 H        0.924     0.072     2.064     2.246
    52   1 H        0.804     0.350     0.588     1.205
    53   1 H        0.926     0.047     2.362     2.403
    54   1 H        0.926     0.065     2.137     2.286

Wiberg/Mayer (AO) data.
largest (>0.10) Wiberg bond orders for each atom

     #   Z sym  total        # sym  WBO       # sym  WBO       # sym  WBO
 ---------------------------------------------------------------------------
     1   6 C    3.988 --     2 C    1.448     6 C    1.408    37 H    0.966
                             4 C    0.112
     2   6 C    3.991 --     1 C    1.448     3 C    1.435    38 H    0.970
                             5 C    0.110
     3   6 C    3.991 --     4 C    1.443     2 C    1.435    39 H    0.971
                             6 C    0.109
     4   6 C    3.992 --     3 C    1.443     5 C    1.438    40 H    0.971
                             1 C    0.112
     5   6 C    3.991 --     4 C    1.438     6 C    1.418    41 H    0.965
                             2 C    0.110
     6   6 C    3.984 --     5 C    1.418     1 C    1.408     7 C    0.982
                             3 C    0.109
     7   6 C    3.955 --     6 C    0.982     8 C    0.970    42 H    0.954
                            28 N    0.942
     8   6 C    3.957 --     9 C    0.985     7 C    0.970    43 H    0.949
                            15 N    0.947
     9   6 C    3.985 --    10 C    1.417    14 C    1.411     8 C    0.985
                            12 C    0.110
    10   6 C    3.989 --    11 C    1.441     9 C    1.417    44 H    0.967
                            13 C    0.111
    11   6 C    3.992 --    12 C    1.442    10 C    1.441    45 H    0.970
                            14 C    0.112
    12   6 C    3.990 --    11 C    1.442    13 C    1.436    46 H    0.971
                             9 C    0.110
    13   6 C    3.992 --    14 C    1.448    12 C    1.436    47 H    0.971
                            10 C    0.111
    14   6 C    3.992 --    13 C    1.448     9 C    1.411    48 H    0.968
                            11 C    0.112
    15   7 N    3.443 --    16 C    1.185    24 C    0.992     8 C    0.947
                            23 O    0.183
    16   6 C    3.952 --    23 O    1.679    15 N    1.185    17 C    1.007
    17   6 C    3.950 --    18 C    1.545    22 S    1.170    16 C    1.007
    18   6 C    3.985 --    17 C    1.545    19 C    1.296    49 H    0.960
    19   6 C    3.982 --    20 C    1.546    18 C    1.296    50 H    0.963
    20   6 C    3.910 --    19 C    1.546    22 S    1.200    21 Br   1.020
    21  35 Br   1.167 --    20 C    1.020
    22  16 S    2.680 --    20 C    1.200    17 C    1.170
    23   8 O    2.021 --    16 C    1.679    15 N    0.183
    24   6 C    3.975 --    28 N    0.997    15 N    0.992    51 H    0.923
                            25 C    0.903
    25   6 C    3.919 --    27 O    1.782    26 O    1.161    24 C    0.903
    26   8 O    2.223 --    25 C    1.161    52 H    0.851    27 O    0.182
    27   8 O    2.073 --    25 C    1.782    26 O    0.182
    28   7 N    3.479 --    29 C    1.210    24 C    0.997     7 C    0.942
                            36 O    0.194
    29   6 C    3.953 --    36 O    1.685    28 N    1.210    30 C    0.977
    30   6 C    3.947 --    31 C    1.568    35 S    1.168    29 C    0.977
                            33 C    0.102
    31   6 C    3.984 --    30 C    1.568    32 C    1.281    53 H    0.961
    32   6 C    3.981 --    33 C    1.561    31 C    1.281    54 H    0.962
    33   6 C    3.908 --    32 C    1.561    35 S    1.182    34 Br   1.022
                            30 C    0.102
    34  35 Br   1.172 --    33 C    1.022
    35  16 S    2.660 --    33 C    1.182    30 C    1.168
    36   8 O    2.028 --    29 C    1.685    28 N    0.194
    37   1 H    0.997 --     1 C    0.966
    38   1 H    0.998 --     2 C    0.970
    39   1 H    0.998 --     3 C    0.971
    40   1 H    0.998 --     4 C    0.971
    41   1 H    0.999 --     5 C    0.965
    42   1 H    0.993 --     7 C    0.954
    43   1 H    0.993 --     8 C    0.949
    44   1 H    0.998 --    10 C    0.967
    45   1 H    0.998 --    11 C    0.970
    46   1 H    0.998 --    12 C    0.971
    47   1 H    0.998 --    13 C    0.971
    48   1 H    0.999 --    14 C    0.968
    49   1 H    0.998 --    18 C    0.960
    50   1 H    0.995 --    19 C    0.963
    51   1 H    0.995 --    24 C    0.923
    52   1 H    0.877 --    26 O    0.851
    53   1 H    0.998 --    31 C    0.961
    54   1 H    0.995 --    32 C    0.962
 ---------------------------------------------------------------------------

molecular dipole:
                 x           y           z       tot (Debye)
 q only:       -0.075       0.215      -0.658
   full:        0.209       0.620      -1.105       3.265

           -------------------------------------------------
          | TOTAL ENERGY             -101.633621767285 Eh   |
          | GRADIENT NORM               0.000498924391 Eh/Î± |
          | HOMO-LUMO GAP               3.048959380819 eV   |
           -------------------------------------------------

 * finished run on 2022/03/16 at 22:46:52.566
