   * xtb version 6.3.3 (4ae9cef) compiled by 'conda@95abc7406d43' on 2020-10-14
          program call               : xtb acid_265.xyz --opt --chrg 0 --uhf 0 --gfn 2
          number of atoms            :                    66
          number of electrons        :                   206
          charge                     :                     0
          spin                       :                   0.0

   ID    Z sym.   atoms
    1    6 C      1-22, 24-26, 28, 29, 31, 32, 36-38, 40, 41
    2    7 N      23, 35
    3   16 S      27, 39
    4    8 O      30, 33, 34, 42
    5    1 H      43-66

          :  Hamiltonian                  GFN2-xTB          :
 * total energy  :  -113.6427177 Eh     change       -0.3559464E-08 Eh
 * total energy  :  -113.6580873 Eh     change       -0.1536967E-01 Eh
 * total energy  :  -113.6624234 Eh     change       -0.4336068E-02 Eh
 * total energy  :  -113.6636200 Eh     change       -0.1196626E-02 Eh
 * total energy  :  -113.6641185 Eh     change       -0.4984619E-03 Eh
 * total energy  :  -113.6643176 Eh     change       -0.1990860E-03 Eh
 * total energy  :  -113.6644887 Eh     change       -0.1711609E-03 Eh
 * total energy  :  -113.6646813 Eh     change       -0.1925808E-03 Eh
 * total energy  :  -113.6648408 Eh     change       -0.1594383E-03 Eh
 * total energy  :  -113.6650264 Eh     change       -0.1856899E-03 Eh
 * total energy  :  -113.6663117 Eh     change       -0.2212933E-04 Eh
 * total energy  :  -113.6663385 Eh     change       -0.2683475E-04 Eh
 * total energy  :  -113.6663720 Eh     change       -0.3348351E-04 Eh
 * total energy  :  -113.6664091 Eh     change       -0.3709861E-04 Eh
 * total energy  :  -113.6664417 Eh     change       -0.3254403E-04 Eh
 * total energy  :  -113.6664673 Eh     change       -0.2558150E-04 Eh
 * total energy  :  -113.6664854 Eh     change       -0.1812074E-04 Eh
 * total energy  :  -113.6664981 Eh     change       -0.1275540E-04 Eh
 * total energy  :  -113.6665030 Eh     change       -0.4818663E-05 Eh
   *** GEOMETRY OPTIMIZATION CONVERGED AFTER 44 ITERATIONS ***

 final structure:
================
66
 xtb: 6.3.3 (4ae9cef)
C         3.30398689792821   -2.65836158055320    2.72500007589697
C         2.97530957556562   -1.63963487887596    3.57218621211012
C         2.17535778604295   -0.58649857795099    3.10966317420460
C         1.72547277267363   -0.56870616099908    1.81910264692998
C         2.05162311486147   -1.59709548705736    0.90815792171134
C         2.85778326445195   -2.66783694297710    1.38669046622355
C         3.19991628705600   -3.72812517839669    0.52346691151038
C         2.76720030095773   -3.73396315041007   -0.77047980329138
C         1.98528723987678   -2.67690822818853   -1.25015312759342
C         1.62776171019562   -1.62182784450041   -0.44838722115889
C         0.76015743877870   -0.54961818382692   -1.06260448394577
C        -0.68403737560002   -0.54648172701135   -0.49182942734705
C        -1.74735208000397   -0.92259679405910   -1.50219280251299
C        -1.67268552723035   -0.42781661206577   -2.78317741340766
C        -2.61821713161345   -0.75967063489910   -3.76113099917446
C        -3.64173353123962   -1.60835251206877   -3.45664912786567
C        -3.77043997736261   -2.13522137148665   -2.15583045023562
C        -2.82817356780987   -1.78123162618749   -1.14771047598679
C        -3.03053228205851   -2.30540919398017    0.14902085387499
C        -4.07633449823047   -3.14359352056850    0.42048705940515
C        -4.98408412505686   -3.51000397700244   -0.58236592077672
C        -4.83432432208593   -3.00759736633862   -1.84259172602421
N        -0.87921813491703    0.82064757580662    0.02957346190171
C        -1.32832353687438    0.97232213203800    1.32697886382962
C        -1.14070403119922    2.31741511106791    1.92323740775982
C        -0.66557038347870    2.44032433828662    3.19831270887499
S        -0.49570247698935    4.07233684165967    3.67856266913762
C        -1.10188739921819    4.61265240368765    2.16416682722578
C        -1.39945922248774    3.58558894702514    1.33065308412125
O        -1.84328096826004    0.05929096844090    1.93221450873614
C         0.12552648524127    1.67876300596129   -0.55106603156911
C        -0.38940560980406    2.38949270939299   -1.83331911812501
O        -1.71567479915261    2.48922666573216   -1.90577702197596
O         0.35144981254711    2.85720375869372   -2.64421926310206
N         1.23800729264756    0.80605878503701   -0.81791561081015
C         2.53648321427257    1.18322742270398   -0.98344240615745
C         2.80226908539501    2.58313569463555   -0.54415841195059
C         3.17692583326859    3.59251477831534   -1.37321085823411
S         3.38884281274132    5.07377207022921   -0.53355817103968
C         2.99046317410419    4.32456600779699    0.96157496492175
C         2.70073004790514    3.00849461377984    0.81042459432300
O         3.38235552078514    0.42844788546295   -1.40318840157578
H         3.91670842920876   -3.48029149348598    3.06677163735664
H         3.32315707483499   -1.63760576069680    4.59448922973918
H         1.91492694658631    0.21666295055954    3.78474925987318
H         1.10887155957539    0.25493541557867    1.50192296134493
H         3.81189631254732   -4.53171228964711    0.90674108498731
H         3.02771979745604   -4.54295101959529   -1.43612374071314
H         1.66419938604843   -2.69462399724844   -2.28161600593962
H         0.74239967539097   -0.73324864747857   -2.14348814070347
H        -0.73273871154813   -1.22464192207060    0.36353463340892
H        -0.86696724970420    0.23071217078763   -3.07422289682414
H        -2.51719249017988   -0.34367452074781   -4.75172335879079
H        -4.36948576438524   -1.88781125009769   -4.20441163709487
H        -2.38152136787015   -2.02391002223192    0.96085730701639
H        -4.20888781577945   -3.52526374118549    1.42181830705829
H        -5.80015038387312   -4.17765286705166   -0.34907454481722
H        -5.53231294096393   -3.26607010835290   -2.62603732014227
H        -0.39948028867654    1.64418326707016    3.86473234498680
H        -1.20387776576088    5.66279578663244    1.97777301811110
H        -1.81415060379750    3.72881698485841    0.34908214585142
H         0.41983615644615    2.48725609807507    0.13338896026316
H        -2.14787283608772    1.92252242682342   -1.23994064245456
H         3.31247111526275    3.55193464214859   -2.43440674247010
H         3.00093909702373    4.90096767065764    1.86515562117362
H         2.45574698162737    2.34974206034833    1.62550837992929

          :  Hamiltonian                  GFN2-xTB          :
         :: total energy            -113.666502950478 Eh    ::
         :: gradient norm              0.000280068767 Eh/a0 ::
         :: HOMO-LUMO gap              2.715793182828 eV    ::
         :: SCC energy              -115.401686643417 Eh    ::
         :: -> dispersion             -0.105200443040 Eh    ::
         :: repulsion energy           1.730968145501 Eh    ::

    * Orbital Energies and Occupations

         #    Occupation            Energy/Eh            Energy/eV
      -------------------------------------------------------------
         1        2.0000           -0.7749322             -21.0870
       ...           ...                  ...                  ...
        91        2.0000           -0.4266399             -11.6095
        92        2.0000           -0.4253850             -11.5753
        93        2.0000           -0.4230872             -11.5128
        94        2.0000           -0.4219934             -11.4830
        95        2.0000           -0.4137908             -11.2598
        96        2.0000           -0.4117378             -11.2040
        97        2.0000           -0.4086036             -11.1187
        98        2.0000           -0.4070567             -11.0766
        99        2.0000           -0.4061963             -11.0532
       100        2.0000           -0.4023722             -10.9491
       101        2.0000           -0.3982798             -10.8377
       102        2.0000           -0.3892241             -10.5913
       103        2.0000           -0.3824558             -10.4072 (HOMO)
       104                         -0.2826522              -7.6914 (LUMO)
       105                         -0.2736448              -7.4463
       106                         -0.2670351              -7.2664
       107                         -0.2651861              -7.2161
       108                         -0.2558078              -6.9609
       109                         -0.2525364              -6.8719
       110                         -0.2397244              -6.5232
       111                         -0.2341732              -6.3722
       112                         -0.2276932              -6.1958
       113                         -0.2239041              -6.0927
       114                         -0.2059552              -5.6043
       ...                                ...                  ...
       202                          0.6974279              18.9780
      -------------------------------------------------------------
                  HL-Gap            0.0998036 Eh            2.7158 eV

     #   Z          covCN         q      C6AA      α(0)
     1   6 C        2.922    -0.032    28.787     8.799
     2   6 C        2.915    -0.029    28.719     8.788
     3   6 C        2.917    -0.028    28.707     8.786
     4   6 C        2.918    -0.032    28.807     8.801
     5   6 C        2.983     0.014    27.685     8.631
     6   6 C        2.989     0.017    27.615     8.620
     7   6 C        2.921    -0.033    28.819     8.803
     8   6 C        2.914    -0.026    28.654     8.778
     9   6 C        2.925    -0.029    28.714     8.788
    10   6 C        2.965     0.003    27.945     8.671
    11   6 C        3.823     0.044    19.818     6.335
    12   6 C        3.827     0.036    19.947     6.355
    13   6 C        2.963    -0.016    28.400     8.741
    14   6 C        2.922    -0.039    28.969     8.826
    15   6 C        2.913    -0.031    28.765     8.795
    16   6 C        2.921    -0.034    28.839     8.807
    17   6 C        2.988     0.014    27.686     8.631
    18   6 C        2.982     0.009    27.821     8.652
    19   6 C        2.916    -0.038    28.947     8.823
    20   6 C        2.917    -0.026    28.657     8.778
    21   6 C        2.914    -0.028    28.690     8.783
    22   6 C        2.922    -0.034    28.858     8.809
    23   7 N        2.753    -0.157    24.402     7.337
    24   6 C        2.763     0.274    22.372     7.746
    25   6 C        3.168    -0.039    28.591     8.737
    26   6 C        2.946    -0.015    28.388     8.739
    27  16 S        2.301     0.033   139.710    19.894
    28   6 C        2.941    -0.023    28.589     8.769
    29   6 C        3.113    -0.054    29.181     8.849
    30   8 O        0.859    -0.409    21.869     6.270
    31   6 C        3.770     0.079    19.297     6.260
    32   6 C        2.685     0.345    21.137     7.524
    33   8 O        1.658    -0.356    20.008     6.038
    34   8 O        0.856    -0.352    20.741     6.106
    35   7 N        2.762    -0.123    23.667     7.225
    36   6 C        2.756     0.281    22.238     7.722
    37   6 C        3.177    -0.034    28.421     8.705
    38   6 C        2.941    -0.012    28.317     8.728
    39  16 S        2.313     0.012   140.585    19.956
    40   6 C        2.939    -0.027    28.673     8.782
    41   6 C        3.119    -0.051    29.088     8.833
    42   8 O        0.859    -0.409    21.852     6.267
    43   1 H        0.926     0.036     2.499     2.472
    44   1 H        0.926     0.033     2.538     2.491
    45   1 H        0.926     0.024     2.678     2.559
    46   1 H        0.926     0.016     2.789     2.611
    47   1 H        0.926     0.039     2.467     2.456
    48   1 H        0.926     0.039     2.459     2.452
    49   1 H        0.926     0.035     2.512     2.479
    50   1 H        0.924     0.055     2.263     2.352
    51   1 H        0.924     0.076     2.020     2.222
    52   1 H        0.926     0.032     2.562     2.503
    53   1 H        0.926     0.041     2.440     2.443
    54   1 H        0.926     0.039     2.462     2.454
    55   1 H        0.926     0.057     2.231     2.336
    56   1 H        0.926     0.038     2.481     2.463
    57   1 H        0.926     0.035     2.521     2.483
    58   1 H        0.926     0.035     2.516     2.480
    59   1 H        0.926     0.065     2.142     2.288
    60   1 H        0.926     0.058     2.223     2.332
    61   1 H        0.926     0.042     2.421     2.433
    62   1 H        0.923     0.070     2.090     2.261
    63   1 H        0.804     0.337     0.621     1.237
    64   1 H        0.927     0.067     2.122     2.278
    65   1 H        0.926     0.051     2.311     2.377
    66   1 H        0.926     0.035     2.523     2.484

Wiberg/Mayer (AO) data.
largest (>0.10) Wiberg bond orders for each atom

     #   Z sym  total        # sym  WBO       # sym  WBO       # sym  WBO
 ---------------------------------------------------------------------------
     1   6 C    3.991 --     2 C    1.556     6 C    1.281    43 H    0.968
                             4 C    0.118
     2   6 C    3.992 --     1 C    1.556     3 C    1.323    44 H    0.971
     3   6 C    3.992 --     4 C    1.553     2 C    1.323    45 H    0.971
     4   6 C    3.993 --     3 C    1.553     5 C    1.285    46 H    0.962
                             1 C    0.118
     5   6 C    3.989 --     4 C    1.285    10 C    1.254     6 C    1.251
     6   6 C    3.990 --     1 C    1.281     7 C    1.279     5 C    1.251
     7   6 C    3.990 --     8 C    1.553     6 C    1.279    47 H    0.968
                            10 C    0.115
     8   6 C    3.991 --     7 C    1.553     9 C    1.327    48 H    0.970
     9   6 C    3.989 --    10 C    1.522     8 C    1.327    49 H    0.967
    10   6 C    3.984 --     9 C    1.522     5 C    1.254    11 C    0.992
                             7 C    0.115
    11   6 C    3.961 --    10 C    0.992    35 N    0.955    12 C    0.954
                            50 H    0.948
    12   6 C    3.953 --    13 C    0.990    11 C    0.954    51 H    0.947
                            23 N    0.941
    13   6 C    3.982 --    14 C    1.524    18 C    1.252    12 C    0.990
                            16 C    0.115
    14   6 C    3.991 --    13 C    1.524    15 C    1.326    52 H    0.961
    15   6 C    3.991 --    16 C    1.552    14 C    1.326    53 H    0.970
    16   6 C    3.990 --    15 C    1.552    17 C    1.281    54 H    0.967
                            13 C    0.115
    17   6 C    3.990 --    16 C    1.281    22 C    1.279    18 C    1.251
    18   6 C    3.988 --    19 C    1.285    13 C    1.252    17 C    1.251
    19   6 C    3.989 --    20 C    1.553    18 C    1.285    55 H    0.956
                            22 C    0.119
    20   6 C    3.991 --    19 C    1.553    21 C    1.323    56 H    0.971
    21   6 C    3.992 --    22 C    1.557    20 C    1.323    57 H    0.971
    22   6 C    3.991 --    21 C    1.557    17 C    1.279    58 H    0.968
                            19 C    0.119
    23   7 N    3.417 --    24 C    1.152    31 C    0.989    12 C    0.941
                            30 O    0.171
    24   6 C    3.945 --    30 O    1.709    23 N    1.152    25 C    0.989
    25   6 C    3.980 --    26 C    1.561    29 C    1.230    24 C    0.989
    26   6 C    3.953 --    25 C    1.561    27 S    1.230    59 H    0.968
                            28 C    0.106
    27  16 S    2.675 --    26 C    1.230    28 C    1.200
    28   6 C    3.952 --    29 C    1.640    27 S    1.200    60 H    0.970
                            26 C    0.106
    29   6 C    3.986 --    28 C    1.640    25 C    1.230    61 H    0.962
    30   8 O    2.038 --    24 C    1.709    23 N    0.171
    31   6 C    3.968 --    23 N    0.989    35 N    0.988    62 H    0.918
                            32 C    0.900
    32   6 C    3.924 --    34 O    1.804    33 O    1.151    31 C    0.900
    33   8 O    2.226 --    32 C    1.151    63 H    0.842    34 O    0.171
    34   8 O    2.091 --    32 C    1.804    33 O    0.171
    35   7 N    3.452 --    36 C    1.188    31 C    0.988    11 C    0.955
                            42 O    0.187
    36   6 C    3.946 --    42 O    1.710    35 N    1.188    37 C    0.959
    37   6 C    3.982 --    38 C    1.599    41 C    1.229    36 C    0.959
    38   6 C    3.953 --    37 C    1.599    39 S    1.206    64 H    0.968
                            40 C    0.111
    39  16 S    2.653 --    38 C    1.206    40 C    1.200
    40   6 C    3.951 --    41 C    1.633    39 S    1.200    65 H    0.970
                            38 C    0.111
    41   6 C    3.986 --    40 C    1.633    37 C    1.229    66 H    0.963
    42   8 O    2.037 --    36 C    1.710    35 N    0.187
    43   1 H    0.998 --     1 C    0.968
    44   1 H    0.998 --     2 C    0.971
    45   1 H    0.999 --     3 C    0.971
    46   1 H    0.999 --     4 C    0.962
    47   1 H    0.997 --     7 C    0.968
    48   1 H    0.997 --     8 C    0.970
    49   1 H    0.998 --     9 C    0.967
    50   1 H    0.996 --    11 C    0.948
    51   1 H    0.994 --    12 C    0.947
    52   1 H    0.998 --    14 C    0.961
    53   1 H    0.997 --    15 C    0.970
    54   1 H    0.997 --    16 C    0.967
    55   1 H    0.996 --    19 C    0.956
    56   1 H    0.998 --    20 C    0.971
    57   1 H    0.998 --    21 C    0.971
    58   1 H    0.998 --    22 C    0.968
    59   1 H    0.996 --    26 C    0.968
    60   1 H    0.996 --    28 C    0.970
    61   1 H    0.998 --    29 C    0.962
    62   1 H    0.994 --    31 C    0.918
    63   1 H    0.887 --    33 O    0.842
    64   1 H    0.996 --    38 C    0.968
    65   1 H    0.997 --    40 C    0.970
    66   1 H    0.999 --    41 C    0.963
 ---------------------------------------------------------------------------

molecular dipole:
                 x           y           z       tot (Debye)
 q only:       -1.090       0.032       0.930
   full:       -1.330      -0.134       1.031       4.291

           -------------------------------------------------
          | TOTAL ENERGY             -113.666502950478 Eh   |
          | GRADIENT NORM               0.000280068767 Eh/α |
          | HOMO-LUMO GAP               2.715793182828 eV   |
           -------------------------------------------------

 * finished run on 2022/03/16 at 23:09:25.954
