   * xtb version 6.3.3 (4ae9cef) compiled by 'conda@95abc7406d43' on 2020-10-14
          program call               : xtb acid_83.xyz --opt --chrg 0 --uhf 0 --gfn 2
          number of atoms            :                    66
          number of electrons        :                   238
          charge                     :                     0
          spin                       :                   0.0

   ID    Z sym.   atoms
    1    6 C      1, 2, 6-15, 19-22, 24-29, 31, 33, 34, 38-41, 43-45
    2    9 F      3-5, 16-18
    3    7 N      23, 37
    4   35 Br     30, 42
    5    8 O      32, 35, 36, 46
    6    1 H      47-66

          :  Hamiltonian                  GFN2-xTB          :
 * total energy  :  -137.4461843 Eh     change       -0.2238295E-08 Eh
 * total energy  :  -137.4617609 Eh     change       -0.1557666E-01 Eh
 * total energy  :  -137.4664923 Eh     change       -0.4731369E-02 Eh
 * total energy  :  -137.4676751 Eh     change       -0.1182812E-02 Eh
 * total energy  :  -137.4683820 Eh     change       -0.7069210E-03 Eh
 * total energy  :  -137.4687351 Eh     change       -0.3530282E-03 Eh
 * total energy  :  -137.4690259 Eh     change       -0.2907821E-03 Eh
 * total energy  :  -137.4693114 Eh     change       -0.2855883E-03 Eh
 * total energy  :  -137.4695316 Eh     change       -0.2201899E-03 Eh
 * total energy  :  -137.4696736 Eh     change       -0.1419808E-03 Eh
 * total energy  :  -137.4710293 Eh     change       -0.1056414E-04 Eh
 * total energy  :  -137.4710393 Eh     change       -0.1002042E-04 Eh
 * total energy  :  -137.4710487 Eh     change       -0.9395043E-05 Eh
 * total energy  :  -137.4710560 Eh     change       -0.7320314E-05 Eh
 * total energy  :  -137.4710632 Eh     change       -0.7158154E-05 Eh
 * total energy  :  -137.4710708 Eh     change       -0.7661305E-05 Eh
 * total energy  :  -137.4710783 Eh     change       -0.7503736E-05 Eh
 * total energy  :  -137.4710844 Eh     change       -0.6113832E-05 Eh
 * total energy  :  -137.4710893 Eh     change       -0.4909939E-05 Eh
   *** GEOMETRY OPTIMIZATION CONVERGED AFTER 54 ITERATIONS ***

 final structure:
================
66
 xtb: 6.3.3 (4ae9cef)
C        -1.84280323842548   -2.30170912143683   -0.78086500880845
C        -2.05191270982587   -1.35315082819844   -1.93097051365937
F        -1.04510639136389   -0.48481345707858   -2.14592712310135
F        -2.20593496953568   -1.99726196054369   -3.09763772594348
F        -3.15780714934736   -0.59894967321262   -1.78471804543481
C        -2.34704634538768   -3.58722089125269   -0.95843410179963
C        -2.25011454580334   -4.53063051075465    0.04451171832873
C        -1.65258775462627   -4.18935928097440    1.24414507593203
C        -1.16515554143885   -2.91120376753364    1.42804357788688
C        -1.24989665072925   -1.94297083415501    0.43246632871071
C        -0.67622766390992   -0.58626704741921    0.75226096733771
C         0.69565971268470   -0.29522830869612    0.08513187475980
C         1.83212145848202   -0.51895520837814    1.05442180954152
C         2.70334429139165   -1.60820851679452    0.97197366901185
C         2.56009518326015   -2.65340271134412   -0.10219925521348
F         2.70781413287950   -2.15832777373504   -1.34543847169504
F         3.46161169585711   -3.63518208097842    0.00789231295286
F         1.35495534109864   -3.25523442900117   -0.08793029027416
C         3.73441308496179   -1.75690067025205    1.89351824837923
C         3.90769161568244   -0.83192710959550    2.90567306010980
C         3.04234395603785    0.24372087298711    3.00587485642966
C         2.01775656740236    0.39087018507390    2.09011944022076
N         0.58132371445186    1.09758643412799   -0.32917601870291
C         1.26008093941804    1.66984685724195   -1.37181330754875
C         2.50631033464681    0.95963198774190   -1.78600016169001
C         3.62813804633199    0.95566314877619   -0.96556312382221
C         4.79622482862407    0.35060477035816   -1.39636977150623
C         4.85607109214984   -0.25132145465707   -2.64060925464424
C         3.73461506362957   -0.22902613718322   -3.45263066249401
Br        3.81164980324332   -1.04493654609848   -5.16246731012423
C         2.56003702759453    0.37700293491097   -3.04485155269582
O         0.88747754624044    2.70126148179876   -1.87953576459484
C        -0.69938179288598    1.65958593419625    0.04075976489936
C        -0.57762376703201    2.58741373039220    1.26662011685248
O         0.25459099450248    3.59093795778889    1.03895598341729
O        -1.17309984467196    2.41969704314883    2.29574808726347
N        -1.52609843089774    0.52117096412865    0.33165831290928
C        -2.80005295114805    0.57662380371653    0.83937679570192
C        -3.57060050040703    1.82088380867340    0.55727843493848
C        -3.67248298179069    2.35929571098340   -0.71963668168427
C        -4.44855906193940    3.48879798460680   -0.90885211451122
Br       -4.60109280813786    4.22376708246909   -2.65732433192888
C        -5.11398143213097    4.09783617949162    0.14212306230529
C        -5.01453704222997    3.54602112287248    1.40767017395847
C        -4.25792389097438    2.40675257684569    1.61528157328045
O        -3.26879373321658   -0.35640055458917    1.45290347159405
H        -2.81734882305462   -3.84624673758786   -1.89434763392306
H        -2.64497750937611   -5.52203723020425   -0.11142624016673
H        -1.57342626592020   -4.91353898013351    2.03994977466810
H        -0.71229821474699   -2.64675256604534    2.37167154982397
H        -0.55879216918398   -0.53501574597582    1.84565444648557
H         0.82704529624954   -0.91834188602645   -0.80294446199412
H         4.40094910421223   -2.60135388628281    1.81542263336580
H         4.71217888358984   -0.95522032696432    3.61316408414583
H         3.16384502776286    0.96766144513826    3.79689999120122
H         1.34652546444357    1.23089119903306    2.17194248369687
H         3.59185927947113    1.44151672730743   -0.00234368099742
H         5.66809643645062    0.34925095083129   -0.75982157815791
H         5.76233314665117   -0.72816668691710   -2.98030447885657
H         1.69372925251852    0.39597155454720   -3.68781292089136
H        -1.06202807226696    2.27421479249891   -0.79681351526095
H         0.29552014906600    4.20269108776086    1.79330464129894
H        -3.19125569135383    1.88866688839001   -1.56209886475763
H        -5.70720532795649    4.98227635800147   -0.03222091424807
H        -5.53838850509517    4.00504397070095    2.23202899128957
H        -4.18186669415656    1.96210737345835    2.59463656843167

          :  Hamiltonian                  GFN2-xTB          :
         :: total energy            -137.471089343211 Eh    ::
         :: gradient norm              0.000540392402 Eh/a0 ::
         :: HOMO-LUMO gap              3.002409146877 eV    ::
         :: SCC energy              -139.063188197064 Eh    ::
         :: -> dispersion             -0.105103147883 Eh    ::
         :: repulsion energy           1.587757909624 Eh    ::

    * Orbital Energies and Occupations

         #    Occupation            Energy/Eh            Energy/eV
      -------------------------------------------------------------
         1        2.0000           -0.9001746             -24.4950
       ...           ...                  ...                  ...
       107        2.0000           -0.4491543             -12.2221
       108        2.0000           -0.4432035             -12.0602
       109        2.0000           -0.4399471             -11.9716
       110        2.0000           -0.4385596             -11.9338
       111        2.0000           -0.4343175             -11.8184
       112        2.0000           -0.4328692             -11.7790
       113        2.0000           -0.4210909             -11.4585
       114        2.0000           -0.4175162             -11.3612
       115        2.0000           -0.4143458             -11.2749
       116        2.0000           -0.4127630             -11.2319
       117        2.0000           -0.4078095             -11.0971
       118        2.0000           -0.4061982             -11.0532
       119        2.0000           -0.4028002             -10.9608 (HOMO)
       120                         -0.2924637              -7.9583 (LUMO)
       121                         -0.2837102              -7.7201
       122                         -0.2800110              -7.6195
       123                         -0.2718925              -7.3986
       124                         -0.2690200              -7.3204
       125                         -0.2671382              -7.2692
       126                         -0.2590323              -7.0486
       127                         -0.2584592              -7.0330
       128                         -0.2535956              -6.9007
       129                         -0.2351744              -6.3994
       130                         -0.2187693              -5.9530
       ...                                ...                  ...
       214                          0.6446511              17.5418
      -------------------------------------------------------------
                  HL-Gap            0.1103365 Eh            3.0024 eV

     #   Z          covCN         q      C6AA      Î±(0)
     1   6 C        2.974    -0.025    28.630     8.777
     2   6 C        3.337     0.489    17.230     6.571
     3   9 F        0.791    -0.217    11.415     3.991
     4   9 F        0.793    -0.203    11.261     3.964
     5   9 F        0.791    -0.209    11.332     3.977
     6   6 C        2.927    -0.019    28.489     8.753
     7   6 C        2.920    -0.019    28.484     8.752
     8   6 C        2.919    -0.014    28.357     8.732
     9   6 C        2.930    -0.021    28.520     8.758
    10   6 C        2.967     0.024    27.472     8.597
    11   6 C        3.840     0.053    19.657     6.307
    12   6 C        3.814     0.039    19.904     6.350
    13   6 C        2.969     0.009    27.825     8.652
    14   6 C        2.976    -0.034    28.837     8.809
    15   6 C        3.335     0.485    17.305     6.589
    16   9 F        0.791    -0.212    11.361     3.981
    17   9 F        0.792    -0.197    11.201     3.954
    18   9 F        0.791    -0.214    11.380     3.985
    19   6 C        2.923    -0.022    28.565     8.765
    20   6 C        2.920    -0.022    28.563     8.764
    21   6 C        2.918    -0.018    28.469     8.750
    22   6 C        2.927    -0.026    28.648     8.778
    23   7 N        2.760    -0.120    23.608     7.216
    24   6 C        2.768     0.277    22.320     7.737
    25   6 C        2.979    -0.010    28.270     8.722
    26   6 C        2.921    -0.033    28.811     8.802
    27   6 C        2.923    -0.026    28.664     8.780
    28   6 C        2.997    -0.030    28.746     8.795
    29   6 C        2.918     0.092    25.964     8.356
    30  35 Br       1.079    -0.141   188.943    22.163
    31   6 C        3.001    -0.025    28.619     8.776
    32   8 O        0.859    -0.393    21.543     6.223
    33   6 C        3.776     0.091    19.093     6.226
    34   6 C        2.688     0.349    21.073     7.513
    35   8 O        1.659    -0.348    19.870     6.017
    36   8 O        0.856    -0.395    21.578     6.228
    37   7 N        2.758    -0.128    23.783     7.243
    38   6 C        2.769     0.283    22.213     7.719
    39   6 C        2.978    -0.012    28.303     8.727
    40   6 C        2.996    -0.039    28.957     8.827
    41   6 C        2.918     0.085    26.098     8.377
    42  35 Br       1.073    -0.152   189.251    22.181
    43   6 C        2.993    -0.033    28.806     8.804
    44   6 C        2.922    -0.025    28.626     8.774
    45   6 C        2.925    -0.018    28.463     8.749
    46   8 O        0.859    -0.406    21.801     6.260
    47   1 H        0.926     0.070     2.086     2.259
    48   1 H        0.926     0.061     2.183     2.311
    49   1 H        0.926     0.060     2.199     2.319
    50   1 H        0.926     0.050     2.314     2.379
    51   1 H        0.923     0.059     2.207     2.323
    52   1 H        0.924     0.064     2.148     2.292
    53   1 H        0.926     0.072     2.066     2.247
    54   1 H        0.926     0.063     2.164     2.300
    55   1 H        0.926     0.061     2.188     2.313
    56   1 H        0.926     0.052     2.292     2.367
    57   1 H        0.926     0.036     2.498     2.472
    58   1 H        0.926     0.047     2.353     2.399
    59   1 H        0.926     0.064     2.158     2.297
    60   1 H        0.926     0.072     2.067     2.249
    61   1 H        0.923     0.108     1.715     2.048
    62   1 H        0.804     0.345     0.599     1.216
    63   1 H        0.926     0.065     2.140     2.287
    64   1 H        0.926     0.061     2.184     2.311
    65   1 H        0.926     0.054     2.273     2.357
    66   1 H        0.926     0.067     2.123     2.278

Wiberg/Mayer (AO) data.
largest (>0.10) Wiberg bond orders for each atom

     #   Z sym  total        # sym  WBO       # sym  WBO       # sym  WBO
 ---------------------------------------------------------------------------
     1   6 C    3.970 --     6 C    1.409    10 C    1.388     2 C    0.952
                             8 C    0.105
     2   6 C    3.821 --     4 F    0.953     1 C    0.952     5 F    0.940
                             3 F    0.937
     3   9 F    1.063 --     2 C    0.937
     4   9 F    1.075 --     2 C    0.953
     5   9 F    1.072 --     2 C    0.940
     6   6 C    3.987 --     7 C    1.446     1 C    1.409    47 H    0.965
                             9 C    0.109
     7   6 C    3.988 --     6 C    1.446     8 C    1.431    48 H    0.968
                            10 C    0.108
     8   6 C    3.989 --     9 C    1.450     7 C    1.431    49 H    0.968
                             1 C    0.105
     9   6 C    3.988 --     8 C    1.450    10 C    1.406    50 H    0.966
                             6 C    0.109
    10   6 C    3.986 --     9 C    1.406     1 C    1.388    11 C    0.997
                             7 C    0.108
    11   6 C    3.970 --    10 C    0.997    37 N    0.963    51 H    0.950
                            12 C    0.945
    12   6 C    3.971 --    13 C    0.993    23 N    0.966    52 H    0.955
                            11 C    0.945
    13   6 C    3.987 --    22 C    1.409    14 C    1.385    12 C    0.993
                            20 C    0.109
    14   6 C    3.969 --    19 C    1.413    13 C    1.385    15 C    0.949
                            21 C    0.105
    15   6 C    3.822 --    17 F    0.958    14 C    0.949    16 F    0.938
                            18 F    0.938
    16   9 F    1.068 --    15 C    0.938
    17   9 F    1.082 --    15 C    0.958
    18   9 F    1.066 --    15 C    0.938
    19   6 C    3.986 --    20 C    1.444    14 C    1.413    53 H    0.965
                            22 C    0.109
    20   6 C    3.987 --    19 C    1.444    21 C    1.432    54 H    0.968
                            13 C    0.109
    21   6 C    3.989 --    22 C    1.448    20 C    1.432    55 H    0.968
                            14 C    0.105
    22   6 C    3.990 --    21 C    1.448    13 C    1.409    56 H    0.963
                            19 C    0.109
    23   7 N    3.433 --    24 C    1.175    33 C    0.979    12 C    0.966
                            32 O    0.183
    24   6 C    3.941 --    32 O    1.724    23 N    1.175    25 C    0.963
    25   6 C    3.987 --    31 C    1.405    26 C    1.400    24 C    0.963
                            28 C    0.107
    26   6 C    3.991 --    27 C    1.438    25 C    1.400    57 H    0.969
                            29 C    0.100
    27   6 C    3.991 --    28 C    1.440    26 C    1.438    58 H    0.968
                            31 C    0.109
    28   6 C    3.989 --    27 C    1.440    29 C    1.408    59 H    0.967
                            25 C    0.107
    29   6 C    3.946 --    31 C    1.413    28 C    1.408    30 Br   0.992
                            26 C    0.100
    30  35 Br   1.124 --    29 C    0.992
    31   6 C    3.987 --    29 C    1.413    25 C    1.405    60 H    0.965
                            27 C    0.109
    32   8 O    2.051 --    24 C    1.724    23 N    0.183
    33   6 C    3.964 --    37 N    0.993    23 N    0.979    61 H    0.920
                            34 C    0.912
    34   6 C    3.918 --    36 O    1.765    35 O    1.171    33 C    0.912
    35   8 O    2.236 --    34 C    1.171    62 H    0.854    36 O    0.184
    36   8 O    2.057 --    34 C    1.765    35 O    0.184
    37   7 N    3.415 --    38 C    1.164    33 C    0.993    11 C    0.963
                            46 O    0.174
    38   6 C    3.940 --    46 O    1.713    37 N    1.164    39 C    0.976
    39   6 C    3.986 --    40 C    1.399    45 C    1.397    38 C    0.976
                            43 C    0.106
    40   6 C    3.989 --    41 C    1.417    39 C    1.399    63 H    0.963
                            44 C    0.107
    41   6 C    3.943 --    40 C    1.417    43 C    1.406    42 Br   0.987
    42  35 Br   1.118 --    41 C    0.987
    43   6 C    3.989 --    44 C    1.438    41 C    1.406    64 H    0.968
                            39 C    0.106
    44   6 C    3.990 --    45 C    1.441    43 C    1.438    65 H    0.967
                            40 C    0.107
    45   6 C    3.988 --    44 C    1.441    39 C    1.397    66 H    0.966
    46   8 O    2.034 --    38 C    1.713    37 N    0.174
    47   1 H    0.995 --     6 C    0.965
    48   1 H    0.995 --     7 C    0.968
    49   1 H    0.996 --     8 C    0.968
    50   1 H    0.997 --     9 C    0.966
    51   1 H    0.996 --    11 C    0.950
    52   1 H    0.996 --    12 C    0.955
    53   1 H    0.994 --    19 C    0.965
    54   1 H    0.995 --    20 C    0.968
    55   1 H    0.995 --    21 C    0.968
    56   1 H    0.997 --    22 C    0.963
    57   1 H    0.998 --    26 C    0.969
    58   1 H    0.997 --    27 C    0.968
    59   1 H    0.996 --    28 C    0.967
    60   1 H    0.995 --    31 C    0.965
    61   1 H    0.987 --    33 C    0.920
    62   1 H    0.880 --    35 O    0.854
    63   1 H    0.996 --    40 C    0.963
    64   1 H    0.996 --    43 C    0.968
    65   1 H    0.997 --    44 C    0.967
    66   1 H    0.995 --    45 C    0.966
 ---------------------------------------------------------------------------

molecular dipole:
                 x           y           z       tot (Debye)
 q only:        1.756      -0.242       3.390
   full:        1.839      -0.056       4.386      12.090

           -------------------------------------------------
          | TOTAL ENERGY             -137.471089343211 Eh   |
          | GRADIENT NORM               0.000540392402 Eh/Î± |
          | HOMO-LUMO GAP               3.002409146877 eV   |
           -------------------------------------------------

 * finished run on 2022/03/17 at 02:09:27.707
