   * xtb version 6.3.3 (4ae9cef) compiled by 'conda@95abc7406d43' on 2020-10-14
          program call               : xtb acid_136.xyz --opt --chrg 0 --uhf 0 --gfn 2
          number of atoms            :                    72
          number of electrons        :                   226
          charge                     :                     0
          spin                       :                   0.0

   ID    Z sym.   atoms
    1    6 C      1-22, 24-28, 30, 31, 33, 34, 38-42, 44, 45
    2    7 N      23, 37
    3   53 I      29, 43
    4    8 O      32, 35, 36, 46
    5    1 H      47-72

          :  Hamiltonian                  GFN2-xTB          :
 * total energy  :  -124.3664090 Eh     change       -0.4458940E-09 Eh
 * total energy  :  -124.3829723 Eh     change       -0.1656330E-01 Eh
 * total energy  :  -124.3885044 Eh     change       -0.5532095E-02 Eh
 * total energy  :  -124.3907017 Eh     change       -0.2197293E-02 Eh
 * total energy  :  -124.3922109 Eh     change       -0.1509204E-02 Eh
 * total energy  :  -124.3930111 Eh     change       -0.8001644E-03 Eh
 * total energy  :  -124.3937624 Eh     change       -0.7513506E-03 Eh
 * total energy  :  -124.3945588 Eh     change       -0.7963387E-03 Eh
 * total energy  :  -124.3953271 Eh     change       -0.7683155E-03 Eh
 * total energy  :  -124.3960106 Eh     change       -0.6834592E-03 Eh
 * total energy  :  -124.4047519 Eh     change       -0.2271832E-04 Eh
 * total energy  :  -124.4047659 Eh     change       -0.1401479E-04 Eh
 * total energy  :  -124.4047778 Eh     change       -0.1194582E-04 Eh
 * total energy  :  -124.4047894 Eh     change       -0.1154752E-04 Eh
 * total energy  :  -124.4047970 Eh     change       -0.7612832E-05 Eh
 * total energy  :  -124.4048032 Eh     change       -0.6206487E-05 Eh
 * total energy  :  -124.4048109 Eh     change       -0.7726709E-05 Eh
 * total energy  :  -124.4048174 Eh     change       -0.6528132E-05 Eh
 * total energy  :  -124.4048219 Eh     change       -0.4476505E-05 Eh
   *** GEOMETRY OPTIMIZATION CONVERGED AFTER 58 ITERATIONS ***

 final structure:
================
72
 xtb: 6.3.3 (4ae9cef)
C        -4.16760961657008   -2.08549780612376    3.53510635190217
C        -4.14215611475590   -0.88276384982827    4.18136301200297
C        -3.17596450672273    0.07167865233657    3.83591194142460
C        -2.26906312400398   -0.18272074898703    2.84445062900769
C        -2.27973771047773   -1.40571319244956    2.13979279701671
C        -3.24412174570189   -2.37961221478455    2.51060631404980
C        -3.26202594145764   -3.62677119646414    1.85222954088874
C        -2.35837841859133   -3.90030410485291    0.86872155923457
C        -1.42027897133383   -2.93379593481642    0.47798293070339
C        -1.38152421580381   -1.70147978173573    1.07454895712428
C        -0.37405130098264   -0.65849744125307    0.67741516175830
C         0.62765366568782   -0.97790529125687   -0.45125366377056
C         1.77318391270013   -1.85521769801771   -0.02119989817463
C         2.55589343341636   -1.42537900551815    1.02315794673317
C         3.60717856835032   -2.20410385317055    1.51909587109904
C         3.86692620076283   -3.42627926699549    0.97054513763392
C         3.11126361217568   -3.89490666485727   -0.12256910613473
C         2.05960948588564   -3.09587187201708   -0.65311950396988
C         1.37981787617538   -3.58508979165264   -1.79113007271141
C         1.68930559471710   -4.79763771864092   -2.34126359957678
C         2.69927543798029   -5.59697042615644   -1.78886852909999
C         3.39916702180539   -5.14645569698838   -0.70723214333363
N         1.07545655286523    0.37503053009681   -0.80465258926721
C         2.19534838258645    0.63577207764059   -1.52236934782016
C         2.49235635600037    2.10500080778889   -1.62643096818046
C         1.85042342359567    2.90839115611353   -2.56005527698198
C         2.12401500306272    4.26317906582859   -2.62045432070220
C         3.04590729569332    4.80655470258779   -1.74388982993989
I         3.43296645717257    6.88495835351862   -1.79928443329363
C         3.71423944242740    4.01482812981761   -0.82710554420554
C         3.43708684755391    2.66010579883713   -0.77286682978787
O         2.89394043686552   -0.22361808961625   -2.00743036582688
C         0.15643443113227    1.38011556193944   -0.29664058207837
C         0.80327673034943    2.20175674867904    0.83228209734023
O         0.64585923608582    3.50693321606693    0.62638192791042
O         1.36229083720310    1.73899860905719    1.78603734444378
N        -0.95530487713384    0.60670526639718    0.20314523750782
C        -2.20775235953907    0.70737239698335   -0.35132845294556
C        -2.54055098094540    2.09270304320613   -0.80928333733553
C        -2.43020207659687    3.17046870911858    0.06291598386417
C        -2.77179822756662    4.44313838625356   -0.35471168580262
C        -3.22069111458611    4.63353649788551   -1.65023473618227
I        -3.70782542038841    6.58448989201318   -2.30204216265370
C        -3.35857602304245    3.56853395223792   -2.52325032596857
C        -3.02705203689257    2.29576061109574   -2.09533613317933
O        -2.99713509417092   -0.20379664516148   -0.41763876552260
H        -4.90003463360772   -2.83533919452484    3.79824098905067
H        -4.85567745615959   -0.66139962999500    4.96137885674876
H        -3.15131670354315    1.01505737948595    4.36254595050101
H        -1.53148056071999    0.56837395789589    2.60572806448125
H        -4.00158099245834   -4.35801219856253    2.14484870815591
H        -2.35952345350347   -4.85794203920747    0.36978170356789
H        -0.72653927822987   -3.18993477649081   -0.30514403154387
H         0.20922968616284   -0.40167493922695    1.57276594629785
H         0.09097522998925   -1.38938262394412   -1.31112684853240
H         2.37240976609746   -0.46128174288732    1.47551399952802
H         4.19895115910872   -1.83053858545970    2.34150128938966
H         4.66377284491582   -4.04694812428890    1.35434783084662
H         0.61565770327478   -2.99040602577269   -2.26798989770824
H         1.15654573849423   -5.14437477357682   -3.21479264292280
H         2.92530081856933   -6.55540940396600   -2.23222522843078
H         4.19572101701773   -5.74005839466320   -0.28159419628328
H         1.13838927691308    2.47558646003651   -3.24789957146564
H         1.62047985804621    4.88622878529983   -3.34329164730958
H         4.44470354704044    4.44526841071079   -0.15933143222258
H         3.95241207050693    2.03002201975039   -0.06341808169791
H        -0.16464219046761    2.08185523619098   -1.07630440792234
H         1.04698626712504    4.03023879573550    1.34165820011373
H        -2.09433982716659    3.00934425724747    1.07598888399147
H        -2.68840588376266    5.27742074113619    0.32428308886513
H        -3.72424229716698    3.72543494220456   -3.52625968843683
H        -3.14082707144834    1.45224559270527   -2.75925837422202

          :  Hamiltonian                  GFN2-xTB          :
         :: total energy            -124.404821914828 Eh    ::
         :: gradient norm              0.000502724955 Eh/a0 ::
         :: HOMO-LUMO gap              2.456802512469 eV    ::
         :: SCC energy              -126.326297782186 Eh    ::
         :: -> dispersion             -0.113638769888 Eh    ::
         :: repulsion energy           1.918113399461 Eh    ::

    * Orbital Energies and Occupations

         #    Occupation            Energy/Eh            Energy/eV
      -------------------------------------------------------------
         1        2.0000           -0.7954136             -21.6443
       ...           ...                  ...                  ...
       101        2.0000           -0.4217687             -11.4769
       102        2.0000           -0.4213635             -11.4659
       103        2.0000           -0.4205800             -11.4446
       104        2.0000           -0.4168252             -11.3424
       105        2.0000           -0.4150263             -11.2934
       106        2.0000           -0.4143794             -11.2758
       107        2.0000           -0.4124105             -11.2223
       108        2.0000           -0.4100840             -11.1590
       109        2.0000           -0.4094923             -11.1429
       110        2.0000           -0.4035841             -10.9821
       111        2.0000           -0.4034297             -10.9779
       112        2.0000           -0.3807710             -10.3613
       113        2.0000           -0.3803863             -10.3508 (HOMO)
       114                         -0.2901004              -7.8940 (LUMO)
       115                         -0.2817536              -7.6669
       116                         -0.2673815              -7.2758
       117                         -0.2654394              -7.2230
       118                         -0.2652191              -7.2170
       119                         -0.2644513              -7.1961
       120                         -0.2636588              -7.1745
       121                         -0.2391330              -6.5071
       122                         -0.2384685              -6.4891
       123                         -0.2327982              -6.3348
       124                         -0.2318346              -6.3085
       ...                                ...                  ...
       220                          0.6927168              18.8498
      -------------------------------------------------------------
                  HL-Gap            0.0902858 Eh            2.4568 eV

     #   Z          covCN         q      C6AA      Î±(0)
     1   6 C        2.921    -0.032    28.797     8.800
     2   6 C        2.915    -0.029    28.731     8.790
     3   6 C        2.917    -0.029    28.728     8.789
     4   6 C        2.917    -0.035    28.862     8.810
     5   6 C        2.987     0.016    27.650     8.626
     6   6 C        2.989     0.019    27.565     8.612
     7   6 C        2.919    -0.033    28.819     8.803
     8   6 C        2.915    -0.027    28.672     8.781
     9   6 C        2.920    -0.034    28.850     8.808
    10   6 C        2.965     0.010    27.785     8.646
    11   6 C        3.855     0.042    19.835     6.334
    12   6 C        3.824     0.047    19.765     6.326
    13   6 C        2.966     0.005    27.901     8.664
    14   6 C        2.924    -0.036    28.893     8.815
    15   6 C        2.914    -0.028    28.707     8.786
    16   6 C        2.921    -0.034    28.838     8.806
    17   6 C        2.989     0.017    27.614     8.620
    18   6 C        2.982     0.017    27.620     8.621
    19   6 C        2.917    -0.031    28.761     8.794
    20   6 C        2.917    -0.028    28.696     8.784
    21   6 C        2.915    -0.029    28.715     8.787
    22   6 C        2.922    -0.032    28.808     8.802
    23   7 N        2.773    -0.129    23.792     7.244
    24   6 C        2.758     0.274    22.374     7.746
    25   6 C        2.977    -0.020    28.500     8.757
    26   6 C        2.925    -0.027    28.674     8.781
    27   6 C        3.050    -0.030    28.696     8.786
    28   6 C        2.958     0.059    26.668     8.470
    29  53 I        1.225    -0.120   380.831    33.688
    30   6 C        3.050    -0.032    28.753     8.794
    31   6 C        2.926    -0.024    28.612     8.772
    32   8 O        0.858    -0.405    21.777     6.257
    33   6 C        3.784     0.091    19.089     6.223
    34   6 C        2.688     0.351    21.042     7.507
    35   8 O        1.659    -0.370    20.284     6.080
    36   8 O        0.856    -0.377    21.226     6.177
    37   7 N        2.766    -0.132    23.851     7.253
    38   6 C        2.761     0.277    22.306     7.734
    39   6 C        2.976    -0.020    28.503     8.757
    40   6 C        2.925    -0.025    28.638     8.776
    41   6 C        3.051    -0.030    28.689     8.784
    42   6 C        2.958     0.061    26.621     8.463
    43  53 I        1.225    -0.115   380.486    33.672
    44   6 C        3.049    -0.030    28.708     8.788
    45   6 C        2.926    -0.021    28.521     8.758
    46   8 O        0.858    -0.390    21.486     6.215
    47   1 H        0.926     0.036     2.503     2.474
    48   1 H        0.926     0.033     2.543     2.494
    49   1 H        0.926     0.029     2.607     2.525
    50   1 H        0.926     0.021     2.720     2.579
    51   1 H        0.926     0.038     2.475     2.460
    52   1 H        0.926     0.037     2.488     2.466
    53   1 H        0.926     0.038     2.469     2.457
    54   1 H        0.923     0.072     2.060     2.245
    55   1 H        0.924     0.053     2.281     2.362
    56   1 H        0.926     0.042     2.425     2.435
    57   1 H        0.926     0.036     2.504     2.475
    58   1 H        0.926     0.037     2.488     2.466
    59   1 H        0.926     0.029     2.600     2.522
    60   1 H        0.926     0.033     2.540     2.492
    61   1 H        0.926     0.033     2.538     2.491
    62   1 H        0.926     0.035     2.517     2.481
    63   1 H        0.926     0.042     2.419     2.432
    64   1 H        0.926     0.059     2.211     2.325
    65   1 H        0.926     0.058     2.216     2.328
    66   1 H        0.926     0.054     2.275     2.359
    67   1 H        0.924     0.059     2.209     2.324
    68   1 H        0.804     0.348     0.592     1.209
    69   1 H        0.926     0.043     2.415     2.430
    70   1 H        0.926     0.059     2.209     2.324
    71   1 H        0.926     0.061     2.188     2.313
    72   1 H        0.926     0.058     2.220     2.330

Wiberg/Mayer (AO) data.
largest (>0.10) Wiberg bond orders for each atom

     #   Z sym  total        # sym  WBO       # sym  WBO       # sym  WBO
 ---------------------------------------------------------------------------
     1   6 C    3.991 --     2 C    1.555     6 C    1.282    47 H    0.968
                             4 C    0.118
     2   6 C    3.992 --     1 C    1.555     3 C    1.325    48 H    0.971
     3   6 C    3.992 --     4 C    1.552     2 C    1.325    49 H    0.971
     4   6 C    3.993 --     3 C    1.552     5 C    1.288    50 H    0.966
                             1 C    0.118
     5   6 C    3.989 --     4 C    1.288     6 C    1.258    10 C    1.241
     6   6 C    3.990 --     1 C    1.282     7 C    1.272     5 C    1.258
     7   6 C    3.991 --     8 C    1.562     6 C    1.272    51 H    0.968
                            10 C    0.114
     8   6 C    3.992 --     7 C    1.562     9 C    1.317    52 H    0.970
     9   6 C    3.989 --    10 C    1.533     8 C    1.317    53 H    0.962
    10   6 C    3.982 --     9 C    1.533     5 C    1.241    11 C    0.996
                             7 C    0.114
    11   6 C    3.953 --    10 C    0.996    12 C    0.959    37 N    0.942
                            54 H    0.936
    12   6 C    3.956 --    13 C    0.994    11 C    0.959    55 H    0.946
                            23 N    0.939
    13   6 C    3.983 --    14 C    1.519    18 C    1.254    12 C    0.994
                            16 C    0.115
    14   6 C    3.990 --    13 C    1.519    15 C    1.330    56 H    0.962
    15   6 C    3.992 --    16 C    1.550    14 C    1.330    57 H    0.970
    16   6 C    3.990 --    15 C    1.550    17 C    1.281    58 H    0.968
                            13 C    0.115
    17   6 C    3.990 --    16 C    1.281    22 C    1.279    18 C    1.251
    18   6 C    3.988 --    19 C    1.282    13 C    1.254    17 C    1.251
    19   6 C    3.992 --    20 C    1.554    18 C    1.282    59 H    0.959
                            22 C    0.118
    20   6 C    3.990 --    19 C    1.554    21 C    1.322    60 H    0.971
    21   6 C    3.992 --    22 C    1.558    20 C    1.322    61 H    0.971
    22   6 C    3.991 --    21 C    1.558    17 C    1.279    62 H    0.968
                            19 C    0.118
    23   7 N    3.459 --    24 C    1.216    33 C    0.970    12 C    0.939
                            32 O    0.198
    24   6 C    3.949 --    32 O    1.706    23 N    1.216    25 C    0.947
    25   6 C    3.987 --    26 C    1.406    31 C    1.405    24 C    0.947
                            28 C    0.101
    26   6 C    3.991 --    27 C    1.440    25 C    1.406    63 H    0.967
                            30 C    0.109
    27   6 C    3.990 --    26 C    1.440    28 C    1.420    64 H    0.968
                            31 C    0.109
    28   6 C    3.955 --    30 C    1.422    27 C    1.420    29 I    0.974
                            25 C    0.101
    29  53 I    1.091 --    28 C    0.974
    30   6 C    3.989 --    31 C    1.437    28 C    1.422    65 H    0.967
                            26 C    0.109
    31   6 C    3.990 --    30 C    1.437    25 C    1.405    66 H    0.967
                            27 C    0.109
    32   8 O    2.039 --    24 C    1.706    23 N    0.198
    33   6 C    3.973 --    37 N    0.987    23 N    0.970    67 H    0.947
                            34 C    0.915
    34   6 C    3.919 --    36 O    1.780    35 O    1.152    33 C    0.915
    35   8 O    2.214 --    34 C    1.152    68 H    0.852    36 O    0.183
    36   8 O    2.070 --    34 C    1.780    35 O    0.183
    37   7 N    3.422 --    38 C    1.167    33 C    0.987    11 C    0.942
                            46 O    0.179
    38   6 C    3.944 --    46 O    1.728    37 N    1.167    39 C    0.967
    39   6 C    3.986 --    45 C    1.400    40 C    1.393    38 C    0.967
    40   6 C    3.991 --    41 C    1.445    39 C    1.393    69 H    0.967
                            44 C    0.108
    41   6 C    3.990 --    40 C    1.445    42 C    1.417    70 H    0.967
                            45 C    0.108
    42   6 C    3.956 --    44 C    1.420    41 C    1.417    43 I    0.978
    43  53 I    1.096 --    42 C    0.978
    44   6 C    3.989 --    45 C    1.441    42 C    1.420    71 H    0.967
                            40 C    0.108
    45   6 C    3.989 --    44 C    1.441    39 C    1.400    72 H    0.966
                            41 C    0.108
    46   8 O    2.058 --    38 C    1.728    37 N    0.179
    47   1 H    0.998 --     1 C    0.968
    48   1 H    0.998 --     2 C    0.971
    49   1 H    0.999 --     3 C    0.971
    50   1 H    0.999 --     4 C    0.966
    51   1 H    0.997 --     7 C    0.968
    52   1 H    0.998 --     8 C    0.970
    53   1 H    0.998 --     9 C    0.962
    54   1 H    0.994 --    11 C    0.936
    55   1 H    0.997 --    12 C    0.946
    56   1 H    0.998 --    14 C    0.962
    57   1 H    0.998 --    15 C    0.970
    58   1 H    0.998 --    16 C    0.968
    59   1 H    0.999 --    19 C    0.959
    60   1 H    0.998 --    20 C    0.971
    61   1 H    0.998 --    21 C    0.971
    62   1 H    0.998 --    22 C    0.968
    63   1 H    0.998 --    26 C    0.967
    64   1 H    0.996 --    27 C    0.968
    65   1 H    0.996 --    30 C    0.967
    66   1 H    0.997 --    31 C    0.967
    67   1 H    0.996 --    33 C    0.947
    68   1 H    0.878 --    35 O    0.852
    69   1 H    0.998 --    40 C    0.967
    70   1 H    0.996 --    41 C    0.967
    71   1 H    0.996 --    44 C    0.967
    72   1 H    0.997 --    45 C    0.966
 ---------------------------------------------------------------------------

molecular dipole:
                 x           y           z       tot (Debye)
 q only:       -0.223      -0.204       0.867
   full:       -0.143      -0.750       0.932       3.062

           -------------------------------------------------
          | TOTAL ENERGY             -124.404821914828 Eh   |
          | GRADIENT NORM               0.000502724955 Eh/Î± |
          | HOMO-LUMO GAP               2.456802512469 eV   |
           -------------------------------------------------

 * finished run on 2022/03/16 at 21:45:19.220
