   * xtb version 6.3.3 (4ae9cef) compiled by 'conda@95abc7406d43' on 2020-10-14
          program call               : xtb acid_242.xyz --opt --chrg 0 --uhf 0 --gfn 2
          number of atoms            :                    96
          number of electrons        :                   262
          charge                     :                     0
          spin                       :                   0.0

   ID    Z sym.   atoms
    1    6 C      1-22, 24-34, 36, 37, 41-51
    2    7 N      23, 40
    3    8 O      35, 38, 39, 52
    4    1 H      53-96

          :  Hamiltonian                  GFN2-xTB          :
 * total energy  :  -143.1144471 Eh     change       -0.5505655E-08 Eh
 * total energy  :  -143.1324867 Eh     change       -0.1803960E-01 Eh
 * total energy  :  -143.1375136 Eh     change       -0.5026888E-02 Eh
 * total energy  :  -143.1388922 Eh     change       -0.1378657E-02 Eh
 * total energy  :  -143.1397817 Eh     change       -0.8894977E-03 Eh
 * total energy  :  -143.1402671 Eh     change       -0.4853349E-03 Eh
 * total energy  :  -143.1406689 Eh     change       -0.4018228E-03 Eh
 * total energy  :  -143.1411182 Eh     change       -0.4493464E-03 Eh
 * total energy  :  -143.1415157 Eh     change       -0.3974825E-03 Eh
 * total energy  :  -143.1418981 Eh     change       -0.3823468E-03 Eh
 * total energy  :  -143.1492310 Eh     change       -0.2953080E-04 Eh
 * total energy  :  -143.1492523 Eh     change       -0.2131428E-04 Eh
 * total energy  :  -143.1492740 Eh     change       -0.2170997E-04 Eh
 * total energy  :  -143.1492950 Eh     change       -0.2102297E-04 Eh
 * total energy  :  -143.1493112 Eh     change       -0.1619450E-04 Eh
 * total energy  :  -143.1493216 Eh     change       -0.1037760E-04 Eh
 * total energy  :  -143.1493287 Eh     change       -0.7169579E-05 Eh
 * total energy  :  -143.1493338 Eh     change       -0.5104705E-05 Eh
 * total energy  :  -143.1493383 Eh     change       -0.4407528E-05 Eh
   *** GEOMETRY OPTIMIZATION CONVERGED AFTER 62 ITERATIONS ***

 final structure:
================
96
 xtb: 6.3.3 (4ae9cef)
C        -3.42737504061919   -2.83246664324170   -0.37043983980632
C        -4.32119561379927   -3.36526407442190   -1.25289099325544
C        -4.10553358844596   -3.27504323923248   -2.64374312334216
C        -5.01155169524661   -3.80585077802558   -3.58442812268580
C        -4.77719720886351   -3.68282388170483   -4.92532590030839
C        -3.62656214591920   -3.02432586508363   -5.38651505068609
C        -2.72660247542918   -2.50422212393595   -4.49949370940869
C        -2.93967007340219   -2.61544804756076   -3.11008145669336
C        -2.03408577729113   -2.07835452453545   -2.17339582848907
C        -2.26288652453334   -2.18305460636821   -0.82687204178299
C        -1.36601887259060   -1.55344728116770    0.21201311631220
C         0.09866215832393   -1.35953448986176   -0.22157721821241
C         1.06902426064550   -1.50016432730099    0.92430572531178
C         1.99676082516201   -2.50817047719071    0.92330965513607
C         2.91661842816341   -2.65527610244849    1.97883801469296
C         3.90269437578374   -3.66379088048903    1.97650545572411
C         4.78076536953751   -3.78191919366142    3.01692636969173
C         4.70924979535388   -2.90317402100212    4.11007442860305
C         3.76883891079844   -1.91165731654507    4.13854891991974
C         2.85640049582726   -1.75541799902196    3.07419748902779
C         1.89431738549199   -0.72533971278795    3.05159792072178
C         1.03119888495578   -0.59396053424371    2.00254249833436
N         0.09317765821041   -0.00275160896963   -0.76186817541395
C         1.16303898248525    0.65486869073497   -1.24252365630365
C         2.43997001156876   -0.10445071258176   -1.30124645133424
C         2.59412926009757   -1.19346963070203   -2.14975581904556
C         3.80244455124579   -1.86129175281406   -2.16504169249094
C         4.84798950815983   -1.44921646645227   -1.35520749324582
C         4.72436880802652   -0.33910073000088   -0.52849794764950
C         5.86994749260208    0.19667937601126    0.31402900211033
C         5.43676647851765    0.29709191434567    1.78166659006910
C         7.11231352363676   -0.69565408156890    0.25270391727137
C         6.24206730737484    1.58905948967028   -0.21643528873376
C         3.50231982459906    0.32596117143709   -0.52131263514680
O         1.07162383136453    1.82594623108127   -1.61288313947720
C        -1.14118411135478    0.70597619315776   -0.41330668652969
C        -1.99133645451171    1.06306876776017   -1.67097449267587
O        -1.36534928667196    1.82160027981657   -2.54357367063683
O        -3.13082756425013    0.71380984636935   -1.78894958844553
N        -1.80453768761424   -0.19019149307650    0.48352719054123
C        -2.41839203164369    0.12789795854755    1.66088363630837
C        -2.66266647339254    1.58268489967496    1.87194500005390
C        -3.47354327815631    2.29664137412729    1.00170487619860
C        -3.72856835678306    3.65093380909706    1.19895065967393
C        -4.62287286715465    4.38340857567185    0.21235912069681
C        -3.99695243250662    4.29768021978221   -1.18715791839749
C        -6.00410319599276    3.71421960538186    0.20302371089402
C        -4.80554094768333    5.86108577133871    0.56975553744982
C        -3.13998383015246    4.26761167343174    2.29726787114181
C        -2.34207462688817    3.55544889795662    3.17860729555777
C        -2.10452162854884    2.20966533308622    2.98011728223385
O        -2.72469061783822   -0.72662798813902    2.46553677857375
H        -3.60530538698945   -2.88640430129565    0.69336165209692
H        -5.21376495096073   -3.85866357562424   -0.89598249832942
H        -5.89815635020830   -4.30818616674632   -3.22439234538263
H        -5.47750964894275   -4.08793293576900   -5.64115342564825
H        -3.46041413091242   -2.93078256093400   -6.44973034688973
H        -1.84198446669336   -1.99214999410989   -4.85121456307588
H        -1.16358960705667   -1.56538713739886   -2.55925211822057
H        -1.43807483191348   -2.11422539158290    1.15029881655222
H         0.36306639027887   -2.07842815435845   -1.00122565486240
H         2.04091167305242   -3.20568377048988    0.09886806630804
H         3.95035998184806   -4.33876254697912    1.13417294002094
H         5.53552765519127   -4.55433600011613    3.00868027682559
H         5.40715104810171   -3.01625892044148    4.92627589799465
H         3.71407282434313   -1.22825840450927    4.97352895691130
H         1.85385380487165   -0.03440119518464    3.88111032288361
H         0.30814144748836    0.20767580049390    2.00090253477678
H         1.78962061636447   -1.50100236803478   -2.80183246298839
H         3.93642782289604   -2.71099541913147   -2.81847163159377
H         5.77119781747910   -2.00311160093440   -1.39342511819949
H         4.56018579612787    0.92699601520732    1.90226968163607
H         6.24268086096996    0.72013845524928    2.37746602174380
H         5.20215083065047   -0.69041358226826    2.17076298717858
H         7.51388099676192   -0.74500092185235   -0.75665736449466
H         7.88422107580629   -0.28321273721414    0.89888077274549
H         6.88523619116801   -1.70123917466565    0.60029453160398
H         6.52977011067372    1.52937584258053   -1.26396919680015
H         5.40623672303628    2.27796887765695   -0.13263199709485
H         7.07846732040383    1.99370927460304    0.34902691758933
H         3.35482352211353    1.19676269517896    0.09881886683774
H        -0.90053025202183    1.66507349903803    0.07810163831225
H        -0.42257434811633    2.02885146263607   -2.26804697638479
H        -3.91747333946512    1.77262728632404    0.17042245469620
H        -3.93710659673473    3.27058336236716   -1.53464283528468
H        -4.59919193833994    4.85859833763045   -1.89822442807847
H        -2.99303992363565    4.71845082825715   -1.18111100471061
H        -6.66965119940716    4.24383446050937   -0.47507964077997
H        -5.93859773035277    2.68080074573759   -0.12453517166796
H        -6.43962989238553    3.73232867506555    1.20018656762240
H        -5.26868713834958    5.97376349540726    1.54747973190685
H        -3.85392776055212    6.38790290941900    0.56099160908350
H        -5.45514184879536    6.33222408874927   -0.16485013706218
H        -3.30130407669272    5.31572667918222    2.48912882291641
H        -1.90648635475418    4.05852949988993    4.02962357500487
H        -1.49470645696743    1.64303607408096    3.66833415219985

          :  Hamiltonian                  GFN2-xTB          :
         :: total energy            -143.149338257315 Eh    ::
         :: gradient norm              0.000514868753 Eh/a0 ::
         :: HOMO-LUMO gap              2.777029221205 eV    ::
         :: SCC energy              -145.467183942978 Eh    ::
         :: -> dispersion             -0.137103844948 Eh    ::
         :: repulsion energy           2.312912954498 Eh    ::

    * Orbital Energies and Occupations

         #    Occupation            Energy/Eh            Energy/eV
      -------------------------------------------------------------
         1        2.0000           -0.7481929             -20.3594
       ...           ...                  ...                  ...
       119        2.0000           -0.4168380             -11.3427
       120        2.0000           -0.4147836             -11.2868
       121        2.0000           -0.4139527             -11.2642
       122        2.0000           -0.4129521             -11.2370
       123        2.0000           -0.4121125             -11.2142
       124        2.0000           -0.4103979             -11.1675
       125        2.0000           -0.4064400             -11.0598
       126        2.0000           -0.3996270             -10.8744
       127        2.0000           -0.3992193             -10.8633
       128        2.0000           -0.3964895             -10.7890
       129        2.0000           -0.3922325             -10.6732
       130        2.0000           -0.3890325             -10.5861
       131        2.0000           -0.3774538             -10.2710 (HOMO)
       132                         -0.2753999              -7.4940 (LUMO)
       133                         -0.2599587              -7.0738
       134                         -0.2594323              -7.0595
       135                         -0.2465387              -6.7087
       136                         -0.2431347              -6.6160
       137                         -0.2411636              -6.5624
       138                         -0.2401671              -6.5353
       139                         -0.2283570              -6.2139
       140                         -0.2261591              -6.1541
       141                         -0.2250456              -6.1238
       142                         -0.2040147              -5.5515
       ...                                ...                  ...
       252                          0.6975881              18.9823
      -------------------------------------------------------------
                  HL-Gap            0.1020539 Eh            2.7770 eV

     #   Z          covCN         q      C6AA      Î±(0)
     1   6 C        2.921    -0.032    28.803     8.801
     2   6 C        2.917    -0.031    28.772     8.796
     3   6 C        2.988     0.016    27.637     8.624
     4   6 C        2.918    -0.033    28.823     8.804
     5   6 C        2.916    -0.029    28.715     8.787
     6   6 C        2.916    -0.028    28.709     8.786
     7   6 C        2.919    -0.032    28.795     8.800
     8   6 C        2.987     0.018    27.597     8.617
     9   6 C        2.922    -0.036    28.887     8.814
    10   6 C        2.969     0.001    28.009     8.681
    11   6 C        3.841     0.041    19.866     6.341
    12   6 C        3.820     0.035    19.968     6.359
    13   6 C        2.969    -0.005    28.146     8.702
    14   6 C        2.924    -0.041    29.024     8.835
    15   6 C        2.987     0.015    27.660     8.627
    16   6 C        2.918    -0.034    28.843     8.807
    17   6 C        2.916    -0.028    28.710     8.787
    18   6 C        2.916    -0.029    28.716     8.787
    19   6 C        2.918    -0.033    28.817     8.803
    20   6 C        2.988     0.015    27.668     8.628
    21   6 C        2.917    -0.032    28.798     8.800
    22   6 C        2.919    -0.031    28.772     8.796
    23   7 N        2.765    -0.114    23.490     7.198
    24   6 C        2.765     0.269    22.452     7.760
    25   6 C        2.977    -0.015    28.369     8.737
    26   6 C        2.921    -0.033    28.816     8.803
    27   6 C        2.920    -0.029    28.719     8.788
    28   6 C        2.926    -0.036    28.890     8.815
    29   6 C        2.973     0.016    27.655     8.626
    30   6 C        3.903     0.026    20.082     6.370
    31   6 C        3.762    -0.107    22.582     6.774
    32   6 C        3.761    -0.110    22.642     6.783
    33   6 C        3.762    -0.107    22.593     6.775
    34   6 C        2.933    -0.026    28.662     8.780
    35   8 O        0.860    -0.464    23.007     6.431
    36   6 C        3.764     0.083    19.237     6.252
    37   6 C        2.684     0.355    20.980     7.496
    38   8 O        1.654    -0.373    20.327     6.086
    39   8 O        0.856    -0.371    21.115     6.161
    40   7 N        2.768    -0.112    23.435     7.190
    41   6 C        2.763     0.273    22.385     7.748
    42   6 C        2.976    -0.024    28.591     8.771
    43   6 C        2.930    -0.041    29.012     8.833
    44   6 C        2.973     0.014    27.685     8.631
    45   6 C        3.903     0.026    20.086     6.371
    46   6 C        3.762    -0.108    22.617     6.779
    47   6 C        3.762    -0.107    22.599     6.777
    48   6 C        3.761    -0.108    22.617     6.780
    49   6 C        2.925    -0.038    28.933     8.821
    50   6 C        2.919    -0.031    28.779     8.797
    51   6 C        2.922    -0.029    28.730     8.790
    52   8 O        0.859    -0.423    22.136     6.308
    53   1 H        0.926     0.048     2.339     2.392
    54   1 H        0.926     0.040     2.454     2.450
    55   1 H        0.926     0.034     2.530     2.488
    56   1 H        0.926     0.032     2.559     2.501
    57   1 H        0.926     0.032     2.556     2.500
    58   1 H        0.926     0.031     2.575     2.509
    59   1 H        0.925     0.021     2.722     2.580
    60   1 H        0.924     0.080     1.981     2.201
    61   1 H        0.924     0.057     2.237     2.339
    62   1 H        0.926     0.031     2.570     2.507
    63   1 H        0.926     0.033     2.537     2.491
    64   1 H        0.926     0.034     2.523     2.484
    65   1 H        0.926     0.036     2.508     2.477
    66   1 H        0.926     0.037     2.486     2.466
    67   1 H        0.926     0.040     2.446     2.446
    68   1 H        0.926     0.029     2.597     2.520
    69   1 H        0.926     0.030     2.584     2.514
    70   1 H        0.926     0.039     2.464     2.455
    71   1 H        0.926     0.047     2.362     2.403
    72   1 H        0.925     0.034     2.523     2.484
    73   1 H        0.925     0.041     2.435     2.440
    74   1 H        0.925     0.035     2.516     2.481
    75   1 H        0.925     0.039     2.464     2.455
    76   1 H        0.925     0.041     2.436     2.441
    77   1 H        0.925     0.036     2.499     2.472
    78   1 H        0.925     0.037     2.489     2.467
    79   1 H        0.925     0.041     2.436     2.441
    80   1 H        0.925     0.042     2.422     2.433
    81   1 H        0.926     0.040     2.443     2.444
    82   1 H        0.923     0.059     2.211     2.325
    83   1 H        0.799     0.365     0.555     1.171
    84   1 H        0.926     0.051     2.313     2.378
    85   1 H        0.925     0.047     2.352     2.398
    86   1 H        0.925     0.041     2.429     2.437
    87   1 H        0.925     0.031     2.578     2.511
    88   1 H        0.925     0.040     2.444     2.445
    89   1 H        0.925     0.044     2.394     2.419
    90   1 H        0.925     0.034     2.529     2.487
    91   1 H        0.925     0.036     2.502     2.473
    92   1 H        0.925     0.036     2.509     2.477
    93   1 H        0.925     0.039     2.463     2.454
    94   1 H        0.926     0.043     2.412     2.429
    95   1 H        0.926     0.034     2.526     2.486
    96   1 H        0.926     0.036     2.504     2.474

Wiberg/Mayer (AO) data.
largest (>0.10) Wiberg bond orders for each atom

     #   Z sym  total        # sym  WBO       # sym  WBO       # sym  WBO
 ---------------------------------------------------------------------------
     1   6 C    3.989 --     2 C    1.565    10 C    1.292    53 H    0.967
     2   6 C    3.991 --     1 C    1.565     3 C    1.276    54 H    0.967
                             9 C    0.114
     3   6 C    3.990 --     4 C    1.282     2 C    1.276     8 C    1.251
     4   6 C    3.992 --     5 C    1.556     3 C    1.282    55 H    0.968
                             7 C    0.118
     5   6 C    3.990 --     4 C    1.556     6 C    1.321    56 H    0.971
     6   6 C    3.992 --     7 C    1.557     5 C    1.321    57 H    0.971
     7   6 C    3.990 --     6 C    1.557     8 C    1.280    58 H    0.968
                             4 C    0.118
     8   6 C    3.990 --     7 C    1.280     9 C    1.279     3 C    1.251
     9   6 C    3.990 --    10 C    1.530     8 C    1.279    59 H    0.963
                             2 C    0.114
    10   6 C    3.983 --     9 C    1.530     1 C    1.292    11 C    0.983
    11   6 C    3.958 --    10 C    0.983    12 C    0.961    40 N    0.954
                            60 H    0.950
    12   6 C    3.961 --    13 C    0.988    11 C    0.961    23 N    0.954
                            61 H    0.951
    13   6 C    3.985 --    14 C    1.523    22 C    1.295    12 C    0.988
    14   6 C    3.990 --    13 C    1.523    15 C    1.284    62 H    0.965
                            21 C    0.114
    15   6 C    3.990 --    14 C    1.284    16 C    1.277    20 C    1.250
    16   6 C    3.989 --    17 C    1.559    15 C    1.277    63 H    0.968
                            19 C    0.118
    17   6 C    3.992 --    16 C    1.559    18 C    1.320    64 H    0.971
    18   6 C    3.989 --    19 C    1.556    17 C    1.320    65 H    0.971
    19   6 C    3.992 --    18 C    1.556    20 C    1.279    66 H    0.968
                            16 C    0.118
    20   6 C    3.989 --    19 C    1.279    21 C    1.277    15 C    1.250
    21   6 C    3.991 --    22 C    1.563    20 C    1.277    67 H    0.968
                            14 C    0.114
    22   6 C    3.992 --    21 C    1.563    13 C    1.295    68 H    0.967
    23   7 N    3.496 --    24 C    1.274    36 C    0.955    12 C    0.954
                            35 O    0.184
    24   6 C    3.939 --    35 O    1.586    23 N    1.274    25 C    0.976
    25   6 C    3.985 --    34 C    1.414    26 C    1.390    24 C    0.976
                            28 C    0.105
    26   6 C    3.990 --    27 C    1.448    25 C    1.390    69 H    0.969
                            29 C    0.108
    27   6 C    3.991 --    26 C    1.448    28 C    1.434    70 H    0.970
                            34 C    0.108
    28   6 C    3.991 --    27 C    1.434    29 C    1.417    71 H    0.965
                            25 C    0.105
    29   6 C    3.985 --    28 C    1.417    34 C    1.405    30 C    0.985
                            26 C    0.108
    30   6 C    3.991 --    32 C    1.000    31 C    0.988    29 C    0.985
                            33 C    0.984
    31   6 C    3.995 --    30 C    0.988    73 H    0.984    74 H    0.983
                            72 H    0.983
    32   6 C    3.996 --    30 C    1.000    77 H    0.985    75 H    0.984
                            76 H    0.984
    33   6 C    3.995 --    78 H    0.987    30 C    0.984    79 H    0.984
                            80 H    0.984
    34   6 C    3.989 --    25 C    1.414    29 C    1.405    81 H    0.963
                            27 C    0.108
    35   8 O    2.010 --    24 C    1.586    23 N    0.184
    36   6 C    3.960 --    40 N    1.008    23 N    0.955    82 H    0.936
                            37 C    0.892
    37   6 C    3.931 --    39 O    1.771    38 O    1.208    36 C    0.892
    38   8 O    2.236 --    37 C    1.208    83 H    0.757    39 O    0.184
    39   8 O    2.075 --    37 C    1.771    38 O    0.184
    40   7 N    3.462 --    41 C    1.187    36 C    1.008    11 C    0.954
                            52 O    0.183
    41   6 C    3.941 --    52 O    1.694    40 N    1.187    42 C    0.972
    42   6 C    3.986 --    43 C    1.411    51 C    1.392    41 C    0.972
                            49 C    0.104
    43   6 C    3.989 --    42 C    1.411    44 C    1.407    84 H    0.960
                            50 C    0.109
    44   6 C    3.985 --    49 C    1.416    43 C    1.407    45 C    0.985
                            51 C    0.108
    45   6 C    3.991 --    48 C    1.000    47 C    0.986    46 C    0.986
                            44 C    0.985
    46   6 C    3.995 --    87 H    0.987    45 C    0.986    86 H    0.984
                            85 H    0.982
    47   6 C    3.995 --    90 H    0.987    45 C    0.986    88 H    0.984
                            89 H    0.983
    48   6 C    3.996 --    45 C    1.000    92 H    0.985    91 H    0.985
                            93 H    0.984
    49   6 C    3.991 --    50 C    1.435    44 C    1.416    94 H    0.965
                            42 C    0.104
    50   6 C    3.991 --    51 C    1.448    49 C    1.435    95 H    0.970
                            43 C    0.109
    51   6 C    3.990 --    50 C    1.448    42 C    1.392    96 H    0.970
                            44 C    0.108
    52   8 O    2.020 --    41 C    1.694    40 N    0.183
    53   1 H    0.997 --     1 C    0.967
    54   1 H    0.997 --     2 C    0.967
    55   1 H    0.998 --     4 C    0.968
    56   1 H    0.999 --     5 C    0.971
    57   1 H    0.999 --     6 C    0.971
    58   1 H    0.999 --     7 C    0.968
    59   1 H    0.999 --     9 C    0.963
    60   1 H    0.992 --    11 C    0.950
    61   1 H    0.996 --    12 C    0.951
    62   1 H    0.999 --    14 C    0.965
    63   1 H    0.998 --    16 C    0.968
    64   1 H    0.998 --    17 C    0.971
    65   1 H    0.998 --    18 C    0.971
    66   1 H    0.998 --    19 C    0.968
    67   1 H    0.998 --    21 C    0.968
    68   1 H    0.999 --    22 C    0.967
    69   1 H    0.998 --    26 C    0.969
    70   1 H    0.997 --    27 C    0.970
    71   1 H    0.997 --    28 C    0.965
    72   1 H    0.999 --    31 C    0.983
    73   1 H    0.997 --    31 C    0.984
    74   1 H    0.999 --    31 C    0.983
    75   1 H    0.998 --    32 C    0.984
    76   1 H    0.998 --    32 C    0.984
    77   1 H    0.999 --    32 C    0.985
    78   1 H    0.999 --    33 C    0.987
    79   1 H    0.998 --    33 C    0.984
    80   1 H    0.997 --    33 C    0.984
    81   1 H    0.998 --    34 C    0.963
    82   1 H    0.996 --    36 C    0.936
    83   1 H    0.867 --    38 O    0.757
    84   1 H    0.997 --    43 C    0.960
    85   1 H    0.998 --    46 C    0.982
    86   1 H    0.997 --    46 C    0.984
    87   1 H    0.999 --    46 C    0.987
    88   1 H    0.997 --    47 C    0.984
    89   1 H    0.998 --    47 C    0.983
    90   1 H    0.999 --    47 C    0.987
    91   1 H    0.999 --    48 C    0.985
    92   1 H    0.999 --    48 C    0.985
    93   1 H    0.998 --    48 C    0.984
    94   1 H    0.998 --    49 C    0.965
    95   1 H    0.998 --    50 C    0.970
    96   1 H    0.998 --    51 C    0.970
 ---------------------------------------------------------------------------

molecular dipole:
                 x           y           z       tot (Debye)
 q only:        2.145      -0.662       0.216
   full:        2.471      -0.517       0.326       6.470

           -------------------------------------------------
          | TOTAL ENERGY             -143.149338257315 Eh   |
          | GRADIENT NORM               0.000514868753 Eh/Î± |
          | HOMO-LUMO GAP               2.777029221205 eV   |
           -------------------------------------------------

 * finished run on 2022/03/16 at 22:52:22.935
