   * xtb version 6.3.3 (4ae9cef) compiled by 'conda@95abc7406d43' on 2020-10-14
          program call               : xtb sub_0.xyz --opt --chrg 0 --uhf 0 --gfn 2
          number of atoms            :                    25
          number of electrons        :                    72
          charge                     :                     0
          spin                       :                   0.0

   ID    Z sym.   atoms
    1    6 C      1-4, 6, 8-15
    2    7 N      5, 7
    3    1 H      16-25

          :  Hamiltonian                  GFN2-xTB          :
 * total energy  :   -38.7764705 Eh     change       -0.1999297E-08 Eh
 * total energy  :   -38.7830875 Eh     change       -0.6617046E-02 Eh
 * total energy  :   -38.7843665 Eh     change       -0.1279037E-02 Eh
 * total energy  :   -38.7844988 Eh     change       -0.1322226E-03 Eh
 * total energy  :   -38.7846012 Eh     change       -0.1024329E-03 Eh
 * total energy  :   -38.7846535 Eh     change       -0.5231074E-04 Eh
 * total energy  :   -38.7847044 Eh     change       -0.5091921E-04 Eh
 * total energy  :   -38.7847447 Eh     change       -0.4028251E-04 Eh
 * total energy  :   -38.7847794 Eh     change       -0.3469827E-04 Eh
 * total energy  :   -38.7848004 Eh     change       -0.2094995E-04 Eh
 * total energy  :   -38.7848197 Eh     change       -0.1936969E-04 Eh
 * total energy  :   -38.7848385 Eh     change       -0.1879747E-04 Eh
 * total energy  :   -38.7848539 Eh     change       -0.1534604E-04 Eh
 * total energy  :   -38.7848648 Eh     change       -0.1096184E-04 Eh
 * total energy  :   -38.7848729 Eh     change       -0.8113231E-05 Eh
 * total energy  :   -38.7848798 Eh     change       -0.6860132E-05 Eh
 * total energy  :   -38.7848853 Eh     change       -0.5473854E-05 Eh
 * total energy  :   -38.7848906 Eh     change       -0.5330073E-05 Eh
 * total energy  :   -38.7848944 Eh     change       -0.3774304E-05 Eh
   *** GEOMETRY OPTIMIZATION CONVERGED AFTER 19 ITERATIONS ***

 final structure:
================
25
 xtb: 6.3.3 (4ae9cef)
C        -1.07930786065942   -0.02503634144194   -0.12583970339792
C        -2.11446360278399   -0.73523555628622   -0.78267827534644
C        -1.48583733361665   -1.60173878975871   -1.72599709213561
C        -0.15130213537435   -1.39706086079891   -1.62528505186998
N         0.12225518465474   -0.46474819947027   -0.64597773416896
C         1.41652369348841   -0.11547252273818   -0.28887691276303
N         2.32489664367503   -0.23758471065554   -1.25267448295916
C         3.58036338955220    0.06565692729411   -0.98410696768130
C         4.01017053799138    0.51216758140991    0.25448314955629
C         3.06930265391062    0.60809860045973    1.27064785366772
C         1.75245171369442    0.28335367214893    1.00813076252998
C        -3.44588553398115   -0.49070714253605   -0.45724177084715
C        -3.72797467596972    0.46585484770821    0.49283520538021
C        -2.70603667750341    1.19701210186804    1.09802889927236
C        -1.37789803609615    0.97066601016227    0.79567751288920
H        -1.98231967371021   -2.28251037798603   -2.38835171906899
H         0.66388313848982   -1.84628012473225   -2.15680602300569
H         4.26989691039421   -0.05729403226207   -1.80925981297969
H         5.04557828733766    0.75915648374500    0.42551119653172
H         3.36268052675959    0.91916660787112    2.26295217610081
H         1.01173705703526    0.29829916901861    1.78975251075040
H        -4.23544161485731   -1.03792745753469   -0.94998777594418
H        -4.75310452943343    0.66978324881571    0.76466873691148
H        -2.95967953026406    1.96367336703804    1.81525238355535
H        -0.61048853273351    1.57870849866131    1.24861393502235

          :  Hamiltonian                  GFN2-xTB          :
         :: total energy             -38.784894383235 Eh    ::
         :: gradient norm              0.000513231430 Eh/a0 ::
         :: HOMO-LUMO gap              3.009449629600 eV    ::
         :: SCC energy               -39.486937851184 Eh    ::
         :: -> dispersion             -0.026865457688 Eh    ::
         :: repulsion energy           0.702059217386 Eh    ::

    * Orbital Energies and Occupations

         #    Occupation            Energy/Eh            Energy/eV
      -------------------------------------------------------------
         1        2.0000           -0.6782338             -18.4557
       ...           ...                  ...                  ...
        24        2.0000           -0.4762588             -12.9597
        25        2.0000           -0.4649949             -12.6532
        26        2.0000           -0.4597355             -12.5100
        27        2.0000           -0.4571892             -12.4408
        28        2.0000           -0.4518783             -12.2962
        29        2.0000           -0.4418839             -12.0243
        30        2.0000           -0.4295002             -11.6873
        31        2.0000           -0.4285981             -11.6627
        32        2.0000           -0.4169094             -11.3447
        33        2.0000           -0.4133365             -11.2475
        34        2.0000           -0.3821054             -10.3976
        35        2.0000           -0.3782295             -10.2921
        36        2.0000           -0.3661413              -9.9632 (HOMO)
        37                         -0.2555460              -6.9538 (LUMO)
        38                         -0.2463394              -6.7032
        39                         -0.2282361              -6.2106
        40                         -0.1949645              -5.3053
        41                         -0.1568636              -4.2685
        42                         -0.1094767              -2.9790
        43                         -0.0710620              -1.9337
        44                          0.0219907               0.5984
        45                          0.1056313               2.8744
        46                          0.1187826               3.2322
        47                          0.1257500               3.4218
       ...                                ...                  ...
        70                          0.7326686              19.9369
      -------------------------------------------------------------
                  HL-Gap            0.1105952 Eh            3.0094 eV

     #   Z          covCN         q      C6AA      Î±(0)
     1   6 C        3.077     0.037    27.084     8.532
     2   6 C        3.115    -0.007    28.025     8.672
     3   6 C        3.000    -0.068    29.673     8.936
     4   6 C        3.036     0.001    27.961     8.673
     5   7 N        2.832    -0.018    21.597     6.902
     6   6 C        2.903     0.148    24.789     8.164
     7   7 N        1.847    -0.244    27.214     7.732
     8   6 C        2.906     0.062    26.612     8.459
     9   6 C        2.913    -0.047    29.178     8.858
    10   6 C        2.929    -0.012    28.303     8.725
    11   6 C        2.916    -0.057    29.425     8.895
    12   6 C        2.912    -0.036    28.890     8.814
    13   6 C        2.920    -0.039    28.966     8.826
    14   6 C        2.924    -0.037    28.922     8.819
    15   6 C        2.909    -0.049    29.214     8.863
    16   1 H        0.926     0.035     2.513     2.479
    17   1 H        0.926     0.054     2.266     2.354
    18   1 H        0.925     0.041     2.432     2.439
    19   1 H        0.926     0.037     2.487     2.466
    20   1 H        0.926     0.038     2.479     2.462
    21   1 H        0.926     0.045     2.383     2.414
    22   1 H        0.926     0.031     2.570     2.507
    23   1 H        0.926     0.028     2.613     2.528
    24   1 H        0.926     0.028     2.611     2.527
    25   1 H        0.926     0.027     2.634     2.538

Wiberg/Mayer (AO) data.
largest (>0.10) Wiberg bond orders for each atom

     #   Z sym  total        # sym  WBO       # sym  WBO       # sym  WBO
 ---------------------------------------------------------------------------
     1   6 C    3.955 --    15 C    1.358     2 C    1.255     5 N    1.123
     2   6 C    3.982 --    12 C    1.344     1 C    1.255     3 C    1.200
     3   6 C    3.972 --     4 C    1.647     2 C    1.200    16 H    0.972
     4   6 C    3.952 --     3 C    1.647     5 N    1.148    17 H    0.966
     5   7 N    3.626 --     4 C    1.148     1 C    1.123     6 C    1.084
     6   6 C    3.970 --     7 N    1.370    11 C    1.342     5 N    1.084
     7   7 N    3.055 --     8 C    1.442     6 C    1.370
     8   6 C    3.981 --     7 N    1.442     9 C    1.428    18 H    0.963
                            11 C    0.111
     9   6 C    3.974 --     8 C    1.428    10 C    1.421    19 H    0.971
    10   6 C    3.989 --    11 C    1.468     9 C    1.421    20 H    0.970
    11   6 C    3.987 --    10 C    1.468     6 C    1.342    21 H    0.964
                             8 C    0.111
    12   6 C    3.990 --    13 C    1.491     2 C    1.344    22 H    0.969
                            15 C    0.110
    13   6 C    3.985 --    12 C    1.491    14 C    1.385    23 H    0.972
    14   6 C    3.989 --    15 C    1.476    13 C    1.385    24 H    0.972
    15   6 C    3.987 --    14 C    1.476     1 C    1.358    25 H    0.964
                            12 C    0.110
    16   1 H    0.998 --     3 C    0.972
    17   1 H    0.996 --     4 C    0.966
    18   1 H    0.998 --     8 C    0.963
    19   1 H    0.999 --     9 C    0.971
    20   1 H    0.998 --    10 C    0.970
    21   1 H    0.998 --    11 C    0.964
    22   1 H    0.999 --    12 C    0.969
    23   1 H    0.999 --    13 C    0.972
    24   1 H    0.999 --    14 C    0.972
    25   1 H    0.999 --    15 C    0.964
 ---------------------------------------------------------------------------

molecular dipole:
                 x           y           z       tot (Debye)
 q only:        0.345       0.003       0.272
   full:        0.587       0.155       0.632       2.228

           -------------------------------------------------
          | TOTAL ENERGY              -38.784894383235 Eh   |
          | GRADIENT NORM               0.000513231430 Eh/Î± |
          | HOMO-LUMO GAP               3.009449629600 eV   |
           -------------------------------------------------

 * finished run on 2022/03/17 at 02:19:58.935
