   * xtb version 6.3.3 (4ae9cef) compiled by 'conda@95abc7406d43' on 2020-10-14
          program call               : xtb acid_26.xyz --opt --chrg 0 --uhf 0 --gfn 2
          number of atoms            :                    78
          number of electrons        :                   242
          charge                     :                     0
          spin                       :                   0.0

   ID    Z sym.   atoms
    1    6 C      1-22, 24-26, 28-33, 35, 36, 40-42, 44-49
    2    7 N      23, 39
    3   16 S      27, 43
    4    8 O      34, 37, 38, 50
    5    1 H      51-78

          :  Hamiltonian                  GFN2-xTB          :
 * total energy  :  -132.8597206 Eh     change       -0.1651699E-08 Eh
 * total energy  :  -132.8778713 Eh     change       -0.1815072E-01 Eh
 * total energy  :  -132.8830967 Eh     change       -0.5225382E-02 Eh
 * total energy  :  -132.8848028 Eh     change       -0.1706088E-02 Eh
 * total energy  :  -132.8860991 Eh     change       -0.1296329E-02 Eh
 * total energy  :  -132.8866051 Eh     change       -0.5060572E-03 Eh
 * total energy  :  -132.8869074 Eh     change       -0.3022343E-03 Eh
 * total energy  :  -132.8871452 Eh     change       -0.2378529E-03 Eh
 * total energy  :  -132.8873608 Eh     change       -0.2155474E-03 Eh
 * total energy  :  -132.8875884 Eh     change       -0.2276635E-03 Eh
 * total energy  :  -132.8894506 Eh     change       -0.8446689E-05 Eh
 * total energy  :  -132.8894580 Eh     change       -0.7419046E-05 Eh
 * total energy  :  -132.8894653 Eh     change       -0.7252292E-05 Eh
 * total energy  :  -132.8894719 Eh     change       -0.6661077E-05 Eh
 * total energy  :  -132.8894784 Eh     change       -0.6494465E-05 Eh
 * total energy  :  -132.8894852 Eh     change       -0.6762589E-05 Eh
 * total energy  :  -132.8894918 Eh     change       -0.6649501E-05 Eh
 * total energy  :  -132.8894973 Eh     change       -0.5441671E-05 Eh
 * total energy  :  -132.8895021 Eh     change       -0.4859566E-05 Eh
   *** GEOMETRY OPTIMIZATION CONVERGED AFTER 35 ITERATIONS ***

 final structure:
================
78
 xtb: 6.3.3 (4ae9cef)
C        -2.98452749340667    0.96868850041272    0.82370250449550
C        -4.14308152502024    1.62144807832064    1.12805343490363
C        -4.55533235190345    2.74532294087987    0.38197694199732
C        -5.74840863756627    3.44047979792871    0.66651639549374
C        -6.11777591939534    4.52571405085425   -0.07783105540530
C        -5.31020787585275    4.96570079304423   -1.13846331668119
C        -4.14726730265330    4.31338122881493   -1.43814675615825
C        -3.73951512881988    3.18846302615124   -0.69140094220544
C        -2.55249998646185    2.48773801673790   -0.98440988483219
C        -2.17956010554127    1.39484546020016   -0.25051974382968
C        -0.90088798973480    0.66280630818883   -0.55141056121472
C         0.16495128281179    0.89043042240651    0.53596419425769
C         1.20881412677949    1.89443066728821    0.12699651626420
C         1.27602699648000    3.11785512890711    0.73675143662491
C         2.25132880457458    4.06349647371522    0.36217616391309
C         2.34274505444440    5.32831870708077    0.97952933798494
C         3.30958444091280    6.21887616809037    0.60572889761198
C         4.22788899056817    5.88729500293325   -0.40297577133087
C         4.16295681221172    4.67081560394814   -1.02274690042360
C         3.17738355103516    3.72990326706247   -0.66017350678069
C         3.07815243150309    2.46587844110955   -1.27864048717172
C         2.11686823143763    1.57301925691268   -0.90145608790131
N         0.73559257959805   -0.43525889568158    0.74821498384383
C         1.70818446754916   -0.64370745555844    1.67393411707878
C         2.18512313551501   -2.05900256453799    1.70297557793383
C         1.65654477811312   -3.06374923483850    2.43577249419489
S         2.42781139271236   -4.59180049723564    2.17698205337726
C         3.52417531480292   -3.87148255264992    1.03273900340680
C         3.27941086500099   -2.49310251362453    0.88554103256753
C         4.06626642534642   -1.74589823265202    0.00747369408689
C         5.05816349583289   -2.38044861342099   -0.70592793713593
C         5.28522212533914   -3.74938386848500   -0.55706854019402
C         4.52670709719354   -4.50539794108462    0.31314837255229
O         2.16023331901629    0.24336317040853    2.36007489522902
C         0.02570986985236   -1.47251477059899    0.04372197440680
C         0.90199355231865   -2.12686938423144   -1.04740994538345
O         1.01803880174982   -3.43760824882539   -0.85538398342798
O         1.39759993632232   -1.53685799085091   -1.96485810512807
N        -1.09261096104137   -0.78455181893595   -0.55401211731039
C        -1.99817383925789   -1.35702243963142   -1.40012975156063
C        -1.95052652533783   -2.84570773800708   -1.41467551604995
C        -1.70047852306669   -3.54557784733424   -2.54686962087806
S        -1.60234552492991   -5.25251716931161   -2.30409080399193
C        -1.94485185357934   -5.05460922430396   -0.60817047419999
C        -2.12802228132562   -3.69996173354011   -0.27562854709085
C        -2.45877744311251   -3.36844013289706    1.04052723149237
C        -2.55463450577355   -4.36513272175775    1.98554102839412
C        -2.33665441978726   -5.69983090319855    1.64417641797112
C        -2.04151908755701   -6.05695294064593    0.34536438583549
O        -2.76052786355028   -0.70287068693223   -2.07446127360905
H        -2.67497119306375    0.10985697956915    1.40289809493913
H        -4.76312365337082    1.28513541490953    1.94699082187312
H        -6.36706097758511    3.09761355879702    1.48384095407095
H        -7.03436729517971    5.05269567510903    0.14364451404093
H        -5.61825781486867    5.82479847724708   -1.71633136925129
H        -3.52305190550842    4.64684275405197   -2.25463817589186
H        -1.94011186270115    2.82304798555268   -1.80906539751365
H        -0.51840444575680    0.97907298840788   -1.53116352868497
H        -0.30563231088321    1.22353396081681    1.47123067815319
H         0.58194870218941    3.37194753762728    1.52519385263809
H         1.63470961761637    5.57763828580212    1.75682119912870
H         3.37580029781697    7.18509655815872    1.08433620680637
H         4.98688655852188    6.60290337990455   -0.68374069677838
H         4.86774409627012    4.41105743875318   -1.80003255993125
H         3.77919999424307    2.21387617908409   -2.06179116472057
H         2.04689463634208    0.61096754527895   -1.38813214332536
H         0.84174513345929   -3.01341232583277    3.13212401339547
H         3.89220136686426   -0.68538356962166   -0.09419041722836
H         5.67167947455983   -1.81343683192715   -1.38906733901793
H         6.06988577175043   -4.22290018635437   -1.12741926129014
H         4.70352210116974   -5.56222429703101    0.43821442807956
H        -0.30056017133328   -2.27034556971227    0.72771306641982
H         1.56852042970831   -3.85150387708953   -1.54141088185085
H        -1.53803481056929   -3.14609515697057   -3.52923317626380
H        -2.65338684376839   -2.33783900236296    1.29883144224681
H        -2.80619038282654   -4.11404628972358    3.00512642791954
H        -2.41177460706961   -6.46247257285134    2.40388346884136
H        -1.89110064038634   -7.08844043021323    0.06864548716580

          :  Hamiltonian                  GFN2-xTB          :
         :: total energy            -132.889502136641 Eh    ::
         :: gradient norm              0.000388347612 Eh/a0 ::
         :: HOMO-LUMO gap              2.715215591163 eV    ::
         :: SCC energy              -135.014723986636 Eh    ::
         :: -> dispersion             -0.124328931229 Eh    ::
         :: repulsion energy           2.121504810614 Eh    ::

    * Orbital Energies and Occupations

         #    Occupation            Energy/Eh            Energy/eV
      -------------------------------------------------------------
         1        2.0000           -0.7831345             -21.3102
       ...           ...                  ...                  ...
       109        2.0000           -0.4154226             -11.3042
       110        2.0000           -0.4145175             -11.2796
       111        2.0000           -0.4126315             -11.2283
       112        2.0000           -0.4121538             -11.2153
       113        2.0000           -0.4102192             -11.1626
       114        2.0000           -0.4073287             -11.0840
       115        2.0000           -0.4057643             -11.0414
       116        2.0000           -0.3979465             -10.8287
       117        2.0000           -0.3966615             -10.7937
       118        2.0000           -0.3935353             -10.7086
       119        2.0000           -0.3897675             -10.6061
       120        2.0000           -0.3812118             -10.3733
       121        2.0000           -0.3783181             -10.2946 (HOMO)
       122                         -0.2785358              -7.5793 (LUMO)
       123                         -0.2735372              -7.4433
       124                         -0.2661669              -7.2428
       125                         -0.2623540              -7.1390
       126                         -0.2598875              -7.0719
       127                         -0.2458809              -6.6908
       128                         -0.2411833              -6.5629
       129                         -0.2388933              -6.5006
       130                         -0.2339824              -6.3670
       131                         -0.2329381              -6.3386
       132                         -0.2291728              -6.2361
       ...                                ...                  ...
       238                          0.6970007              18.9664
      -------------------------------------------------------------
                  HL-Gap            0.0997823 Eh            2.7152 eV

     #   Z          covCN         q      C6AA      Î±(0)
     1   6 C        2.920    -0.031    28.770     8.796
     2   6 C        2.917    -0.033    28.822     8.804
     3   6 C        2.988     0.015    27.676     8.630
     4   6 C        2.918    -0.034    28.836     8.806
     5   6 C        2.916    -0.029    28.719     8.788
     6   6 C        2.916    -0.028    28.707     8.786
     7   6 C        2.919    -0.032    28.809     8.802
     8   6 C        2.987     0.018    27.595     8.617
     9   6 C        2.923    -0.034    28.840     8.807
    10   6 C        2.970     0.011    27.777     8.645
    11   6 C        3.825     0.048    19.752     6.324
    12   6 C        3.822     0.047    19.766     6.327
    13   6 C        2.970     0.007    27.865     8.659
    14   6 C        2.923    -0.034    28.858     8.809
    15   6 C        2.987     0.017    27.619     8.621
    16   6 C        2.918    -0.033    28.818     8.803
    17   6 C        2.916    -0.029    28.720     8.788
    18   6 C        2.916    -0.029    28.728     8.789
    19   6 C        2.918    -0.034    28.845     8.807
    20   6 C        2.987     0.014    27.692     8.632
    21   6 C        2.918    -0.033    28.832     8.805
    22   6 C        2.918    -0.038    28.943     8.822
    23   7 N        2.768    -0.116    23.516     7.202
    24   6 C        2.759     0.275    22.342     7.741
    25   6 C        3.128    -0.042    28.833     8.792
    26   6 C        2.935    -0.015    28.378     8.737
    27  16 S        2.249    -0.036   142.528    20.093
    28   6 C        3.006     0.031    27.303     8.571
    29   6 C        3.147     0.000    27.756     8.619
    30   6 C        2.915    -0.030    28.754     8.793
    31   6 C        2.919    -0.031    28.779     8.797
    32   6 C        2.923    -0.032    28.799     8.800
    33   6 C        2.932    -0.040    29.002     8.832
    34   8 O        0.859    -0.406    21.803     6.260
    35   6 C        3.752     0.091    19.130     6.237
    36   6 C        2.688     0.350    21.054     7.509
    37   8 O        1.659    -0.368    20.244     6.074
    38   8 O        0.856    -0.379    21.271     6.183
    39   7 N        2.766    -0.118    23.567     7.210
    40   6 C        2.761     0.275    22.353     7.742
    41   6 C        3.125    -0.043    28.876     8.799
    42   6 C        2.938    -0.008    28.229     8.714
    43  16 S        2.248    -0.031   142.339    20.080
    44   6 C        3.008     0.034    27.224     8.559
    45   6 C        3.143    -0.001    27.796     8.627
    46   6 C        2.916    -0.036    28.892     8.814
    47   6 C        2.918    -0.032    28.796     8.800
    48   6 C        2.923    -0.029    28.727     8.789
    49   6 C        2.933    -0.035    28.863     8.811
    50   8 O        0.859    -0.407    21.822     6.263
    51   1 H        0.926     0.024     2.672     2.556
    52   1 H        0.926     0.036     2.497     2.471
    53   1 H        0.926     0.033     2.540     2.492
    54   1 H        0.926     0.033     2.549     2.497
    55   1 H        0.926     0.033     2.541     2.493
    56   1 H        0.926     0.036     2.509     2.477
    57   1 H        0.926     0.038     2.470     2.458
    58   1 H        0.923     0.059     2.213     2.327
    59   1 H        0.923     0.056     2.244     2.343
    60   1 H        0.926     0.036     2.505     2.475
    61   1 H        0.926     0.034     2.528     2.486
    62   1 H        0.926     0.032     2.557     2.500
    63   1 H        0.926     0.032     2.563     2.503
    64   1 H        0.926     0.033     2.547     2.496
    65   1 H        0.926     0.037     2.496     2.470
    66   1 H        0.926     0.049     2.337     2.391
    67   1 H        0.926     0.046     2.372     2.408
    68   1 H        0.926     0.045     2.386     2.416
    69   1 H        0.926     0.043     2.413     2.429
    70   1 H        0.926     0.042     2.428     2.437
    71   1 H        0.926     0.044     2.396     2.421
    72   1 H        0.923     0.065     2.139     2.287
    73   1 H        0.804     0.346     0.598     1.214
    74   1 H        0.926     0.058     2.225     2.332
    75   1 H        0.926     0.035     2.523     2.484
    76   1 H        0.926     0.040     2.454     2.450
    77   1 H        0.926     0.044     2.396     2.420
    78   1 H        0.926     0.047     2.354     2.399

Wiberg/Mayer (AO) data.
largest (>0.10) Wiberg bond orders for each atom

     #   Z sym  total        # sym  WBO       # sym  WBO       # sym  WBO
 ---------------------------------------------------------------------------
     1   6 C    3.991 --     2 C    1.566    10 C    1.292    51 H    0.967
     2   6 C    3.991 --     1 C    1.566     3 C    1.275    52 H    0.968
                             9 C    0.114
     3   6 C    3.990 --     4 C    1.283     2 C    1.275     8 C    1.251
     4   6 C    3.992 --     5 C    1.556     3 C    1.283    53 H    0.968
                             7 C    0.118
     5   6 C    3.990 --     4 C    1.556     6 C    1.321    54 H    0.971
     6   6 C    3.992 --     7 C    1.557     5 C    1.321    55 H    0.971
     7   6 C    3.990 --     6 C    1.557     8 C    1.279    56 H    0.968
                             4 C    0.118
     8   6 C    3.990 --     9 C    1.281     7 C    1.279     3 C    1.251
     9   6 C    3.989 --    10 C    1.528     8 C    1.281    57 H    0.965
                             2 C    0.114
    10   6 C    3.984 --     9 C    1.528     1 C    1.292    11 C    0.991
    11   6 C    3.956 --    10 C    0.991    12 C    0.956    58 H    0.953
                            39 N    0.950
    12   6 C    3.955 --    13 C    0.989    11 C    0.956    59 H    0.953
                            23 N    0.949
    13   6 C    3.984 --    14 C    1.528    22 C    1.293    12 C    0.989
    14   6 C    3.989 --    13 C    1.528    15 C    1.281    60 H    0.965
                            21 C    0.114
    15   6 C    3.990 --    14 C    1.281    16 C    1.279    20 C    1.251
    16   6 C    3.990 --    17 C    1.557    15 C    1.279    61 H    0.968
                            19 C    0.118
    17   6 C    3.992 --    16 C    1.557    18 C    1.321    62 H    0.971
    18   6 C    3.990 --    19 C    1.556    17 C    1.321    63 H    0.971
    19   6 C    3.992 --    18 C    1.556    20 C    1.282    64 H    0.968
                            16 C    0.118
    20   6 C    3.990 --    19 C    1.282    21 C    1.276    15 C    1.251
    21   6 C    3.992 --    22 C    1.565    20 C    1.276    65 H    0.968
                            14 C    0.114
    22   6 C    3.990 --    21 C    1.565    13 C    1.293    66 H    0.961
    23   7 N    3.462 --    24 C    1.205    35 C    0.987    12 C    0.949
                            34 O    0.194
    24   6 C    3.948 --    34 O    1.708    23 N    1.205    25 C    0.948
    25   6 C    3.983 --    26 C    1.653    29 C    1.154    24 C    0.948
                            27 S    0.100
    26   6 C    3.957 --    25 C    1.653    27 S    1.152    67 H    0.970
    27  16 S    2.557 --    26 C    1.152    28 C    1.107    25 C    0.100
    28   6 C    3.957 --    33 C    1.376    29 C    1.291    27 S    1.107
    29   6 C    3.987 --    30 C    1.333    28 C    1.291    25 C    1.154
    30   6 C    3.991 --    31 C    1.496    29 C    1.333    68 H    0.965
                            33 C    0.112
    31   6 C    3.992 --    30 C    1.496    32 C    1.383    69 H    0.970
    32   6 C    3.991 --    33 C    1.476    31 C    1.383    70 H    0.970
    33   6 C    3.990 --    32 C    1.476    28 C    1.376    71 H    0.968
                            30 C    0.112
    34   8 O    2.040 --    24 C    1.708    23 N    0.194
    35   6 C    3.971 --    23 N    0.987    39 N    0.986    72 H    0.938
                            36 C    0.905
    36   6 C    3.917 --    38 O    1.781    37 O    1.153    35 C    0.905
    37   8 O    2.217 --    36 C    1.153    73 H    0.853    38 O    0.182
    38   8 O    2.071 --    36 C    1.781    37 O    0.182
    39   7 N    3.447 --    40 C    1.187    35 C    0.986    11 C    0.950
                            50 O    0.186
    40   6 C    3.948 --    50 O    1.707    39 N    1.187    41 C    0.965
    41   6 C    3.982 --    42 C    1.637    45 C    1.155    40 C    0.965
    42   6 C    3.958 --    41 C    1.637    43 S    1.166    74 H    0.968
    43  16 S    2.564 --    42 C    1.166    44 C    1.103
    44   6 C    3.957 --    49 C    1.377    45 C    1.295    43 S    1.103
    45   6 C    3.987 --    46 C    1.329    44 C    1.295    41 C    1.155
    46   6 C    3.992 --    47 C    1.495    45 C    1.329    75 H    0.964
                            49 C    0.111
    47   6 C    3.991 --    46 C    1.495    48 C    1.382    76 H    0.970
    48   6 C    3.991 --    49 C    1.477    47 C    1.382    77 H    0.970
    49   6 C    3.990 --    48 C    1.477    44 C    1.377    78 H    0.968
                            46 C    0.111
    50   8 O    2.036 --    40 C    1.707    39 N    0.186
    51   1 H    0.999 --     1 C    0.967
    52   1 H    0.998 --     2 C    0.968
    53   1 H    0.998 --     4 C    0.968
    54   1 H    0.998 --     5 C    0.971
    55   1 H    0.998 --     6 C    0.971
    56   1 H    0.998 --     7 C    0.968
    57   1 H    0.998 --     9 C    0.965
    58   1 H    0.996 --    11 C    0.953
    59   1 H    0.996 --    12 C    0.953
    60   1 H    0.998 --    14 C    0.965
    61   1 H    0.998 --    16 C    0.968
    62   1 H    0.998 --    17 C    0.971
    63   1 H    0.999 --    18 C    0.971
    64   1 H    0.998 --    19 C    0.968
    65   1 H    0.998 --    21 C    0.968
    66   1 H    0.997 --    22 C    0.961
    67   1 H    0.997 --    26 C    0.970
    68   1 H    0.998 --    30 C    0.965
    69   1 H    0.997 --    31 C    0.970
    70   1 H    0.998 --    32 C    0.970
    71   1 H    0.997 --    33 C    0.968
    72   1 H    0.995 --    35 C    0.938
    73   1 H    0.879 --    37 O    0.853
    74   1 H    0.996 --    42 C    0.968
    75   1 H    0.999 --    46 C    0.964
    76   1 H    0.997 --    47 C    0.970
    77   1 H    0.998 --    48 C    0.970
    78   1 H    0.997 --    49 C    0.968
 ---------------------------------------------------------------------------

molecular dipole:
                 x           y           z       tot (Debye)
 q only:        0.133      -0.836       0.108
   full:        0.158      -0.887       0.127       2.312

           -------------------------------------------------
          | TOTAL ENERGY             -132.889502136641 Eh   |
          | GRADIENT NORM               0.000388347612 Eh/Î± |
          | HOMO-LUMO GAP               2.715215591163 eV   |
           -------------------------------------------------

 * finished run on 2022/03/16 at 23:06:48.773
