   * xtb version 6.3.3 (4ae9cef) compiled by 'conda@95abc7406d43' on 2020-10-14
          program call               : xtb acid_57.xyz --opt --chrg 0 --uhf 0 --gfn 2
          number of atoms            :                    66
          number of electrons        :                   218
          charge                     :                     0
          spin                       :                   0.0

   ID    Z sym.   atoms
    1    6 C      1-22, 24-26, 28, 29, 32, 33, 37-39, 41, 42
    2    7 N      23, 36
    3    9 F      27, 40
    4   16 S      30, 43
    5    8 O      31, 34, 35, 44
    6    1 H      45-66

          :  Hamiltonian                  GFN2-xTB          :
 * total energy  :  -122.0686342 Eh     change       -0.4319020E-08 Eh
 * total energy  :  -122.0946102 Eh     change       -0.2597602E-01 Eh
 * total energy  :  -122.1044119 Eh     change       -0.9801657E-02 Eh
 * total energy  :  -122.1073261 Eh     change       -0.2914239E-02 Eh
 * total energy  :  -122.1087824 Eh     change       -0.1456287E-02 Eh
 * total energy  :  -122.1096441 Eh     change       -0.8616732E-03 Eh
 * total energy  :  -122.1103356 Eh     change       -0.6915046E-03 Eh
 * total energy  :  -122.1110649 Eh     change       -0.7292981E-03 Eh
 * total energy  :  -122.1119454 Eh     change       -0.8805164E-03 Eh
 * total energy  :  -122.1129805 Eh     change       -0.1035116E-02 Eh
 * total energy  :  -122.1341267 Eh     change       -0.8083374E-05 Eh
 * total energy  :  -122.1341333 Eh     change       -0.6603237E-05 Eh
 * total energy  :  -122.1341401 Eh     change       -0.6853551E-05 Eh
 * total energy  :  -122.1341472 Eh     change       -0.7043208E-05 Eh
 * total energy  :  -122.1341541 Eh     change       -0.6955226E-05 Eh
 * total energy  :  -122.1341612 Eh     change       -0.7065131E-05 Eh
 * total energy  :  -122.1341682 Eh     change       -0.7041933E-05 Eh
 * total energy  :  -122.1341744 Eh     change       -0.6213651E-05 Eh
 * total energy  :  -122.1341792 Eh     change       -0.4753767E-05 Eh
   *** GEOMETRY OPTIMIZATION CONVERGED AFTER 104 ITERATIONS ***

 final structure:
================
66
 xtb: 6.3.3 (4ae9cef)
C        -3.62457746057815   -3.53809188694708   -0.20899884207656
C        -2.97511259883547   -4.35584575695839    0.66993082322543
C        -1.75908877221094   -3.94391693628487    1.23256379038460
C        -1.22413826126535   -2.72452886496567    0.92404790009587
C        -1.87459690322357   -1.84327207299539    0.03118453883750
C        -3.09639756302049   -2.27676917910429   -0.55651855305767
C        -3.76647768645211   -1.44612329103800   -1.47760894023386
C        -3.25054389535539   -0.22924600212631   -1.81937924141692
C        -2.06338614392499    0.21731974772152   -1.22813505113588
C        -1.38946340865002   -0.55006128937022   -0.30770346713762
C        -0.16129926567853    0.05148397267609    0.33940454713556
C         0.97781850936473    0.33427621898531   -0.66902442724108
C         2.28571370072299   -0.27063153083972   -0.20360485656049
C         3.26974718258813    0.51380620404910    0.33919443811409
C         4.46625844012433   -0.04266896990247    0.81278943814649
C         4.66571997950480   -1.39106569039037    0.75653292828693
C         3.68040300167526   -2.23754978488415    0.20709394186057
C         2.47403038122361   -1.67708163776231   -0.29491940240907
C         1.51878884706528   -2.55158795595328   -0.85809114021761
C         1.73287111990994   -3.90164992894180   -0.89671435939827
C         2.91542739847554   -4.45225725757908   -0.38339471470955
C         3.87064686543327   -3.63408747626007    0.14923250704401
N         1.04386492544816    1.78223892377116   -0.75309644483002
C         1.54168739843747    2.36615975553396   -1.87478584353236
C         1.71131411293205    3.83767160614278   -1.79045960668607
C         1.29504566508015    4.79084185464205   -2.67834652897588
F         0.51674692901673    4.52816911227062   -3.72815735470474
C         1.71563368821653    6.10341589863878   -2.36663712258588
C         2.48692098715022    6.12578623359063   -1.25093843198246
S         2.69265255166261    4.56634107693273   -0.56589943856179
O         1.88190122990211    1.72583488232682   -2.84383204409149
C         0.36167044894755    2.42416413477767    0.33758839961505
C        -0.54676301691058    3.58461032209239   -0.13619629172435
O        -0.23029514944964    4.73332363606534    0.45038438661623
O        -1.35765110252402    3.46413511314697   -1.01167612467649
N        -0.46600210624817    1.36783909533823    0.88752893100198
C        -1.59690677114286    1.72788142985492    1.53114547841901
C        -2.42709906796293    0.62751109268912    2.05902258454689
C        -2.07343543264630   -0.40644648257861    2.88217366052323
F        -0.81867679918656   -0.59434188148736    3.32063173215511
C        -3.13638082649587   -1.25525054994174    3.24767990443889
C        -4.30341902926364   -0.84355592446625    2.68808912326868
S        -4.12223240161705    0.57917474391495    1.74649553021857
O        -1.88727667218737    2.90358781274932    1.67810900630061
H        -4.55633106611120   -3.84522340317697   -0.66186576833340
H        -3.38478625579590   -5.32064153521288    0.92943169325147
H        -1.23904498102996   -4.60025527184142    1.91449598605995
H        -0.27921619709234   -2.45180120447512    1.36691690871474
H        -4.69325764343331   -1.79484965772890   -1.90926179782011
H        -3.75293456646145    0.40647287292533   -2.53150422146888
H        -1.69725116019041    1.19960468366956   -1.48742989543820
H         0.22304149753430   -0.58206874725525    1.14284729722361
H         0.73738099462592   -0.04192057985067   -1.66982615122808
H         3.14120065219081    1.58433938916473    0.40334626741083
H         5.22029780907420    0.60954588666591    1.22708787762237
H         5.57909341131228   -1.83118227619833    1.12952034444666
H         0.60409232450685   -2.15610373392312   -1.26933111488733
H         0.98524115524106   -4.55161720756270   -1.32690966783865
H         3.06655475307373   -5.52095074903020   -0.42020356482690
H         4.79221156402846   -4.04375389183605    0.53750404369912
H         1.45433850134594    6.96095683090388   -2.95801706612988
H         2.95709890035092    6.96874815819905   -0.78640117926215
H         1.04889213128141    2.81086194230601    1.10977581993719
H        -0.87295213590930    5.42038166214826    0.21288843795758
H        -3.01754284278072   -2.11366708409640    3.88119968715944
H        -5.26976987384637   -1.29641960089549    2.77902670146654

          :  Hamiltonian                  GFN2-xTB          :
         :: total energy            -122.134179196813 Eh    ::
         :: gradient norm              0.000282539799 Eh/a0 ::
         :: HOMO-LUMO gap              2.725760254994 eV    ::
         :: SCC energy              -123.856487905424 Eh    ::
         :: -> dispersion             -0.112518630101 Eh    ::
         :: repulsion energy           1.718771601426 Eh    ::

    * Orbital Energies and Occupations

         #    Occupation            Energy/Eh            Energy/eV
      -------------------------------------------------------------
         1        2.0000           -0.8383254             -22.8120
       ...           ...                  ...                  ...
        97        2.0000           -0.4265303             -11.6065
        98        2.0000           -0.4248040             -11.5595
        99        2.0000           -0.4211984             -11.4614
       100        2.0000           -0.4203676             -11.4388
       101        2.0000           -0.4159338             -11.3181
       102        2.0000           -0.4151311             -11.2963
       103        2.0000           -0.4124629             -11.2237
       104        2.0000           -0.4117162             -11.2034
       105        2.0000           -0.4080323             -11.1031
       106        2.0000           -0.4070399             -11.0761
       107        2.0000           -0.4037597             -10.9869
       108        2.0000           -0.3887864             -10.5794
       109        2.0000           -0.3847889             -10.4706 (HOMO)
       110                         -0.2846190              -7.7449 (LUMO)
       111                         -0.2783860              -7.5753
       112                         -0.2735122              -7.4426
       113                         -0.2673560              -7.2751
       114                         -0.2507981              -6.8246
       115                         -0.2407584              -6.5514
       116                         -0.2386830              -6.4949
       117                         -0.2357597              -6.4153
       118                         -0.2347790              -6.3887
       119                         -0.2191999              -5.9647
       120                         -0.2164184              -5.8890
       ...                                ...                  ...
       208                          0.6861873              18.6721
      -------------------------------------------------------------
                  HL-Gap            0.1001698 Eh            2.7258 eV

     #   Z          covCN         q      C6AA      Î±(0)
     1   6 C        2.921    -0.035    28.870     8.811
     2   6 C        2.915    -0.030    28.759     8.794
     3   6 C        2.917    -0.029    28.723     8.788
     4   6 C        2.916    -0.036    28.905     8.816
     5   6 C        2.982     0.004    27.937     8.670
     6   6 C        2.988     0.012    27.730     8.638
     7   6 C        2.920    -0.035    28.881     8.813
     8   6 C        2.914    -0.026    28.664     8.779
     9   6 C        2.923    -0.036    28.906     8.817
    10   6 C        2.967    -0.015    28.383     8.739
    11   6 C        3.813     0.038    19.919     6.352
    12   6 C        3.826     0.043    19.832     6.337
    13   6 C        2.968    -0.004    28.120     8.698
    14   6 C        2.920    -0.033    28.811     8.802
    15   6 C        2.914    -0.029    28.718     8.788
    16   6 C        2.919    -0.035    28.870     8.811
    17   6 C        2.988     0.016    27.642     8.624
    18   6 C        2.985     0.008    27.842     8.655
    19   6 C        2.917    -0.036    28.903     8.816
    20   6 C        2.917    -0.027    28.680     8.782
    21   6 C        2.915    -0.028    28.707     8.786
    22   6 C        2.920    -0.033    28.831     8.805
    23   7 N        2.765    -0.112    23.453     7.193
    24   6 C        2.781     0.281    22.237     7.724
    25   6 C        2.983    -0.045    29.105     8.850
    26   6 C        3.008     0.169    24.350     8.095
    27   9 F        0.786    -0.196    11.197     3.953
    28   6 C        3.102    -0.063    29.430     8.890
    29   6 C        2.949    -0.022    28.556     8.765
    30  16 S        2.350     0.021   140.200    19.929
    31   8 O        0.859    -0.401    21.702     6.246
    32   6 C        3.760     0.096    19.036     6.220
    33   6 C        2.689     0.371    20.718     7.449
    34   8 O        1.659    -0.361    20.110     6.054
    35   8 O        0.856    -0.395    21.589     6.230
    36   7 N        2.769    -0.106    23.329     7.174
    37   6 C        2.794     0.282    22.234     7.724
    38   6 C        2.984    -0.038    28.942     8.825
    39   6 C        3.015     0.157    24.581     8.133
    40   9 F        0.785    -0.217    11.409     3.990
    41   6 C        3.095    -0.062    29.415     8.889
    42   6 C        2.955    -0.029    28.721     8.790
    43  16 S        2.351     0.074   138.070    19.777
    44   8 O        0.861    -0.425    22.177     6.314
    45   1 H        0.926     0.036     2.497     2.471
    46   1 H        0.926     0.035     2.521     2.483
    47   1 H        0.926     0.034     2.525     2.485
    48   1 H        0.926     0.033     2.538     2.491
    49   1 H        0.926     0.039     2.460     2.453
    50   1 H        0.926     0.046     2.365     2.405
    51   1 H        0.926     0.059     2.206     2.323
    52   1 H        0.924     0.066     2.132     2.283
    53   1 H        0.924     0.083     1.945     2.181
    54   1 H        0.926     0.030     2.583     2.513
    55   1 H        0.926     0.038     2.478     2.462
    56   1 H        0.926     0.038     2.472     2.459
    57   1 H        0.926     0.031     2.574     2.509
    58   1 H        0.926     0.033     2.548     2.496
    59   1 H        0.926     0.034     2.523     2.484
    60   1 H        0.926     0.036     2.499     2.472
    61   1 H        0.926     0.069     2.092     2.262
    62   1 H        0.926     0.069     2.097     2.265
    63   1 H        0.923     0.068     2.108     2.270
    64   1 H        0.804     0.347     0.595     1.211
    65   1 H        0.926     0.070     2.081     2.256
    66   1 H        0.927     0.072     2.063     2.246

Wiberg/Mayer (AO) data.
largest (>0.10) Wiberg bond orders for each atom

     #   Z sym  total        # sym  WBO       # sym  WBO       # sym  WBO
 ---------------------------------------------------------------------------
     1   6 C    3.991 --     2 C    1.557     6 C    1.278    45 H    0.968
                             4 C    0.118
     2   6 C    3.992 --     1 C    1.557     3 C    1.322    46 H    0.971
     3   6 C    3.990 --     4 C    1.554     2 C    1.322    47 H    0.971
     4   6 C    3.992 --     3 C    1.554     5 C    1.282    48 H    0.960
                             1 C    0.118
     5   6 C    3.988 --     4 C    1.282    10 C    1.254     6 C    1.251
     6   6 C    3.990 --     7 C    1.281     1 C    1.278     5 C    1.251
     7   6 C    3.989 --     8 C    1.550     6 C    1.281    49 H    0.968
                            10 C    0.114
     8   6 C    3.991 --     7 C    1.550     9 C    1.329    50 H    0.969
     9   6 C    3.988 --    10 C    1.520     8 C    1.329    51 H    0.961
    10   6 C    3.982 --     9 C    1.520     5 C    1.254    11 C    0.986
                             7 C    0.114
    11   6 C    3.957 --    10 C    0.986    36 N    0.953    12 C    0.952
                            52 H    0.947
    12   6 C    3.957 --    13 C    0.984    23 N    0.964    11 C    0.952
                            53 H    0.944
    13   6 C    3.983 --    14 C    1.533    18 C    1.248    12 C    0.984
                            16 C    0.114
    14   6 C    3.990 --    13 C    1.533    15 C    1.320    54 H    0.966
    15   6 C    3.992 --    16 C    1.559    14 C    1.320    55 H    0.970
    16   6 C    3.990 --    15 C    1.559    17 C    1.276    56 H    0.968
                            13 C    0.114
    17   6 C    3.990 --    22 C    1.281    16 C    1.276    18 C    1.255
    18   6 C    3.989 --    19 C    1.285    17 C    1.255    13 C    1.248
    19   6 C    3.992 --    20 C    1.552    18 C    1.285    57 H    0.963
                            22 C    0.118
    20   6 C    3.992 --    19 C    1.552    21 C    1.325    58 H    0.971
    21   6 C    3.992 --    22 C    1.555    20 C    1.325    59 H    0.971
    22   6 C    3.991 --    21 C    1.555    17 C    1.281    60 H    0.968
                            19 C    0.118
    23   7 N    3.467 --    24 C    1.200    32 C    0.990    12 C    0.964
                            31 O    0.192
    24   6 C    3.956 --    31 O    1.691    23 N    1.200    25 C    0.985
    25   6 C    3.942 --    26 C    1.514    30 S    1.154    24 C    0.985
                            29 C    0.113
    26   6 C    3.888 --    25 C    1.514    28 C    1.244    27 F    0.981
    27   9 F    1.128 --    26 C    0.981
    28   6 C    3.983 --    29 C    1.620    26 C    1.244    61 H    0.961
    29   6 C    3.951 --    28 C    1.620    30 S    1.207    62 H    0.968
                            25 C    0.113
    30  16 S    2.652 --    29 C    1.207    25 C    1.154
    31   8 O    2.044 --    24 C    1.691    23 N    0.192
    32   6 C    3.963 --    23 N    0.990    36 N    0.972    63 H    0.941
                            33 C    0.907
    33   6 C    3.925 --    35 O    1.757    34 O    1.150    32 C    0.907
    34   8 O    2.212 --    33 C    1.150    64 H    0.854    35 O    0.170
    35   8 O    2.058 --    33 C    1.757    34 O    0.170
    36   7 N    3.479 --    37 C    1.235    32 C    0.972    11 C    0.953
                            44 O    0.189
    37   6 C    3.955 --    44 O    1.631    36 N    1.235    38 C    1.002
    38   6 C    3.948 --    39 C    1.502    43 S    1.167    37 C    1.002
                            42 C    0.109
    39   6 C    3.881 --    38 C    1.502    41 C    1.258    40 F    0.961
    40   9 F    1.100 --    39 C    0.961
    41   6 C    3.983 --    42 C    1.605    39 C    1.258    65 H    0.961
    42   6 C    3.952 --    41 C    1.605    43 S    1.224    66 H    0.968
                            38 C    0.109
    43  16 S    2.669 --    42 C    1.224    38 C    1.167
    44   8 O    2.049 --    37 C    1.631    36 N    0.189
    45   1 H    0.998 --     1 C    0.968
    46   1 H    0.998 --     2 C    0.971
    47   1 H    0.998 --     3 C    0.971
    48   1 H    0.998 --     4 C    0.960
    49   1 H    0.997 --     7 C    0.968
    50   1 H    0.997 --     8 C    0.969
    51   1 H    0.996 --     9 C    0.961
    52   1 H    0.995 --    11 C    0.947
    53   1 H    0.993 --    12 C    0.944
    54   1 H    0.999 --    14 C    0.966
    55   1 H    0.998 --    15 C    0.970
    56   1 H    0.997 --    16 C    0.968
    57   1 H    0.999 --    19 C    0.963
    58   1 H    0.998 --    20 C    0.971
    59   1 H    0.998 --    21 C    0.971
    60   1 H    0.998 --    22 C    0.968
    61   1 H    0.995 --    28 C    0.961
    62   1 H    0.995 --    29 C    0.968
    63   1 H    0.994 --    32 C    0.941
    64   1 H    0.879 --    34 O    0.854
    65   1 H    0.994 --    41 C    0.961
    66   1 H    0.994 --    42 C    0.968
 ---------------------------------------------------------------------------

molecular dipole:
                 x           y           z       tot (Debye)
 q only:       -0.221      -0.999       1.476
   full:       -0.244      -0.776       1.517       4.375

           -------------------------------------------------
          | TOTAL ENERGY             -122.134179196813 Eh   |
          | GRADIENT NORM               0.000282539799 Eh/Î± |
          | HOMO-LUMO GAP               2.725760254994 eV   |
           -------------------------------------------------

 * finished run on 2022/03/17 at 01:51:55.777
