   * xtb version 6.3.3 (4ae9cef) compiled by 'conda@95abc7406d43' on 2020-10-14
          program call               : xtb acid_358.xyz --opt --chrg 0 --uhf 0 --gfn 2
          number of atoms            :                    78
          number of electrons        :                   230
          charge                     :                     0
          spin                       :                   0.0

   ID    Z sym.   atoms
    1    6 C      1-22, 24-27, 29-31, 33, 34, 38-41, 43-45
    2    7 N      23, 37
    3    8 O      28, 32, 35, 36, 42, 46
    4    1 H      47-78

          :  Hamiltonian                  GFN2-xTB          :
 * total energy  :  -127.9848994 Eh     change       -0.5222518E-08 Eh
 * total energy  :  -128.0016326 Eh     change       -0.1673321E-01 Eh
 * total energy  :  -128.0069363 Eh     change       -0.5303640E-02 Eh
 * total energy  :  -128.0088010 Eh     change       -0.1864697E-02 Eh
 * total energy  :  -128.0103644 Eh     change       -0.1563410E-02 Eh
 * total energy  :  -128.0112085 Eh     change       -0.8441491E-03 Eh
 * total energy  :  -128.0117325 Eh     change       -0.5239573E-03 Eh
 * total energy  :  -128.0121374 Eh     change       -0.4049399E-03 Eh
 * total energy  :  -128.0124338 Eh     change       -0.2963630E-03 Eh
 * total energy  :  -128.0126458 Eh     change       -0.2120534E-03 Eh
 * total energy  :  -128.0144486 Eh     change       -0.1032487E-04 Eh
 * total energy  :  -128.0144626 Eh     change       -0.1397112E-04 Eh
 * total energy  :  -128.0144752 Eh     change       -0.1264128E-04 Eh
 * total energy  :  -128.0144847 Eh     change       -0.9430920E-05 Eh
 * total energy  :  -128.0144924 Eh     change       -0.7698038E-05 Eh
 * total energy  :  -128.0145003 Eh     change       -0.7974891E-05 Eh
 * total energy  :  -128.0145076 Eh     change       -0.7313215E-05 Eh
 * total energy  :  -128.0145136 Eh     change       -0.5954045E-05 Eh
 * total energy  :  -128.0145163 Eh     change       -0.2706161E-05 Eh
   *** GEOMETRY OPTIMIZATION CONVERGED AFTER 44 ITERATIONS ***

 final structure:
================
78
 xtb: 6.3.3 (4ae9cef)
C        -1.26524019413738   -4.22949241334384   -3.29529715888615
C        -0.60940059546158   -5.03537110858149   -2.41002112852360
C        -0.21510994203732   -4.52312098381493   -1.16633343369220
C        -0.47821806109558   -3.22440711297590   -0.83129778505628
C        -1.14088784009603   -2.35438984922216   -1.72555171949298
C        -1.54224649493996   -2.88114268956716   -2.98519599877154
C        -2.19996416616517   -2.05069121577944   -3.91507914447177
C        -2.43370321375369   -0.73749094944882   -3.62657980790143
C        -2.02118576744870   -0.20762694239147   -2.39872309553066
C        -1.41008192169885   -0.98635528076129   -1.44880788643365
C        -0.93367072074986   -0.35709502947827   -0.16642855732932
C         0.47314417654883    0.25458420043595   -0.37326461421023
C         1.59024953837392   -0.75020509415773   -0.27876379706417
C         2.18711217315288   -1.13351330340465   -1.45539232621239
C         3.20835842019509   -2.08890040931652   -1.48736876420160
C         3.63661597059018   -2.66834825436895   -0.32842321100543
C         3.04255101271078   -2.32518589128239    0.90209753366389
C         1.99793752351276   -1.36015538084964    0.93683296703733
C         1.41251879181089   -1.06837413409607    2.18642457129565
C         1.83390348063414   -1.68082064250388    3.33332573178253
C         2.87230391928245   -2.62177123726926    3.29607866755401
C         3.46139180715438   -2.93410257013486    2.10414014397128
N         0.49060474079438    1.38041019607668    0.55596283597377
C         1.39772821052064    2.40391258960415    0.49861269832978
C         2.70358544796438    1.99482022379535   -0.07189246794213
C         3.10909549086645    2.06870594731436   -1.37525098249669
C         2.42280396631861    2.59388054366757   -2.58580294944310
O         4.35657050162030    1.57238286408078   -1.49519467469620
C         4.75896864975821    1.19290046327537   -0.26589183522064
C         3.79228919263985    1.43043959114947    0.66270580454114
C         3.84957443045307    1.21513510454384    2.13409164997218
O         1.13895931780763    3.51154600354832    0.91391230255510
C        -0.84888708542175    1.65181222588474    1.04294829370854
C        -0.93234283385838    1.37740419141017    2.55919175272549
O        -1.98252014744523    0.62008642790060    2.88231345839625
O        -0.15871300835710    1.81048523824593    3.36469407745660
N        -1.70434334660542    0.80866720840815    0.25084547927721
C        -3.06774631611325    0.74613671650539    0.39218911312102
C        -3.70854705146545    2.00665552169667    0.81654842064742
C        -4.70652413547293    2.09174410771270    1.75550693369022
C        -5.33015550406987    1.04437826410808    2.60140264064679
O        -5.11018922764628    3.36680230529197    1.88527685019214
C        -4.40147897461484    4.10630166493935    1.00876714358704
C        -3.51749565779540    3.33724393491938    0.31619486680718
C        -2.60582777111578    3.79586183864209   -0.77181786382049
O        -3.69222359340074   -0.26233764963444    0.13818057851131
H        -1.58192779357536   -4.61040191152356   -4.25590855048516
H        -0.39557719978570   -6.06484703366100   -2.65667572514488
H         0.30051306488144   -5.16394364655367   -0.46615229567799
H        -0.16089178407551   -2.87115745538948    0.13655312114177
H        -2.50809394891747   -2.47241478805597   -4.86093338922070
H        -2.93209869054134   -0.09631273966418   -4.33831672416826
H        -2.20717922673613    0.83670117435493   -2.19686759124269
H        -0.92908068430256   -1.09572288431889    0.64307959041948
H         0.49532076701598    0.66522646811665   -1.39479119492089
H         1.86208796346358   -0.69226180282046   -2.38664158561110
H         3.65122833535551   -2.35633250623172   -2.43462795108243
H         4.42860840413050   -3.40294926784045   -0.33618537452984
H         0.62498430141327   -0.33816774188307    2.23811878577675
H         1.37187261988544   -1.43447702209845    4.27777705557226
H         3.19905900712974   -3.09299896657292    4.21111396114135
H         4.26149239321712   -3.65925429462952    2.06010683259437
H         1.52802280311177    3.13535929503570   -2.29177151850879
H         3.08566338287853    3.26847223498489   -3.12473079590831
H         2.14885023703813    1.78464038755289   -3.26354892941036
H         5.74116462842754    0.77397552265071   -0.17918532225619
H         2.86431637384135    1.34394940794831    2.57362504389047
H         4.52298383138573    1.94005689464935    2.59029756233153
H         4.21757037364314    0.21717821831014    2.36434057826068
H        -1.06100129400875    2.72471756692165    0.92799513583745
H        -2.03264392310302    0.49248778870457    3.84361234691203
H        -6.41227215998040    1.06921072854026    2.48530689020084
H        -5.10120116854172    1.21092160207928    3.65374783354261
H        -4.95889093988543    0.07246730245749    2.29246952015229
H        -4.61501796754702    5.15545514379599    0.96506529632038
H        -1.76889073850654    4.36866156675765   -0.37021640425996
H        -3.14594639504831    4.44278567046303   -1.46061938369344
H        -2.21258676399834    2.94757585714849   -1.32590513102126

          :  Hamiltonian                  GFN2-xTB          :
         :: total energy            -128.014516305457 Eh    ::
         :: gradient norm              0.000311530285 Eh/a0 ::
         :: HOMO-LUMO gap              2.851996604279 eV    ::
         :: SCC energy              -129.936520645088 Eh    ::
         :: -> dispersion             -0.120235308816 Eh    ::
         :: repulsion energy           1.916237597852 Eh    ::

    * Orbital Energies and Occupations

         #    Occupation            Energy/Eh            Energy/eV
      -------------------------------------------------------------
         1        2.0000           -0.7708378             -20.9756
       ...           ...                  ...                  ...
       103        2.0000           -0.4212065             -11.4616
       104        2.0000           -0.4176695             -11.3654
       105        2.0000           -0.4148230             -11.2879
       106        2.0000           -0.4115848             -11.1998
       107        2.0000           -0.4063122             -11.0563
       108        2.0000           -0.4035212             -10.9804
       109        2.0000           -0.4007635             -10.9053
       110        2.0000           -0.3974465             -10.8151
       111        2.0000           -0.3945851             -10.7372
       112        2.0000           -0.3890937             -10.5878
       113        2.0000           -0.3849117             -10.4740
       114        2.0000           -0.3827667             -10.4156
       115        2.0000           -0.3781240             -10.2893 (HOMO)
       116                         -0.2733151              -7.4373 (LUMO)
       117                         -0.2630173              -7.1571
       118                         -0.2578311              -7.0159
       119                         -0.2397132              -6.5229
       120                         -0.2371953              -6.4544
       121                         -0.2315574              -6.3010
       122                         -0.2245597              -6.1106
       123                         -0.2121007              -5.7716
       124                         -0.2063460              -5.6150
       125                         -0.2029209              -5.5218
       126                         -0.1938856              -5.2759
       ...                                ...                  ...
       216                          0.6917479              18.8234
      -------------------------------------------------------------
                  HL-Gap            0.1048089 Eh            2.8520 eV

     #   Z          covCN         q      C6AA      Î±(0)
     1   6 C        2.921    -0.034    28.844     8.807
     2   6 C        2.915    -0.029    28.733     8.790
     3   6 C        2.917    -0.029    28.725     8.789
     4   6 C        2.917    -0.035    28.859     8.809
     5   6 C        2.984     0.010    27.786     8.647
     6   6 C        2.989     0.016    27.644     8.625
     7   6 C        2.921    -0.035    28.882     8.813
     8   6 C        2.914    -0.029    28.718     8.787
     9   6 C        2.923    -0.028    28.691     8.784
    10   6 C        2.968     0.006    27.873     8.660
    11   6 C        3.838     0.052    19.682     6.311
    12   6 C        3.832     0.043    19.838     6.337
    13   6 C        2.964    -0.004    28.128     8.699
    14   6 C        2.926    -0.033    28.833     8.806
    15   6 C        2.914    -0.028    28.697     8.784
    16   6 C        2.921    -0.035    28.871     8.811
    17   6 C        2.989     0.015    27.678     8.630
    18   6 C        2.985     0.013    27.712     8.635
    19   6 C        2.919    -0.032    28.803     8.801
    20   6 C        2.916    -0.027    28.683     8.782
    21   6 C        2.915    -0.029    28.718     8.788
    22   6 C        2.921    -0.034    28.852     8.808
    23   7 N        2.762    -0.131    23.833     7.251
    24   6 C        2.761     0.281    22.242     7.723
    25   6 C        3.085    -0.068    29.587     8.917
    26   6 C        3.088     0.112    25.440     8.268
    27   6 C        3.753    -0.113    22.717     6.797
    28   8 O        1.729    -0.190    17.179     5.596
    29   6 C        3.063     0.050    26.814     8.491
    30   6 C        3.046    -0.010    28.233     8.715
    31   6 C        3.754    -0.107    22.594     6.778
    32   8 O        0.859    -0.414    21.952     6.282
    33   6 C        3.781     0.091    19.089     6.224
    34   6 C        2.687     0.351    21.048     7.508
    35   8 O        1.659    -0.370    20.268     6.078
    36   8 O        0.856    -0.380    21.294     6.187
    37   7 N        2.765    -0.130    23.816     7.248
    38   6 C        2.758     0.282    22.226     7.720
    39   6 C        3.077    -0.076    29.799     8.950
    40   6 C        3.091     0.126    25.145     8.219
    41   6 C        3.753    -0.120    22.866     6.819
    42   8 O        1.728    -0.186    17.108     5.585
    43   6 C        3.062     0.051    26.803     8.490
    44   6 C        3.043    -0.021    28.479     8.753
    45   6 C        3.754    -0.107    22.605     6.780
    46   8 O        0.859    -0.423    22.145     6.309
    47   1 H        0.926     0.035     2.512     2.478
    48   1 H        0.926     0.033     2.540     2.492
    49   1 H        0.926     0.031     2.575     2.510
    50   1 H        0.926     0.026     2.644     2.543
    51   1 H        0.926     0.037     2.492     2.469
    52   1 H        0.926     0.036     2.499     2.472
    53   1 H        0.926     0.031     2.576     2.510
    54   1 H        0.924     0.050     2.318     2.381
    55   1 H        0.923     0.041     2.432     2.439
    56   1 H        0.926     0.027     2.626     2.534
    57   1 H        0.926     0.039     2.467     2.456
    58   1 H        0.926     0.039     2.465     2.455
    59   1 H        0.926     0.031     2.568     2.506
    60   1 H        0.926     0.035     2.521     2.483
    61   1 H        0.926     0.035     2.518     2.481
    62   1 H        0.926     0.035     2.514     2.480
    63   1 H        0.925     0.054     2.267     2.355
    64   1 H        0.925     0.068     2.107     2.270
    65   1 H        0.924     0.056     2.250     2.346
    66   1 H        0.926     0.049     2.334     2.389
    67   1 H        0.925     0.057     2.237     2.339
    68   1 H        0.925     0.055     2.253     2.348
    69   1 H        0.925     0.042     2.417     2.431
    70   1 H        0.923     0.100     1.783     2.088
    71   1 H        0.804     0.342     0.608     1.225
    72   1 H        0.925     0.069     2.095     2.263
    73   1 H        0.925     0.058     2.227     2.334
    74   1 H        0.925     0.077     2.010     2.217
    75   1 H        0.926     0.052     2.297     2.370
    76   1 H        0.924     0.053     2.277     2.360
    77   1 H        0.925     0.051     2.308     2.376
    78   1 H        0.925     0.044     2.397     2.421

Wiberg/Mayer (AO) data.
largest (>0.10) Wiberg bond orders for each atom

     #   Z sym  total        # sym  WBO       # sym  WBO       # sym  WBO
 ---------------------------------------------------------------------------
     1   6 C    3.991 --     2 C    1.557     6 C    1.279    47 H    0.968
                             4 C    0.118
     2   6 C    3.992 --     1 C    1.557     3 C    1.322    48 H    0.971
     3   6 C    3.992 --     4 C    1.554     2 C    1.322    49 H    0.971
     4   6 C    3.992 --     3 C    1.554     5 C    1.284    50 H    0.961
                             1 C    0.118
     5   6 C    3.989 --     4 C    1.284    10 C    1.253     6 C    1.252
     6   6 C    3.990 --     7 C    1.280     1 C    1.279     5 C    1.252
     7   6 C    3.990 --     8 C    1.552     6 C    1.280    51 H    0.968
                            10 C    0.115
     8   6 C    3.992 --     7 C    1.552     9 C    1.328    52 H    0.970
     9   6 C    3.990 --    10 C    1.522     8 C    1.328    53 H    0.963
    10   6 C    3.984 --     9 C    1.522     5 C    1.253    11 C    0.996
                             7 C    0.115
    11   6 C    3.967 --    10 C    0.996    37 N    0.962    54 H    0.946
                            12 C    0.944
    12   6 C    3.965 --    13 C    0.996    23 N    0.955    55 H    0.954
                            11 C    0.944
    13   6 C    3.984 --    14 C    1.516    18 C    1.253    12 C    0.996
                            16 C    0.115
    14   6 C    3.990 --    13 C    1.516    15 C    1.330    56 H    0.966
    15   6 C    3.991 --    16 C    1.550    14 C    1.330    57 H    0.970
    16   6 C    3.990 --    15 C    1.550    17 C    1.281    58 H    0.968
                            13 C    0.115
    17   6 C    3.990 --    16 C    1.281    22 C    1.280    18 C    1.250
    18   6 C    3.989 --    19 C    1.284    13 C    1.253    17 C    1.250
    19   6 C    3.992 --    20 C    1.552    18 C    1.284    59 H    0.957
                            22 C    0.118
    20   6 C    3.991 --    19 C    1.552    21 C    1.323    60 H    0.971
    21   6 C    3.991 --    22 C    1.556    20 C    1.323    61 H    0.971
    22   6 C    3.991 --    21 C    1.556    17 C    1.280    62 H    0.968
                            19 C    0.118
    23   7 N    3.427 --    24 C    1.181    33 C    0.977    12 C    0.955
                            32 O    0.183
    24   6 C    3.942 --    32 O    1.713    23 N    1.181    25 C    0.971
    25   6 C    3.972 --    26 C    1.544    30 C    1.223    24 C    0.971
    26   6 C    3.913 --    25 C    1.544    28 O    1.122    27 C    1.028
                            29 C    0.141
    27   6 C    3.994 --    26 C    1.028    63 H    0.983    64 H    0.971
                            65 H    0.967
    28   8 O    2.432 --    26 C    1.122    29 C    1.115
    29   6 C    3.898 --    30 C    1.592    28 O    1.115    66 H    0.966
                            26 C    0.141
    30   6 C    3.982 --    29 C    1.592    25 C    1.223    31 C    1.031
    31   6 C    3.995 --    30 C    1.031    67 H    0.982    69 H    0.976
                            68 H    0.969
    32   8 O    2.032 --    24 C    1.713    23 N    0.183
    33   6 C    3.967 --    37 N    0.994    23 N    0.977    70 H    0.916
                            34 C    0.915
    34   6 C    3.916 --    36 O    1.782    35 O    1.142    33 C    0.915
    35   8 O    2.212 --    34 C    1.142    71 H    0.857    36 O    0.180
    36   8 O    2.069 --    34 C    1.782    35 O    0.180
    37   7 N    3.416 --    38 C    1.161    33 C    0.994    11 C    0.962
                            46 O    0.172
    38   6 C    3.945 --    46 O    1.696    37 N    1.161    39 C    1.001
    39   6 C    3.970 --    40 C    1.517    44 C    1.218    38 C    1.001
    40   6 C    3.917 --    39 C    1.517    42 O    1.137    41 C    1.033
                            43 C    0.133
    41   6 C    3.991 --    40 C    1.033    74 H    0.978    72 H    0.967
                            73 H    0.967
    42   8 O    2.440 --    40 C    1.137    43 C    1.111
    43   6 C    3.898 --    44 C    1.599    42 O    1.111    75 H    0.966
                            40 C    0.133
    44   6 C    3.981 --    43 C    1.599    39 C    1.218    45 C    1.029
    45   6 C    3.996 --    44 C    1.029    78 H    0.980    77 H    0.976
                            76 H    0.966
    46   8 O    2.019 --    38 C    1.696    37 N    0.172
    47   1 H    0.998 --     1 C    0.968
    48   1 H    0.998 --     2 C    0.971
    49   1 H    0.999 --     3 C    0.971
    50   1 H    0.999 --     4 C    0.961
    51   1 H    0.998 --     7 C    0.968
    52   1 H    0.998 --     8 C    0.970
    53   1 H    0.999 --     9 C    0.963
    54   1 H    0.997 --    11 C    0.946
    55   1 H    0.998 --    12 C    0.954
    56   1 H    0.999 --    14 C    0.966
    57   1 H    0.997 --    15 C    0.970
    58   1 H    0.997 --    16 C    0.968
    59   1 H    0.999 --    19 C    0.957
    60   1 H    0.998 --    20 C    0.971
    61   1 H    0.998 --    21 C    0.971
    62   1 H    0.998 --    22 C    0.968
    63   1 H    0.997 --    27 C    0.983
    64   1 H    0.995 --    27 C    0.971
    65   1 H    0.997 --    27 C    0.967
    66   1 H    0.997 --    29 C    0.966
    67   1 H    0.997 --    31 C    0.982
    68   1 H    0.997 --    31 C    0.969
    69   1 H    0.998 --    31 C    0.976
    70   1 H    0.989 --    33 C    0.916
    71   1 H    0.883 --    35 O    0.857
    72   1 H    0.995 --    41 C    0.967
    73   1 H    0.996 --    41 C    0.967
    74   1 H    0.994 --    41 C    0.978
    75   1 H    0.997 --    43 C    0.966
    76   1 H    0.997 --    45 C    0.966
    77   1 H    0.997 --    45 C    0.976
    78   1 H    0.998 --    45 C    0.980
 ---------------------------------------------------------------------------

molecular dipole:
                 x           y           z       tot (Debye)
 q only:        0.423      -1.191      -0.518
   full:        0.402      -1.073      -0.348       3.045

           -------------------------------------------------
          | TOTAL ENERGY             -128.014516305457 Eh   |
          | GRADIENT NORM               0.000311530285 Eh/Î± |
          | HOMO-LUMO GAP               2.851996604279 eV   |
           -------------------------------------------------

 * finished run on 2022/03/17 at 00:15:07.992
