   * xtb version 6.3.3 (4ae9cef) compiled by 'conda@95abc7406d43' on 2020-10-14
          program call               : xtb acid_308.xyz --opt --chrg 0 --uhf 0 --gfn 2
          number of atoms            :                    68
          number of electrons        :                   206
          charge                     :                     0
          spin                       :                   0.0

   ID    Z sym.   atoms
    1    6 C      1, 3-16, 18, 20-25, 28, 29, 33-38
    2    8 O      2, 17, 26, 27, 30, 31, 39, 40
    3    7 N      19, 32
    4    1 H      41-68

          :  Hamiltonian                  GFN2-xTB          :
 * total energy  :  -116.9134703 Eh     change       -0.2260606E-08 Eh
 * total energy  :  -116.9262315 Eh     change       -0.1276125E-01 Eh
 * total energy  :  -116.9315102 Eh     change       -0.5278660E-02 Eh
 * total energy  :  -116.9336870 Eh     change       -0.2176795E-02 Eh
 * total energy  :  -116.9351425 Eh     change       -0.1455496E-02 Eh
 * total energy  :  -116.9362120 Eh     change       -0.1069496E-02 Eh
 * total energy  :  -116.9371776 Eh     change       -0.9656601E-03 Eh
 * total energy  :  -116.9381605 Eh     change       -0.9828527E-03 Eh
 * total energy  :  -116.9391782 Eh     change       -0.1017731E-02 Eh
 * total energy  :  -116.9399032 Eh     change       -0.7249908E-03 Eh
 * total energy  :  -116.9476750 Eh     change       -0.1059538E-04 Eh
 * total energy  :  -116.9476817 Eh     change       -0.6756136E-05 Eh
 * total energy  :  -116.9476903 Eh     change       -0.8554788E-05 Eh
 * total energy  :  -116.9477005 Eh     change       -0.1019155E-04 Eh
 * total energy  :  -116.9477083 Eh     change       -0.7823303E-05 Eh
 * total energy  :  -116.9477145 Eh     change       -0.6252744E-05 Eh
 * total energy  :  -116.9477217 Eh     change       -0.7181682E-05 Eh
 * total energy  :  -116.9477285 Eh     change       -0.6744676E-05 Eh
 * total energy  :  -116.9477329 Eh     change       -0.4426650E-05 Eh
   *** GEOMETRY OPTIMIZATION CONVERGED AFTER 58 ITERATIONS ***

 final structure:
================
68
 xtb: 6.3.3 (4ae9cef)
C        -1.89926204576818   -1.40894843941334    2.66078475496532
O        -1.11827340248288   -0.49491265145766    3.31044778565272
C        -1.51088385650192   -0.07187940496724    4.59252780394087
C        -2.96497321084943   -2.08447571830518    3.23362156742500
C        -3.68042265522119   -3.00777363220066    2.48738890586024
C        -3.33919933507971   -3.25986450107380    1.17472749305140
C        -2.28034295289386   -2.57946873631958    0.59297474379884
C        -1.55954381086122   -1.65133139342648    1.31867092690240
C        -0.37704346968835   -0.90346004734505    0.77790037606438
C         0.12521758764545   -1.22768700169504   -0.63863959416703
C         0.87494109718120   -2.52476023827274   -0.75823622208090
C         2.04586544481813   -2.73401310797626   -0.05008493366440
C         2.75315166252277   -3.91750021300434   -0.16920976406527
C         2.28631603581185   -4.90551418667522   -1.01334382504287
C         1.12138747802433   -4.71501338341117   -1.73573133746705
C         0.40669071935091   -3.52954493630200   -1.61828832296297
O        -0.75360392776246   -3.27304453594668   -2.28669284656286
C        -1.16732719131550   -4.16808616046049   -3.29039065703262
N         0.97878052480326   -0.06071746087555   -0.88890841779332
C         1.81457442036963   -0.01551834032088   -1.95989832664778
C         2.67948992027534    1.16322277214701   -2.09229391175033
C         3.59371733764733    1.42480084436296   -3.08170516235118
C         4.20413437714790    2.65124484000843   -2.74860161614606
C         3.63066324607686    3.06403380575190   -1.57755313254140
C         3.82982535485738    4.27087298095420   -0.73314018177358
O         2.70856599034559    2.16727804618829   -1.17699586819307
O         1.87374634136851   -0.92231066070744   -2.77161421717812
C         0.63892426800725    1.02369076257848    0.01386547100951
C         1.74897028389140    1.31510516334229    1.04318179654382
O         2.53867140112314    0.27150672357506    1.26186828927376
O         1.87355316686460    2.35820038606465    1.62455512512769
N        -0.53918292362058    0.55515283326441    0.70356698372958
C        -1.76864166094176    1.16417388073769    0.63062668637698
C        -1.75425840388964    2.63053195482769    0.46099528592160
C        -0.89924776540857    3.63480413717572    0.84472373024230
C        -1.53704125551337    4.84587558036723    0.50403462615276
C        -2.73712061954012    4.50631129477680   -0.05901480362514
C        -3.83041521408917    5.34015479407273   -0.62183509498953
O        -2.87372508169122    3.17337992168082   -0.07790223229413
O        -2.81470117091932    0.56339601848244    0.75333899054688
H        -2.52586357905482    0.33637099009824    4.58375271728812
H        -1.45012274302570   -0.88539809529624    5.32381101381388
H        -0.80958759956151    0.71396020566202    4.87068044370385
H        -3.25072905736028   -1.90022692306007    4.25733065068613
H        -4.51034447660604   -3.52604243876033    2.94485533937963
H        -3.89895953377183   -3.97821452602965    0.59539160869693
H        -2.02701973950577   -2.77097442871993   -0.43585164301586
H         0.45285071656464   -1.07352077987944    1.47910805607839
H        -0.70464960424703   -1.22064447562781   -1.35451113426678
H         2.42193246559044   -1.94853580311705    0.58604872164279
H         3.66688359931932   -4.06155525943827    0.38714643141687
H         2.83063992139461   -5.83203113998057   -1.12176418923904
H         0.78188136631878   -5.49745821854922   -2.39565618446491
H        -0.39218961798343   -4.29946111530918   -4.05067151151344
H        -2.04570135382758   -3.71197662512574   -3.74537799132206
H        -1.44365265655422   -5.14216065225801   -2.87266986877058
H         3.78744928822321    0.80222786491689   -3.93010369552456
H         4.96747027076484    3.16122480132648   -3.29951558574227
H         3.37152854798020    5.14281431251067   -1.19893489894335
H         3.36325321513724    4.11026677510739    0.23563557401870
H         4.88986168407682    4.47408153881132   -0.60143753138372
H         0.42702607728794    1.95922095548928   -0.51888888417107
H         3.21237187603252    0.48293728893184    1.92994450232760
H         0.04903442586366    3.52586022606168    1.32807046835047
H        -1.15882193014456    5.83540721322878    0.66050861120139
H        -4.77198939489966    5.10811859399031   -0.12681169323687
H        -3.95399963593058    5.13542887975959   -1.68469959902115
H        -3.60052923616137    6.39236884506119   -0.48511060225026

          :  Hamiltonian                  GFN2-xTB          :
         :: total energy            -116.947732899216 Eh    ::
         :: gradient norm              0.000529968309 Eh/a0 ::
         :: HOMO-LUMO gap              2.838568551440 eV    ::
         :: SCC energy              -118.485397085098 Eh    ::
         :: -> dispersion             -0.089157509874 Eh    ::
         :: repulsion energy           1.535214086604 Eh    ::

    * Orbital Energies and Occupations

         #    Occupation            Energy/Eh            Energy/eV
      -------------------------------------------------------------
         1        2.0000           -0.7700800             -20.9549
       ...           ...                  ...                  ...
        91        2.0000           -0.4252111             -11.5706
        92        2.0000           -0.4190284             -11.4023
        93        2.0000           -0.4137450             -11.2586
        94        2.0000           -0.4091194             -11.1327
        95        2.0000           -0.4046884             -11.0121
        96        2.0000           -0.3962063             -10.7813
        97        2.0000           -0.3935404             -10.7088
        98        2.0000           -0.3908857             -10.6365
        99        2.0000           -0.3872941             -10.5388
       100        2.0000           -0.3855671             -10.4918
       101        2.0000           -0.3828598             -10.4181
       102        2.0000           -0.3705341             -10.0827
       103        2.0000           -0.3658341              -9.9549 (HOMO)
       104                         -0.2615186              -7.1163 (LUMO)
       105                         -0.2537280              -6.9043
       106                         -0.2489455              -6.7742
       107                         -0.2192451              -5.9660
       108                         -0.2145669              -5.8387
       109                         -0.2071983              -5.6382
       110                         -0.2038017              -5.5457
       111                         -0.1857380              -5.0542
       112                         -0.1823308              -4.9615
       113                         -0.1443868              -3.9290
       114                         -0.1344695              -3.6591
       ...                                ...                  ...
       188                          0.7040784              19.1589
      -------------------------------------------------------------
                  HL-Gap            0.1043155 Eh            2.8386 eV

     #   Z          covCN         q      C6AA      Î±(0)
     1   6 C        2.872     0.145    24.844     8.171
     2   8 O        1.705    -0.279    18.627     5.827
     3   6 C        3.644     0.040    20.235     6.466
     4   6 C        2.917    -0.063    29.568     8.917
     5   6 C        2.921    -0.031    28.773     8.796
     6   6 C        2.919    -0.038    28.943     8.822
     7   6 C        2.922    -0.035    28.874     8.812
     8   6 C        2.970    -0.001    28.051     8.688
     9   6 C        3.866     0.047    19.745     6.319
    10   6 C        3.828     0.043    19.827     6.336
    11   6 C        2.971    -0.005    28.142     8.702
    12   6 C        2.925    -0.037    28.911     8.818
    13   6 C        2.918    -0.041    29.012     8.833
    14   6 C        2.921    -0.031    28.777     8.797
    15   6 C        2.918    -0.064    29.585     8.919
    16   6 C        2.868     0.148    24.793     8.162
    17   8 O        1.705    -0.269    18.458     5.801
    18   6 C        3.643     0.038    20.270     6.472
    19   7 N        2.770    -0.114    23.478     7.197
    20   6 C        2.755     0.261    22.609     7.786
    21   6 C        3.086     0.072    26.292     8.405
    22   6 C        3.014    -0.046    29.128     8.853
    23   6 C        3.009    -0.074    29.839     8.961
    24   6 C        3.084     0.126    25.156     8.222
    25   6 C        3.753    -0.122    22.904     6.825
    26   8 O        1.730    -0.215    17.561     5.658
    27   8 O        0.860    -0.433    22.348     6.338
    28   6 C        3.787     0.086    19.164     6.235
    29   6 C        2.688     0.362    20.853     7.473
    30   8 O        1.659    -0.350    19.910     6.024
    31   8 O        0.856    -0.397    21.616     6.233
    32   7 N        2.766    -0.125    23.715     7.233
    33   6 C        2.753     0.271    22.421     7.754
    34   6 C        3.097     0.068    26.369     8.416
    35   6 C        3.012    -0.069    29.708     8.941
    36   6 C        3.013    -0.076    29.879     8.966
    37   6 C        3.091     0.124    25.183     8.225
    38   6 C        3.753    -0.119    22.829     6.813
    39   8 O        1.731    -0.171    16.874     5.547
    40   8 O        0.859    -0.402    21.721     6.249
    41   1 H        0.924     0.045     2.387     2.416
    42   1 H        0.924     0.038     2.471     2.458
    43   1 H        0.925     0.058     2.224     2.332
    44   1 H        0.926     0.037     2.492     2.469
    45   1 H        0.926     0.036     2.505     2.475
    46   1 H        0.926     0.037     2.495     2.470
    47   1 H        0.926     0.057     2.231     2.336
    48   1 H        0.923     0.067     2.121     2.278
    49   1 H        0.924     0.072     2.069     2.249
    50   1 H        0.926     0.045     2.378     2.412
    51   1 H        0.926     0.034     2.533     2.489
    52   1 H        0.926     0.036     2.501     2.473
    53   1 H        0.926     0.040     2.453     2.449
    54   1 H        0.924     0.047     2.359     2.402
    55   1 H        0.925     0.062     2.170     2.304
    56   1 H        0.924     0.039     2.462     2.454
    57   1 H        0.927     0.063     2.168     2.302
    58   1 H        0.926     0.045     2.378     2.412
    59   1 H        0.925     0.065     2.143     2.289
    60   1 H        0.925     0.076     2.016     2.220
    61   1 H        0.925     0.062     2.179     2.309
    62   1 H        0.924     0.076     2.018     2.221
    63   1 H        0.804     0.341     0.609     1.226
    64   1 H        0.927     0.065     2.136     2.285
    65   1 H        0.926     0.040     2.447     2.446
    66   1 H        0.925     0.069     2.102     2.267
    67   1 H        0.925     0.066     2.132     2.284
    68   1 H        0.925     0.057     2.230     2.336

Wiberg/Mayer (AO) data.
largest (>0.10) Wiberg bond orders for each atom

     #   Z sym  total        # sym  WBO       # sym  WBO       # sym  WBO
 ---------------------------------------------------------------------------
     1   6 C    3.933 --     4 C    1.396     8 C    1.313     2 O    1.053
     2   8 O    2.220 --     1 C    1.053     3 C    0.985
     3   6 C    3.947 --     2 O    0.985    43 H    0.980    41 H    0.977
                            42 H    0.976
     4   6 C    3.987 --     5 C    1.422     1 C    1.396    44 H    0.966
                             7 C    0.100
     5   6 C    3.991 --     6 C    1.454     4 C    1.422    45 H    0.971
                             8 C    0.107
     6   6 C    3.991 --     5 C    1.454     7 C    1.415    46 H    0.971
     7   6 C    3.988 --     8 C    1.446     6 C    1.415    47 H    0.960
                             4 C    0.100
     8   6 C    3.982 --     7 C    1.446     1 C    1.313     9 C    0.999
                             5 C    0.107
     9   6 C    3.960 --     8 C    0.999    10 C    0.961    32 N    0.946
                            48 H    0.941
    10   6 C    3.960 --    11 C    0.996     9 C    0.961    49 H    0.949
                            19 N    0.947
    11   6 C    3.983 --    12 C    1.436    16 C    1.324    10 C    0.996
                            14 C    0.106
    12   6 C    3.989 --    11 C    1.436    13 C    1.427    50 H    0.963
                            15 C    0.102
    13   6 C    3.991 --    14 C    1.443    12 C    1.427    51 H    0.971
    14   6 C    3.990 --    13 C    1.443    15 C    1.435    52 H    0.971
                            11 C    0.106
    15   6 C    3.987 --    14 C    1.435    16 C    1.382    53 H    0.965
                            12 C    0.102
    16   6 C    3.935 --    15 C    1.382    11 C    1.324    17 O    1.060
    17   8 O    2.236 --    16 C    1.060    18 C    0.982
    18   6 C    3.944 --    17 O    0.982    55 H    0.979    54 H    0.977
                            56 H    0.976
    19   7 N    3.464 --    20 C    1.204    28 C    0.980    10 C    0.947
                            27 O    0.188
    20   6 C    3.960 --    27 O    1.639    19 N    1.204    21 C    1.029
    21   6 C    3.898 --    22 C    1.528    26 O    1.081    20 C    1.029
                            24 C    0.131
    22   6 C    3.983 --    21 C    1.528    23 C    1.321    57 H    0.972
    23   6 C    3.980 --    24 C    1.547    22 C    1.321    58 H    0.974
    24   6 C    3.907 --    23 C    1.547    26 O    1.120    25 C    1.030
                            21 C    0.131
    25   6 C    3.991 --    24 C    1.030    60 H    0.978    61 H    0.974
                            59 H    0.964
    26   8 O    2.421 --    24 C    1.120    21 C    1.081
    27   8 O    1.992 --    20 C    1.639    19 N    0.188
    28   6 C    3.971 --    32 N    0.984    19 N    0.980    62 H    0.939
                            29 C    0.914
    29   6 C    3.917 --    31 O    1.761    30 O    1.162    28 C    0.914
    30   8 O    2.233 --    29 C    1.162    63 H    0.856    31 O    0.178
    31   8 O    2.052 --    29 C    1.761    30 O    0.178
    32   7 N    3.427 --    33 C    1.162    28 C    0.984     9 C    0.946
                            40 O    0.176
    33   6 C    3.954 --    40 O    1.687    32 N    1.162    34 C    1.013
    34   6 C    3.902 --    35 C    1.519    39 O    1.103    33 C    1.013
                            37 C    0.127
    35   6 C    3.983 --    34 C    1.519    36 C    1.322    64 H    0.963
    36   6 C    3.979 --    37 C    1.538    35 C    1.322    65 H    0.974
    37   6 C    3.913 --    36 C    1.538    39 O    1.147    38 C    1.030
                            34 C    0.127
    38   6 C    3.993 --    37 C    1.030    68 H    0.984    66 H    0.968
                            67 H    0.967
    39   8 O    2.454 --    37 C    1.147    34 C    1.103
    40   8 O    2.039 --    33 C    1.687    32 N    0.176
    41   1 H    0.998 --     3 C    0.977
    42   1 H    0.999 --     3 C    0.976
    43   1 H    0.996 --     3 C    0.980
    44   1 H    0.998 --     4 C    0.966
    45   1 H    0.998 --     5 C    0.971
    46   1 H    0.998 --     6 C    0.971
    47   1 H    0.996 --     7 C    0.960
    48   1 H    0.995 --     9 C    0.941
    49   1 H    0.993 --    10 C    0.949
    50   1 H    0.997 --    12 C    0.963
    51   1 H    0.998 --    13 C    0.971
    52   1 H    0.998 --    14 C    0.971
    53   1 H    0.998 --    15 C    0.965
    54   1 H    0.998 --    18 C    0.977
    55   1 H    0.996 --    18 C    0.979
    56   1 H    0.998 --    18 C    0.976
    57   1 H    0.996 --    22 C    0.972
    58   1 H    0.997 --    23 C    0.974
    59   1 H    0.994 --    25 C    0.964
    60   1 H    0.994 --    25 C    0.978
    61   1 H    0.995 --    25 C    0.974
    62   1 H    0.993 --    28 C    0.939
    63   1 H    0.883 --    30 O    0.856
    64   1 H    0.996 --    35 C    0.963
    65   1 H    0.998 --    36 C    0.974
    66   1 H    0.995 --    38 C    0.968
    67   1 H    0.994 --    38 C    0.967
    68   1 H    0.996 --    38 C    0.984
 ---------------------------------------------------------------------------

molecular dipole:
                 x           y           z       tot (Debye)
 q only:        0.740       0.646       0.648
   full:        0.919       0.937       0.739       3.828

           -------------------------------------------------
          | TOTAL ENERGY             -116.947732899216 Eh   |
          | GRADIENT NORM               0.000529968309 Eh/Î± |
          | HOMO-LUMO GAP               2.838568551440 eV   |
           -------------------------------------------------

 * finished run on 2022/03/16 at 23:38:44.952
