   * xtb version 6.3.3 (4ae9cef) compiled by 'conda@95abc7406d43' on 2020-10-14
          program call               : xtb acid_3.xyz --opt --chrg 0 --uhf 0 --gfn 2
          number of atoms            :                    78
          number of electrons        :                   226
          charge                     :                     0
          spin                       :                   0.0

   ID    Z sym.   atoms
    1    6 C      1-22, 24-31, 33, 34, 38-45
    2    7 N      23, 37
    3    8 O      32, 35, 36, 46
    4    1 H      47-78

          :  Hamiltonian                  GFN2-xTB          :
 * total energy  :  -124.0986546 Eh     change       -0.6218670E-08 Eh
 * total energy  :  -124.1171059 Eh     change       -0.1845125E-01 Eh
 * total energy  :  -124.1231326 Eh     change       -0.6026769E-02 Eh
 * total energy  :  -124.1253544 Eh     change       -0.2221760E-02 Eh
 * total energy  :  -124.1269547 Eh     change       -0.1600323E-02 Eh
 * total energy  :  -124.1279651 Eh     change       -0.1010365E-02 Eh
 * total energy  :  -124.1289001 Eh     change       -0.9350637E-03 Eh
 * total energy  :  -124.1298753 Eh     change       -0.9751692E-03 Eh
 * total energy  :  -124.1307149 Eh     change       -0.8395378E-03 Eh
 * total energy  :  -124.1315275 Eh     change       -0.8126710E-03 Eh
 * total energy  :  -124.1453571 Eh     change       -0.8169546E-05 Eh
 * total energy  :  -124.1453650 Eh     change       -0.7903553E-05 Eh
 * total energy  :  -124.1453737 Eh     change       -0.8763277E-05 Eh
 * total energy  :  -124.1453819 Eh     change       -0.8209100E-05 Eh
 * total energy  :  -124.1453823 Eh     change       -0.3586428E-06 Eh
 * total energy  :  -124.1453879 Eh     change       -0.5650196E-05 Eh
 * total energy  :  -124.1453942 Eh     change       -0.6231505E-05 Eh
 * total energy  :  -124.1453999 Eh     change       -0.5721476E-05 Eh
 * total energy  :  -124.1454011 Eh     change       -0.1228968E-05 Eh
   *** GEOMETRY OPTIMIZATION CONVERGED AFTER 83 ITERATIONS ***

 final structure:
================
78
 xtb: 6.3.3 (4ae9cef)
C         3.82063581330996   -3.30202557258977   -0.78941810476187
C         3.15674917891559   -3.72305166123309   -1.90493518249993
C         1.94404326735985   -3.11749602893248   -2.26160792661320
C         1.42771533134417   -2.09748720864807   -1.51383975623346
C         2.09043469294142   -1.62635770754175   -0.35931411703503
C         3.30722191870398   -2.26122289621291    0.01251888597914
C         3.98079070055678   -1.85578368123275    1.18226888514102
C         3.47172592258054   -0.86329527130363    1.96901559279670
C         2.28502307692627   -0.22090294666096    1.59928025015764
C         1.60768064106593   -0.56823220444508    0.45690461251213
C         0.35353453945530    0.18471506400327    0.10292012639159
C        -0.88103339681287   -0.25401702091597    0.92821143047413
C        -1.63162364835511   -1.32740667117721    0.18417742959993
C        -2.60225987162304   -0.97178054550593   -0.71780805800820
C        -3.26076469675307   -1.93037274770059   -1.49765957564158
C        -2.91251894625324   -3.24636795086563   -1.40029526122034
C        -1.90008774841549   -3.65496744046501   -0.50822855133531
C        -1.25344818217699   -2.69168674053579    0.31503946028183
C        -0.24881122285485   -3.14809823347357    1.19669546821848
C         0.11563972209960   -4.46457707187885    1.23793635134310
C        -0.51284207835945   -5.40651397182429    0.41219076179665
C        -1.50719839598608   -5.00784254622343   -0.43378082140198
N        -1.62910793597132    0.99166534869772    1.07365188604238
C        -2.82152729233571    0.98379368261146    1.76724922926208
C        -3.48927799623392    2.30903635702486    1.88094771161088
C        -4.06780294136146    2.66960548092122    3.09138031206807
C        -4.71790038799810    3.88460250559042    3.20373611589877
C        -4.81040421034274    4.72999036328118    2.11171904212402
C        -4.26065405187212    4.37148364141833    0.88647493736122
C        -4.39240462482004    5.26795636864210   -0.30730747384504
C        -3.60107870330073    3.15478229945814    0.78322344597412
O        -3.31695024499921   -0.04698356005618    2.16350959658131
C        -0.67390814810260    2.06833312710915    1.15022299876009
C        -0.28335385202815    2.34680754348728    2.61731806994473
O         0.93388484437676    2.86327633199155    2.72758764443301
O        -1.00878206991032    2.13199519477591    3.54758681631303
N         0.44327773071139    1.61473672631226    0.36092508411236
C         1.24442713033740    2.48636054854769   -0.31210829765777
C         2.32262268489701    1.79903058035839   -1.09152079400527
C         2.05994774818097    1.23396130303444   -2.33184350852610
C         3.04053577637117    0.52367576836349   -3.00953901972293
C         2.75861500717322   -0.10534430009645   -4.33922796754937
C         4.29748896708817    0.40117611859861   -2.42948810314635
C         4.57589556800864    0.99570133698298   -1.21293330543928
C         3.59230409939204    1.69792828309061   -0.54036150744619
O         1.09747219425602    3.68675752375600   -0.23362880270095
H         4.75114788531562   -3.76599942513593   -0.49484800203317
H         3.55348150744864   -4.52327001398073   -2.51197031567653
H         1.41306030464810   -3.46552200594667   -3.13534840554476
H         0.48445113879294   -1.66872835234309   -1.81196048546048
H         4.90308265491623   -2.35185207677410    1.44784452782259
H         3.97977112576321   -0.56046320208955    2.87249478037888
H         1.90923251755634    0.58155405309962    2.21608327993175
H         0.12107926416689    0.04763830931541   -0.95822874303071
H        -0.58002531296670   -0.60823217292602    1.92233634355003
H        -2.87431481987267    0.06736484928466   -0.82743712971389
H        -4.03461549719921   -1.61423218296409   -2.18136633938990
H        -3.40087089915955   -3.99402888512180   -2.00867015775079
H         0.25169827888292   -2.45401648712146    1.85249042162639
H         0.89428355095957   -4.78589962518798    1.91411476500445
H        -0.21165310986438   -6.44265965103840    0.45767073060665
H        -2.01088676111054   -5.72433248183144   -1.06724245810601
H        -3.98440720773002    1.99897383764680    3.93143169563882
H        -5.15786885953301    4.17470565771364    4.14635323554949
H        -5.32107714895216    5.67776346176760    2.20660434850248
H        -3.53497371240846    5.16358509478753   -0.96861356941334
H        -5.28815184927855    5.00646795363320   -0.87193580769681
H        -4.47822108790077    6.30833201289642   -0.00264606599341
H        -3.19040595335145    2.85543311597607   -0.17180700314481
H        -1.05356942579514    3.02114523322063    0.75150478019065
H         1.13142104720251    3.09744471430369    3.64998464908930
H         1.08065056068984    1.34807259451634   -2.77651272759391
H         3.13649967365763   -1.12600582197229   -4.36180128339615
H         3.25433969988146    0.45469050726484   -5.13249631211217
H         1.69151322531642   -0.12105953167899   -4.54665793097193
H         5.06343274658670   -0.16309546395931   -2.94150542580047
H         5.56107010085967    0.90413956082357   -0.78059594892414
H         3.79689945330370    2.15652990526994    0.41487954346371

          :  Hamiltonian                  GFN2-xTB          :
         :: total energy            -124.145401126654 Eh    ::
         :: gradient norm              0.000682313523 Eh/a0 ::
         :: HOMO-LUMO gap              2.815211376380 eV    ::
         :: SCC energy              -126.184363450572 Eh    ::
         :: -> dispersion             -0.121916163379 Eh    ::
         :: repulsion energy           2.033603662079 Eh    ::

    * Orbital Energies and Occupations

         #    Occupation            Energy/Eh            Energy/eV
      -------------------------------------------------------------
         1        2.0000           -0.7695787             -20.9413
       ...           ...                  ...                  ...
       101        2.0000           -0.4195371             -11.4162
       102        2.0000           -0.4128808             -11.2351
       103        2.0000           -0.4121845             -11.2161
       104        2.0000           -0.4067531             -11.0683
       105        2.0000           -0.4043091             -11.0018
       106        2.0000           -0.4033177             -10.9748
       107        2.0000           -0.4016995             -10.9308
       108        2.0000           -0.3964302             -10.7874
       109        2.0000           -0.3955380             -10.7631
       110        2.0000           -0.3928988             -10.6913
       111        2.0000           -0.3883875             -10.5686
       112        2.0000           -0.3868353             -10.5263
       113        2.0000           -0.3765717             -10.2470 (HOMO)
       114                         -0.2731146              -7.4318 (LUMO)
       115                         -0.2615246              -7.1164
       116                         -0.2579429              -7.0190
       117                         -0.2458985              -6.6912
       118                         -0.2396146              -6.5202
       119                         -0.2356509              -6.4124
       120                         -0.2300074              -6.2588
       121                         -0.2287371              -6.2243
       122                         -0.2216561              -6.0316
       123                         -0.2156932              -5.8693
       124                         -0.2031130              -5.5270
       ...                                ...                  ...
       216                          0.6931970              18.8628
      -------------------------------------------------------------
                  HL-Gap            0.1034571 Eh            2.8152 eV

     #   Z          covCN         q      C6AA      Î±(0)
     1   6 C        2.921    -0.034    28.839     8.806
     2   6 C        2.915    -0.029    28.730     8.789
     3   6 C        2.917    -0.028    28.695     8.784
     4   6 C        2.917    -0.033    28.823     8.804
     5   6 C        2.984     0.009    27.819     8.652
     6   6 C        2.989     0.015    27.659     8.627
     7   6 C        2.921    -0.035    28.882     8.813
     8   6 C        2.914    -0.030    28.750     8.792
     9   6 C        2.923    -0.035    28.870     8.811
    10   6 C        2.967    -0.006    28.160     8.704
    11   6 C        3.828     0.039    19.905     6.348
    12   6 C        3.842     0.055    19.634     6.303
    13   6 C        2.969     0.008    27.848     8.656
    14   6 C        2.922    -0.029    28.735     8.791
    15   6 C        2.914    -0.029    28.719     8.788
    16   6 C        2.920    -0.036    28.894     8.815
    17   6 C        2.989     0.016    27.648     8.625
    18   6 C        2.984     0.011    27.766     8.644
    19   6 C        2.917    -0.033    28.821     8.803
    20   6 C        2.917    -0.029    28.720     8.788
    21   6 C        2.915    -0.029    28.734     8.790
    22   6 C        2.921    -0.034    28.852     8.809
    23   7 N        2.763    -0.141    24.046     7.283
    24   6 C        2.765     0.282    22.230     7.721
    25   6 C        2.974    -0.017    28.423     8.745
    26   6 C        2.924    -0.020    28.500     8.755
    27   6 C        2.918    -0.028    28.697     8.785
    28   6 C        2.925    -0.037    28.923     8.820
    29   6 C        2.965     0.020    27.555     8.610
    30   6 C        3.758    -0.111    22.666     6.788
    31   6 C        2.928    -0.044    29.087     8.845
    32   8 O        0.859    -0.406    21.799     6.260
    33   6 C        3.780     0.096    19.014     6.212
    34   6 C        2.687     0.351    21.047     7.508
    35   8 O        1.659    -0.352    19.942     6.028
    36   8 O        0.856    -0.390    21.487     6.215
    37   7 N        2.765    -0.119    23.584     7.213
    38   6 C        2.763     0.274    22.365     7.745
    39   6 C        2.978    -0.014    28.363     8.736
    40   6 C        2.928    -0.038    28.935     8.821
    41   6 C        2.966     0.021    27.534     8.607
    42   6 C        3.758    -0.110    22.654     6.786
    43   6 C        2.926    -0.038    28.952     8.824
    44   6 C        2.919    -0.028    28.700     8.785
    45   6 C        2.924    -0.028    28.698     8.785
    46   8 O        0.859    -0.421    22.109     6.304
    47   1 H        0.926     0.037     2.489     2.467
    48   1 H        0.926     0.035     2.513     2.479
    49   1 H        0.926     0.034     2.527     2.486
    50   1 H        0.926     0.027     2.622     2.532
    51   1 H        0.926     0.038     2.470     2.458
    52   1 H        0.926     0.037     2.489     2.467
    53   1 H        0.926     0.034     2.533     2.489
    54   1 H        0.924     0.049     2.329     2.386
    55   1 H        0.924     0.048     2.351     2.398
    56   1 H        0.926     0.034     2.532     2.488
    57   1 H        0.926     0.036     2.506     2.475
    58   1 H        0.926     0.036     2.502     2.474
    59   1 H        0.926     0.026     2.640     2.541
    60   1 H        0.926     0.030     2.580     2.512
    61   1 H        0.926     0.033     2.548     2.496
    62   1 H        0.926     0.035     2.518     2.482
    63   1 H        0.926     0.057     2.231     2.336
    64   1 H        0.926     0.039     2.461     2.453
    65   1 H        0.926     0.036     2.501     2.473
    66   1 H        0.925     0.046     2.371     2.408
    67   1 H        0.924     0.051     2.310     2.377
    68   1 H        0.925     0.046     2.365     2.405
    69   1 H        0.925     0.029     2.604     2.524
    70   1 H        0.923     0.093     1.853     2.129
    71   1 H        0.804     0.342     0.607     1.224
    72   1 H        0.925     0.030     2.587     2.515
    73   1 H        0.925     0.047     2.351     2.398
    74   1 H        0.924     0.054     2.276     2.359
    75   1 H        0.925     0.043     2.407     2.426
    76   1 H        0.926     0.036     2.504     2.474
    77   1 H        0.926     0.037     2.490     2.468
    78   1 H        0.926     0.038     2.470     2.458

Wiberg/Mayer (AO) data.
largest (>0.10) Wiberg bond orders for each atom

     #   Z sym  total        # sym  WBO       # sym  WBO       # sym  WBO
 ---------------------------------------------------------------------------
     1   6 C    3.991 --     2 C    1.558     6 C    1.278    47 H    0.968
                             4 C    0.119
     2   6 C    3.992 --     1 C    1.558     3 C    1.321    48 H    0.971
     3   6 C    3.991 --     4 C    1.555     2 C    1.321    49 H    0.971
     4   6 C    3.992 --     3 C    1.555     5 C    1.282    50 H    0.961
                             1 C    0.119
     5   6 C    3.988 --     4 C    1.282     6 C    1.253    10 C    1.252
     6   6 C    3.990 --     7 C    1.281     1 C    1.278     5 C    1.253
     7   6 C    3.990 --     8 C    1.550     6 C    1.281    51 H    0.968
                            10 C    0.115
     8   6 C    3.992 --     7 C    1.550     9 C    1.330    52 H    0.970
     9   6 C    3.990 --    10 C    1.518     8 C    1.330    53 H    0.966
    10   6 C    3.985 --     9 C    1.518     5 C    1.252    11 C    0.994
                             7 C    0.115
    11   6 C    3.965 --    10 C    0.994    37 N    0.960    54 H    0.946
                            12 C    0.945
    12   6 C    3.967 --    13 C    0.995    23 N    0.963    55 H    0.948
                            11 C    0.945
    13   6 C    3.984 --    14 C    1.524    18 C    1.252    12 C    0.995
                            16 C    0.115
    14   6 C    3.990 --    13 C    1.524    15 C    1.327    56 H    0.967
    15   6 C    3.992 --    16 C    1.553    14 C    1.327    57 H    0.970
    16   6 C    3.990 --    15 C    1.553    17 C    1.279    58 H    0.968
                            13 C    0.115
    17   6 C    3.990 --    22 C    1.279    16 C    1.279    18 C    1.253
    18   6 C    3.989 --    19 C    1.283    17 C    1.253    13 C    1.252
    19   6 C    3.992 --    20 C    1.554    18 C    1.283    59 H    0.962
                            22 C    0.118
    20   6 C    3.992 --    19 C    1.554    21 C    1.322    60 H    0.971
    21   6 C    3.992 --    22 C    1.557    20 C    1.322    61 H    0.971
    22   6 C    3.991 --    21 C    1.557    17 C    1.279    62 H    0.968
                            19 C    0.118
    23   7 N    3.389 --    24 C    1.144    33 C    0.991    12 C    0.963
                            32 O    0.168
    24   6 C    3.940 --    32 O    1.722    23 N    1.144    25 C    0.982
    25   6 C    3.987 --    31 C    1.400    26 C    1.398    24 C    0.982
                            28 C    0.106
    26   6 C    3.989 --    27 C    1.442    25 C    1.398    63 H    0.968
                            29 C    0.106
    27   6 C    3.992 --    28 C    1.444    26 C    1.442    64 H    0.970
                            31 C    0.107
    28   6 C    3.991 --    27 C    1.444    29 C    1.405    65 H    0.969
                            25 C    0.106
    29   6 C    3.989 --    31 C    1.418    28 C    1.405    30 C    1.025
                            26 C    0.106
    30   6 C    3.995 --    29 C    1.025    68 H    0.982    66 H    0.981
                            67 H    0.967
    31   6 C    3.990 --    29 C    1.418    25 C    1.400    69 H    0.966
                            27 C    0.107
    32   8 O    2.036 --    24 C    1.722    23 N    0.168
    33   6 C    3.970 --    23 N    0.991    37 N    0.986    70 H    0.921
                            34 C    0.911
    34   6 C    3.917 --    36 O    1.775    35 O    1.162    33 C    0.911
    35   8 O    2.231 --    34 C    1.162    71 H    0.856    36 O    0.181
    36   8 O    2.066 --    34 C    1.775    35 O    0.181
    37   7 N    3.454 --    38 C    1.200    33 C    0.986    11 C    0.960
                            46 O    0.189
    38   6 C    3.942 --    46 O    1.702    37 N    1.200    39 C    0.956
    39   6 C    3.987 --    40 C    1.410    45 C    1.406    38 C    0.956
                            43 C    0.110
    40   6 C    3.990 --    41 C    1.415    39 C    1.410    72 H    0.967
                            44 C    0.107
    41   6 C    3.988 --    40 C    1.415    43 C    1.405    42 C    1.026
                            45 C    0.108
    42   6 C    3.995 --    41 C    1.026    75 H    0.985    73 H    0.976
                            74 H    0.968
    43   6 C    3.991 --    44 C    1.449    41 C    1.405    76 H    0.970
                            39 C    0.110
    44   6 C    3.992 --    43 C    1.449    45 C    1.436    77 H    0.970
                            40 C    0.107
    45   6 C    3.990 --    44 C    1.436    39 C    1.406    78 H    0.970
                            41 C    0.108
    46   8 O    2.022 --    38 C    1.702    37 N    0.189
    47   1 H    0.998 --     1 C    0.968
    48   1 H    0.998 --     2 C    0.971
    49   1 H    0.998 --     3 C    0.971
    50   1 H    0.999 --     4 C    0.961
    51   1 H    0.998 --     7 C    0.968
    52   1 H    0.998 --     8 C    0.970
    53   1 H    0.998 --     9 C    0.966
    54   1 H    0.997 --    11 C    0.946
    55   1 H    0.997 --    12 C    0.948
    56   1 H    0.998 --    14 C    0.967
    57   1 H    0.998 --    15 C    0.970
    58   1 H    0.998 --    16 C    0.968
    59   1 H    0.999 --    19 C    0.962
    60   1 H    0.999 --    20 C    0.971
    61   1 H    0.998 --    21 C    0.971
    62   1 H    0.998 --    22 C    0.968
    63   1 H    0.996 --    26 C    0.968
    64   1 H    0.998 --    27 C    0.970
    65   1 H    0.998 --    28 C    0.969
    66   1 H    0.998 --    30 C    0.981
    67   1 H    0.997 --    30 C    0.967
    68   1 H    0.997 --    30 C    0.982
    69   1 H    0.999 --    31 C    0.966
    70   1 H    0.991 --    33 C    0.921
    71   1 H    0.882 --    35 O    0.856
    72   1 H    0.999 --    40 C    0.967
    73   1 H    0.997 --    42 C    0.976
    74   1 H    0.997 --    42 C    0.968
    75   1 H    0.998 --    42 C    0.985
    76   1 H    0.998 --    43 C    0.970
    77   1 H    0.998 --    44 C    0.970
    78   1 H    0.998 --    45 C    0.970
 ---------------------------------------------------------------------------

molecular dipole:
                 x           y           z       tot (Debye)
 q only:        1.270      -0.715      -1.134
   full:        1.411      -0.512      -0.977       4.553

           -------------------------------------------------
          | TOTAL ENERGY             -124.145401126654 Eh   |
          | GRADIENT NORM               0.000682313523 Eh/Î± |
          | HOMO-LUMO GAP               2.815211376380 eV   |
           -------------------------------------------------

 * finished run on 2022/03/16 at 23:33:45.190
