   * xtb version 6.3.3 (4ae9cef) compiled by 'conda@95abc7406d43' on 2020-10-14
          program call               : xtb acid_414.xyz --opt --chrg 0 --uhf 0 --gfn 2
          number of atoms            :                    66
          number of electrons        :                   206
          charge                     :                     0
          spin                       :                   0.0

   ID    Z sym.   atoms
    1    6 C      1-22, 24-28, 31, 32, 36-40
    2    7 N      23, 35
    3   16 S      29, 41
    4    8 O      30, 33, 34, 42
    5    1 H      43-66

          :  Hamiltonian                  GFN2-xTB          :
 * total energy  :  -113.6437322 Eh     change       -0.3209010E-08 Eh
 * total energy  :  -113.6594740 Eh     change       -0.1574178E-01 Eh
 * total energy  :  -113.6636801 Eh     change       -0.4206109E-02 Eh
 * total energy  :  -113.6646449 Eh     change       -0.9648631E-03 Eh
 * total energy  :  -113.6651210 Eh     change       -0.4760995E-03 Eh
 * total energy  :  -113.6653958 Eh     change       -0.2747872E-03 Eh
 * total energy  :  -113.6657784 Eh     change       -0.3825430E-03 Eh
 * total energy  :  -113.6661016 Eh     change       -0.3232113E-03 Eh
 * total energy  :  -113.6663942 Eh     change       -0.2926295E-03 Eh
 * total energy  :  -113.6666213 Eh     change       -0.2271246E-03 Eh
 * total energy  :  -113.6703605 Eh     change       -0.4136101E-04 Eh
 * total energy  :  -113.6703968 Eh     change       -0.3624686E-04 Eh
 * total energy  :  -113.6704218 Eh     change       -0.2507160E-04 Eh
 * total energy  :  -113.6704414 Eh     change       -0.1961460E-04 Eh
 * total energy  :  -113.6704617 Eh     change       -0.2023409E-04 Eh
 * total energy  :  -113.6704829 Eh     change       -0.2118769E-04 Eh
 * total energy  :  -113.6704964 Eh     change       -0.1354189E-04 Eh
 * total energy  :  -113.6705025 Eh     change       -0.6068438E-05 Eh
 * total energy  :  -113.6705073 Eh     change       -0.4786973E-05 Eh
   *** GEOMETRY OPTIMIZATION CONVERGED AFTER 60 ITERATIONS ***

 final structure:
================
66
 xtb: 6.3.3 (4ae9cef)
C        -3.62639977517100    4.24776866776638    0.71283887124268
C        -3.54837635534525    4.55589455115105   -0.61546785305549
C        -2.59713453086321    3.91787837947844   -1.42309381536372
C        -1.74297315713158    2.98787933711167   -0.89657813374352
C        -1.79328174439130    2.64663975759670    0.47413048584828
C        -2.76237037947084    3.29338986052618    1.28864539844461
C        -2.85183543956732    2.96655771063624    2.65754908675922
C        -2.01746828242818    2.03627244190418    3.20305397743525
C        -1.05863596322169    1.39251721578521    2.40744927736218
C        -0.92938788281102    1.68273145767839    1.07223757764462
C         0.06802158946610    0.96307371471351    0.19417050849223
C         1.07214555366914    0.04819865464244    0.91796179345790
C         2.27178239270513   -0.16571980903321    0.01999827727117
C         2.40349746279440   -1.31386289779952   -0.71620812595607
C         3.46764307920994   -1.48854100832826   -1.61142767033933
C         4.40072360005963   -0.50572878874779   -1.76467166043556
C         4.31121899758755    0.68930429552013   -1.02114870198812
C         3.23165485520320    0.87363644297856   -0.11585981728478
C         3.16477993298306    2.08705569146940    0.60390180714849
C         4.11534932076037    3.05645157721479    0.44100258845327
C         5.18063827136690    2.87001690438644   -0.45087687000950
C         5.27353607915612    1.71031167640381   -1.16596240023016
N         0.30244560325439   -1.17685940220360    1.10044615397120
C         0.52902307972908   -1.98340479749422    2.18016036478338
C        -0.18632535549037   -3.26765150214084    2.20429535863437
C        -0.41815502466557   -4.17058140878875    1.20260941543112
C        -1.04899718402796   -5.34225082657674    1.66095687103156
C        -1.28265328072075   -5.31255683448025    3.00073658029559
S        -0.72124010242056   -3.86942657494825    3.72997112530242
O         1.32315579001456   -1.66162509937468    3.04185311646569
C        -0.84819286419423   -1.16521953033004    0.21904369269626
C        -2.18836486047564   -1.00926048527074    0.99272491410248
O        -3.10476074396465   -0.29685985879475    0.33954755085868
O        -2.40297459576472   -1.54323787429227    2.03781733934302
N        -0.63616290795311   -0.02723520258361   -0.64247039558985
C        -0.29575118554290   -0.11673260683322   -1.97798407129167
C        -0.73999544540359   -1.32620317211970   -2.68500990115351
C        -1.89611041067818   -2.05819146561619   -2.59448372168908
C        -1.92996000331226   -3.12896852165033   -3.50777062008712
C        -0.80632192381841   -3.19540196938692   -4.27251561612334
S         0.30559243268834   -1.94124646617326   -3.91845321829376
O         0.27848214931024    0.78805203961360   -2.54659537452200
H        -4.35423391991536    4.73085300724991    1.34860677554568
H        -4.21224471948414    5.28852102378166   -1.04966559368522
H        -2.53780924835302    4.16593230005142   -2.47244909525773
H        -1.02256549176460    2.52121378986576   -1.54926052379804
H        -3.59696184756615    3.46313111739153    3.26151107517669
H        -2.08649794678980    1.77580761262669    4.24773430935860
H        -0.43089587292383    0.65684222768030    2.88467424420780
H         0.58555815223279    1.66348007983004   -0.46528426577458
H         1.39642142462751    0.41658791594725    1.89274803178104
H         1.68572483638605   -2.11420943710955   -0.60545959803475
H         3.53259583505477   -2.40486931361208   -2.17923224067786
H         5.22079532779349   -0.62612520380164   -2.45739360865774
H         2.35583660536070    2.25831864445567    1.29728182694494
H         4.04863762901333    3.97610729614142    1.00344508207258
H         5.92179670419090    3.64704685365197   -0.56574779852637
H         6.08917246350417    1.55405317487117   -1.85742689225006
H        -0.11446437216267   -4.03247186555978    0.17897439500537
H        -1.31433395757644   -6.16531810851218    1.02173117969086
H        -1.75656182859490   -6.06210519997740    3.60278708934236
H        -0.93232075149259   -2.09322806048612   -0.36040207546799
H        -2.71266137580379    0.19306481917886   -0.40667825209595
H        -2.71061518436050   -1.82869985952528   -1.92962989998129
H        -2.75238660724938   -3.81641565356761   -3.58672018166050
H        -0.56784464525422   -3.91438643418763   -5.03067014859578

          :  Hamiltonian                  GFN2-xTB          :
         :: total energy            -113.670507256490 Eh    ::
         :: gradient norm              0.000466489258 Eh/a0 ::
         :: HOMO-LUMO gap              2.458976181846 eV    ::
         :: SCC energy              -115.404428153300 Eh    ::
         :: -> dispersion             -0.105991032414 Eh    ::
         :: repulsion energy           1.730280161822 Eh    ::

    * Orbital Energies and Occupations

         #    Occupation            Energy/Eh            Energy/eV
      -------------------------------------------------------------
         1        2.0000           -0.7716294             -20.9971
       ...           ...                  ...                  ...
        91        2.0000           -0.4241419             -11.5415
        92        2.0000           -0.4229748             -11.5097
        93        2.0000           -0.4223414             -11.4925
        94        2.0000           -0.4197307             -11.4215
        95        2.0000           -0.4150611             -11.2944
        96        2.0000           -0.4111197             -11.1871
        97        2.0000           -0.4058108             -11.0427
        98        2.0000           -0.4050345             -11.0216
        99        2.0000           -0.4029906             -10.9659
       100        2.0000           -0.3980235             -10.8308
       101        2.0000           -0.3920027             -10.6669
       102        2.0000           -0.3890438             -10.5864
       103        2.0000           -0.3821130             -10.3978 (HOMO)
       104                         -0.2917473              -7.9388 (LUMO)
       105                         -0.2723380              -7.4107
       106                         -0.2659430              -7.2367
       107                         -0.2645422              -7.1986
       108                         -0.2618508              -7.1253
       109                         -0.2380856              -6.4786
       110                         -0.2362513              -6.4287
       111                         -0.2324024              -6.3240
       112                         -0.2174415              -5.9169
       113                         -0.2103670              -5.7244
       114                         -0.2035127              -5.5379
       ...                                ...                  ...
       202                          0.6968959              18.9635
      -------------------------------------------------------------
                  HL-Gap            0.0903657 Eh            2.4590 eV

     #   Z          covCN         q      C6AA      Î±(0)
     1   6 C        2.921    -0.033    28.821     8.804
     2   6 C        2.915    -0.029    28.716     8.787
     3   6 C        2.917    -0.028    28.709     8.786
     4   6 C        2.916    -0.047    29.175     8.857
     5   6 C        2.985     0.003    27.952     8.672
     6   6 C        2.987     0.016    27.648     8.625
     7   6 C        2.919    -0.032    28.788     8.799
     8   6 C        2.914    -0.026    28.645     8.776
     9   6 C        2.919    -0.035    28.876     8.812
    10   6 C        2.966    -0.018    28.462     8.751
    11   6 C        3.859     0.039    19.881     6.341
    12   6 C        3.838     0.043    19.822     6.334
    13   6 C        2.970    -0.004    28.108     8.696
    14   6 C        2.921    -0.032    28.801     8.801
    15   6 C        2.914    -0.029    28.727     8.789
    16   6 C        2.920    -0.033    28.827     8.805
    17   6 C        2.988     0.018    27.591     8.616
    18   6 C        2.986     0.010    27.795     8.648
    19   6 C        2.917    -0.037    28.910     8.817
    20   6 C        2.917    -0.027    28.679     8.782
    21   6 C        2.915    -0.028    28.694     8.784
    22   6 C        2.921    -0.032    28.798     8.800
    23   7 N        2.764    -0.133    23.877     7.257
    24   6 C        2.797     0.276    22.342     7.743
    25   6 C        2.996    -0.014    28.349     8.734
    26   6 C        3.119    -0.048    29.019     8.823
    27   6 C        3.114    -0.046    28.970     8.817
    28   6 C        2.945    -0.026    28.644     8.778
    29  16 S        2.346     0.072   138.141    19.782
    30   8 O        0.860    -0.424    22.167     6.312
    31   6 C        3.786     0.079    19.283     6.255
    32   6 C        2.685     0.348    21.095     7.516
    33   8 O        1.658    -0.359    20.065     6.047
    34   8 O        0.856    -0.349    20.688     6.098
    35   7 N        2.769    -0.157    24.395     7.336
    36   6 C        2.803     0.273    22.392     7.752
    37   6 C        2.995    -0.026    28.646     8.780
    38   6 C        3.108    -0.049    29.071     8.834
    39   6 C        3.110    -0.043    28.915     8.810
    40   6 C        2.943    -0.024    28.593     8.770
    41  16 S        2.337     0.062   138.548    19.811
    42   8 O        0.859    -0.414    21.964     6.283
    43   1 H        0.926     0.037     2.492     2.469
    44   1 H        0.926     0.035     2.522     2.483
    45   1 H        0.926     0.035     2.511     2.478
    46   1 H        0.926     0.047     2.364     2.404
    47   1 H        0.926     0.041     2.442     2.443
    48   1 H        0.926     0.044     2.390     2.417
    49   1 H        0.926     0.045     2.377     2.411
    50   1 H        0.924     0.084     1.936     2.176
    51   1 H        0.924     0.081     1.967     2.193
    52   1 H        0.926     0.018     2.767     2.601
    53   1 H        0.926     0.033     2.543     2.494
    54   1 H        0.926     0.038     2.481     2.463
    55   1 H        0.926     0.029     2.593     2.518
    56   1 H        0.926     0.034     2.528     2.486
    57   1 H        0.926     0.035     2.523     2.484
    58   1 H        0.926     0.036     2.502     2.474
    59   1 H        0.926     0.022     2.699     2.569
    60   1 H        0.926     0.041     2.434     2.440
    61   1 H        0.926     0.055     2.259     2.350
    62   1 H        0.924     0.066     2.131     2.283
    63   1 H        0.804     0.336     0.623     1.240
    64   1 H        0.926     0.040     2.449     2.447
    65   1 H        0.926     0.051     2.305     2.374
    66   1 H        0.926     0.060     2.201     2.320

Wiberg/Mayer (AO) data.
largest (>0.10) Wiberg bond orders for each atom

     #   Z sym  total        # sym  WBO       # sym  WBO       # sym  WBO
 ---------------------------------------------------------------------------
     1   6 C    3.991 --     2 C    1.554     6 C    1.281    43 H    0.968
                             4 C    0.119
     2   6 C    3.992 --     1 C    1.554     3 C    1.326    44 H    0.971
     3   6 C    3.992 --     4 C    1.551     2 C    1.326    45 H    0.971
     4   6 C    3.990 --     3 C    1.551     5 C    1.286    46 H    0.961
                             1 C    0.119
     5   6 C    3.988 --     4 C    1.286     6 C    1.255    10 C    1.243
     6   6 C    3.990 --     1 C    1.281     7 C    1.275     5 C    1.255
     7   6 C    3.990 --     8 C    1.561     6 C    1.275    47 H    0.967
                            10 C    0.113
     8   6 C    3.991 --     7 C    1.561     9 C    1.317    48 H    0.970
     9   6 C    3.990 --    10 C    1.530     8 C    1.317    49 H    0.963
    10   6 C    3.982 --     9 C    1.530     5 C    1.243    11 C    0.989
                             7 C    0.113
    11   6 C    3.953 --    10 C    0.989    12 C    0.959    50 H    0.945
                            35 N    0.937
    12   6 C    3.961 --    13 C    0.985    23 N    0.963    11 C    0.959
                            51 H    0.940
    13   6 C    3.984 --    14 C    1.531    18 C    1.247    12 C    0.985
                            16 C    0.114
    14   6 C    3.991 --    13 C    1.531    15 C    1.319    52 H    0.966
    15   6 C    3.992 --    16 C    1.559    14 C    1.319    53 H    0.970
    16   6 C    3.991 --    15 C    1.559    17 C    1.275    54 H    0.968
                            13 C    0.114
    17   6 C    3.990 --    22 C    1.281    16 C    1.275    18 C    1.256
    18   6 C    3.989 --    19 C    1.285    17 C    1.256    13 C    1.247
    19   6 C    3.992 --    20 C    1.553    18 C    1.285    55 H    0.966
                            22 C    0.118
    20   6 C    3.992 --    19 C    1.553    21 C    1.324    56 H    0.971
    21   6 C    3.992 --    22 C    1.556    20 C    1.324    57 H    0.971
    22   6 C    3.991 --    21 C    1.556    17 C    1.281    58 H    0.968
                            19 C    0.118
    23   7 N    3.436 --    24 C    1.175    31 C    0.979    12 C    0.963
                            30 O    0.179
    24   6 C    3.951 --    30 O    1.673    23 N    1.175    25 C    1.019
    25   6 C    3.953 --    26 C    1.543    29 S    1.175    24 C    1.019
                            28 C    0.106
    26   6 C    3.986 --    25 C    1.543    27 C    1.299    59 H    0.962
    27   6 C    3.987 --    28 C    1.595    26 C    1.299    60 H    0.966
    28   6 C    3.953 --    27 C    1.595    29 S    1.234    61 H    0.970
                            25 C    0.106
    29  16 S    2.685 --    28 C    1.234    25 C    1.175
    30   8 O    2.014 --    24 C    1.673    23 N    0.179
    31   6 C    3.969 --    35 N    0.993    23 N    0.979    62 H    0.923
                            32 C    0.902
    32   6 C    3.924 --    34 O    1.803    33 O    1.150    31 C    0.902
    33   8 O    2.221 --    32 C    1.150    63 H    0.841    34 O    0.168
    34   8 O    2.097 --    32 C    1.803    33 O    0.168
    35   7 N    3.411 --    36 C    1.145    31 C    0.993    11 C    0.937
                            42 O    0.167
    36   6 C    3.950 --    42 O    1.690    35 N    1.145    37 C    1.027
    37   6 C    3.948 --    38 C    1.531    41 S    1.167    36 C    1.027
                            40 C    0.106
    38   6 C    3.986 --    37 C    1.531    39 C    1.302    64 H    0.963
                            41 S    0.102
    39   6 C    3.987 --    40 C    1.595    38 C    1.302    65 H    0.964
    40   6 C    3.953 --    39 C    1.595    41 S    1.235    66 H    0.969
                            37 C    0.106
    41  16 S    2.686 --    40 C    1.235    37 C    1.167    38 C    0.102
    42   8 O    2.033 --    36 C    1.690    35 N    0.167
    43   1 H    0.998 --     1 C    0.968
    44   1 H    0.998 --     2 C    0.971
    45   1 H    0.998 --     3 C    0.971
    46   1 H    0.997 --     4 C    0.961
    47   1 H    0.997 --     7 C    0.967
    48   1 H    0.997 --     8 C    0.970
    49   1 H    0.997 --     9 C    0.963
    50   1 H    0.992 --    11 C    0.945
    51   1 H    0.993 --    12 C    0.940
    52   1 H    0.999 --    14 C    0.966
    53   1 H    0.998 --    15 C    0.970
    54   1 H    0.998 --    16 C    0.968
    55   1 H    0.999 --    19 C    0.966
    56   1 H    0.998 --    20 C    0.971
    57   1 H    0.998 --    21 C    0.971
    58   1 H    0.998 --    22 C    0.968
    59   1 H    1.000 --    26 C    0.962
    60   1 H    0.998 --    27 C    0.966
    61   1 H    0.996 --    28 C    0.970
    62   1 H    0.996 --    31 C    0.923
    63   1 H    0.887 --    33 O    0.841
    64   1 H    0.998 --    38 C    0.963
    65   1 H    0.997 --    39 C    0.964
    66   1 H    0.996 --    40 C    0.969
 ---------------------------------------------------------------------------

molecular dipole:
                 x           y           z       tot (Debye)
 q only:       -0.572      -0.085      -1.328
   full:       -0.776      -0.242      -1.877       5.198

           -------------------------------------------------
          | TOTAL ENERGY             -113.670507256490 Eh   |
          | GRADIENT NORM               0.000466489258 Eh/Î± |
          | HOMO-LUMO GAP               2.458976181846 eV   |
           -------------------------------------------------

 * finished run on 2022/03/17 at 00:55:25.909
