   * xtb version 6.3.3 (4ae9cef) compiled by 'conda@95abc7406d43' on 2020-10-14
          program call               : xtb acid_421.xyz --opt --chrg 0 --uhf 0 --gfn 2
          number of atoms            :                    78
          number of electrons        :                   242
          charge                     :                     0
          spin                       :                   0.0

   ID    Z sym.   atoms
    1    6 C      1-22, 24-32, 35, 36, 40-48
    2    7 N      23, 39
    3    8 O      33, 34, 37, 38, 49, 50
    4    1 H      51-78

          :  Hamiltonian                  GFN2-xTB          :
 * total energy  :  -134.4956891 Eh     change       -0.6134172E-08 Eh
 * total energy  :  -134.5129044 Eh     change       -0.1721524E-01 Eh
 * total energy  :  -134.5180696 Eh     change       -0.5165210E-02 Eh
 * total energy  :  -134.5193496 Eh     change       -0.1279987E-02 Eh
 * total energy  :  -134.5200085 Eh     change       -0.6589181E-03 Eh
 * total energy  :  -134.5202177 Eh     change       -0.2092108E-03 Eh
 * total energy  :  -134.5204026 Eh     change       -0.1849296E-03 Eh
 * total energy  :  -134.5205921 Eh     change       -0.1894574E-03 Eh
 * total energy  :  -134.5207723 Eh     change       -0.1802545E-03 Eh
 * total energy  :  -134.5209646 Eh     change       -0.1922262E-03 Eh
 * total energy  :  -134.5256881 Eh     change       -0.8379158E-05 Eh
 * total energy  :  -134.5256975 Eh     change       -0.9434372E-05 Eh
 * total energy  :  -134.5257062 Eh     change       -0.8715215E-05 Eh
 * total energy  :  -134.5257155 Eh     change       -0.9306515E-05 Eh
 * total energy  :  -134.5257263 Eh     change       -0.1075403E-04 Eh
 * total energy  :  -134.5257359 Eh     change       -0.9592808E-05 Eh
 * total energy  :  -134.5257430 Eh     change       -0.7184392E-05 Eh
 * total energy  :  -134.5257486 Eh     change       -0.5542209E-05 Eh
 * total energy  :  -134.5257504 Eh     change       -0.1803633E-05 Eh
   *** GEOMETRY OPTIMIZATION CONVERGED AFTER 94 ITERATIONS ***

 final structure:
================
78
 xtb: 6.3.3 (4ae9cef)
C        -2.30717829018802    3.16611821957078    1.80548977480954
C        -2.54402775900828    3.38395686036607    3.13144939725777
C        -2.25957352289468    2.38941454794092    4.09067094516134
C        -2.47966290000740    2.58556455371353    5.46919906391999
C        -2.18367206073522    1.60069024307425    6.36964701695585
C        -1.65416570444573    0.37635243554062    5.93296099310554
C        -1.43367103325611    0.15430726650281    4.60267268704213
C        -1.73086719989022    1.14952979091306    3.64930128114766
C        -1.50731062057664    0.95264402560525    2.27212687680107
C        -1.78203374141454    1.93698830424497    1.36116376116619
C        -1.46465408753729    1.77882907453209   -0.10708071839638
C        -0.02507101312296    2.25204144052674   -0.36926985015006
C         0.31264298310917    2.66808953318634   -1.78153637514074
C         1.56988188812317    3.17236831567224   -2.00756462539105
C         1.99389819282596    3.53684848701487   -3.29853383340677
C         3.28300795204599    4.05482310603823   -3.54622306119960
C         3.66226436637298    4.40035411445686   -4.81227386936363
C         2.77277388864637    4.24496343958609   -5.88835250995535
C         1.51812302642597    3.74523638210738   -5.68128433450847
C         1.09556613010261    3.37921313358567   -4.38616415976424
C        -0.18876049752480    2.85982464135296   -4.12950356866036
C        -0.57287423455608    2.51113707098535   -2.86413018964780
N         0.72285993044321    1.03826477553143   -0.03980225739032
C         1.53894151305542    1.01454653789045    1.05816717324815
C         2.05683979394025   -0.32130979695946    1.43189625629455
C         2.54516936156848   -1.33941085820573    0.66450259945860
C         2.98162622577429   -2.34443348837143    1.57622736390421
C         3.55927719436346   -3.60784250259421    1.45052812920542
C         3.83734495913751   -4.30984000821713    2.60143648434584
C         3.55277506654220   -3.78345079551372    3.86502770144880
C         2.98172917616049   -2.53691830698256    4.01788371560053
C         2.70562561208515   -1.82527734409170    2.85943047450377
O         2.15317481303958   -0.59836232213735    2.75966263679732
O         1.85287198459514    2.02791102085087    1.64229992531155
C        -0.02311382586296   -0.06193577459782   -0.58805692905393
C         0.44142222946546   -0.33041042083647   -2.03622309836292
O        -0.56495214918287   -0.47803911766711   -2.88446942406007
O         1.59699028430399   -0.43449747915693   -2.33851118952716
N        -1.40190050797064    0.37601796647085   -0.50187978371433
C        -2.52468494228029   -0.30652168116447   -0.84156300074511
C        -2.33585410832646   -1.76625249346415   -1.06826371280767
C        -1.77245506288786   -2.71715844317661   -0.27041800623010
C        -1.97355644884756   -3.96326065451909   -0.93319564121400
C        -2.66842068956430   -3.63951428199958   -2.11698788300363
C        -3.03860375096289   -4.60568882857275   -3.04075097754171
C        -2.70184948035762   -5.91181487069784   -2.74998837272972
C        -2.01565219945929   -6.24837478291743   -1.57997650315040
C        -1.64459982691352   -5.29082390119176   -0.66299074883465
O        -2.88762481791264   -2.30884709765568   -2.18137863196933
O        -3.60806957690662    0.23123517694540   -0.91290673175811
H        -2.52052730152373    3.93523394457072    1.07736734464018
H        -2.95068713817438    4.32731409829553    3.46622790584379
H        -2.88462706929910    3.53105852205127    5.80071539229206
H        -2.35281913657356    1.75756110807453    7.42494484405991
H        -1.42252727851855   -0.38895314728362    6.65940277150588
H        -1.02278379149255   -0.78612040258327    4.26296451128723
H        -1.11741071207790   -0.00417626106238    1.95416783799935
H        -2.21423886990971    2.30313866547301   -0.70358081443047
H         0.28046435970303    3.03139231938746    0.33547454820071
H         2.25487801161855    3.28762323556375   -1.17977034778892
H         3.96200597157998    4.17117496864488   -2.71419382861767
H         4.64995420900127    4.79652659947411   -4.99689354865195
H         3.09095124949563    4.52474381189434   -6.88197169145370
H         0.82976371535953    3.62458480550496   -6.50585526892515
H        -0.87494988364049    2.73806584244101   -4.95578761242418
H        -1.56089306204234    2.10609433999713   -2.70847250177583
H         2.61868881876950   -1.35231985537621   -0.40428856283928
H         3.77917477399450   -4.01355582421629    0.47521760263018
H         4.28640761582990   -5.28941850177766    2.53375805070276
H         3.78836459288341   -4.36792993510099    4.74136752902624
H         2.76198334271921   -2.12147403657591    4.98793713278297
H         0.17012330617989   -0.98359268342485   -0.02331255924982
H        -0.24609126885775   -0.64094126144638   -3.78762203405611
H        -1.30809265728721   -2.57340307476877    0.68477783216478
H        -3.57127359287851   -4.33838792631676   -3.93889790109472
H        -2.97568238789133   -6.69471331117683   -3.44068146308161
H        -1.77492956768351   -7.28464448972675   -1.39586568780389
H        -1.11517476877366   -5.55216276404131    0.24040724921179

          :  Hamiltonian                  GFN2-xTB          :
         :: total energy            -134.525750390580 Eh    ::
         :: gradient norm              0.000206049170 Eh/a0 ::
         :: HOMO-LUMO gap              2.879087252936 eV    ::
         :: SCC energy              -136.640229571238 Eh    ::
         :: -> dispersion             -0.112884144536 Eh    ::
         :: repulsion energy           2.111887149223 Eh    ::

    * Orbital Energies and Occupations

         #    Occupation            Energy/Eh            Energy/eV
      -------------------------------------------------------------
         1        2.0000           -0.7811588             -21.2564
       ...           ...                  ...                  ...
       109        2.0000           -0.4207012             -11.4479
       110        2.0000           -0.4177031             -11.3663
       111        2.0000           -0.4130004             -11.2383
       112        2.0000           -0.4114578             -11.1963
       113        2.0000           -0.4104798             -11.1697
       114        2.0000           -0.4091461             -11.1334
       115        2.0000           -0.4075133             -11.0890
       116        2.0000           -0.4049818             -11.0201
       117        2.0000           -0.3994196             -10.8688
       118        2.0000           -0.3978339             -10.8256
       119        2.0000           -0.3960870             -10.7781
       120        2.0000           -0.3858652             -10.4999
       121        2.0000           -0.3807773             -10.3615 (HOMO)
       122                         -0.2749728              -7.4824 (LUMO)
       123                         -0.2725022              -7.4152
       124                         -0.2690540              -7.3213
       125                         -0.2646044              -7.2003
       126                         -0.2617399              -7.1223
       127                         -0.2376669              -6.4672
       128                         -0.2317131              -6.3052
       129                         -0.2292989              -6.2395
       130                         -0.2288860              -6.2283
       131                         -0.2195666              -5.9747
       132                         -0.2191242              -5.9627
       ...                                ...                  ...
       228                          0.7088332              19.2883
      -------------------------------------------------------------
                  HL-Gap            0.1058045 Eh            2.8791 eV

     #   Z          covCN         q      C6AA      Î±(0)
     1   6 C        2.920    -0.035    28.866     8.811
     2   6 C        2.917    -0.031    28.768     8.795
     3   6 C        2.988     0.016    27.655     8.626
     4   6 C        2.918    -0.033    28.811     8.802
     5   6 C        2.916    -0.028    28.710     8.786
     6   6 C        2.916    -0.028    28.692     8.784
     7   6 C        2.919    -0.031    28.767     8.795
     8   6 C        2.987     0.018    27.607     8.619
     9   6 C        2.923    -0.034    28.855     8.809
    10   6 C        2.971     0.003    27.961     8.674
    11   6 C        3.838     0.039    19.893     6.345
    12   6 C        3.860     0.035    19.943     6.351
    13   6 C        2.969    -0.005    28.137     8.701
    14   6 C        2.926    -0.037    28.922     8.819
    15   6 C        2.986     0.017    27.621     8.621
    16   6 C        2.918    -0.032    28.795     8.800
    17   6 C        2.916    -0.028    28.692     8.784
    18   6 C        2.916    -0.028    28.699     8.785
    19   6 C        2.918    -0.035    28.866     8.810
    20   6 C        2.987     0.013    27.720     8.636
    21   6 C        2.918    -0.038    28.941     8.822
    22   6 C        2.917    -0.041    29.023     8.834
    23   7 N        2.778    -0.116    23.529     7.204
    24   6 C        2.756     0.271    22.419     7.754
    25   6 C        3.105     0.089    25.895     8.338
    26   6 C        2.983    -0.076    29.879     8.966
    27   6 C        3.087    -0.011    28.193     8.704
    28   6 C        2.911    -0.034    28.857     8.809
    29   6 C        2.921    -0.036    28.896     8.815
    30   6 C        2.927    -0.031    28.785     8.799
    31   6 C        2.907    -0.049    29.218     8.863
    32   6 C        3.117     0.127    25.058     8.199
    33   8 O        1.720    -0.186    17.113     5.586
    34   8 O        0.859    -0.398    21.632     6.236
    35   6 C        3.780     0.086    19.169     6.237
    36   6 C        2.688     0.353    21.013     7.502
    37   8 O        1.659    -0.352    19.933     6.027
    38   8 O        0.856    -0.387    21.422     6.205
    39   7 N        2.769    -0.114    23.482     7.197
    40   6 C        2.755     0.272    22.406     7.751
    41   6 C        3.103     0.092    25.826     8.327
    42   6 C        2.986    -0.076    29.885     8.967
    43   6 C        3.086    -0.012    28.217     8.708
    44   6 C        3.121     0.125    25.102     8.205
    45   6 C        2.907    -0.049    29.227     8.865
    46   6 C        2.927    -0.032    28.809     8.802
    47   6 C        2.921    -0.036    28.897     8.815
    48   6 C        2.911    -0.035    28.878     8.812
    49   8 O        1.721    -0.182    17.056     5.576
    50   8 O        0.859    -0.402    21.715     6.248
    51   1 H        0.926     0.035     2.516     2.480
    52   1 H        0.926     0.040     2.448     2.447
    53   1 H        0.926     0.035     2.520     2.482
    54   1 H        0.926     0.033     2.545     2.495
    55   1 H        0.926     0.032     2.556     2.500
    56   1 H        0.926     0.029     2.599     2.521
    57   1 H        0.926     0.017     2.780     2.607
    58   1 H        0.924     0.079     1.987     2.204
    59   1 H        0.924     0.088     1.895     2.153
    60   1 H        0.926     0.047     2.360     2.402
    61   1 H        0.926     0.039     2.464     2.454
    62   1 H        0.926     0.035     2.518     2.481
    63   1 H        0.926     0.034     2.534     2.490
    64   1 H        0.926     0.033     2.541     2.493
    65   1 H        0.926     0.036     2.498     2.471
    66   1 H        0.926     0.042     2.426     2.436
    67   1 H        0.926     0.061     2.188     2.313
    68   1 H        0.926     0.043     2.415     2.430
    69   1 H        0.926     0.041     2.438     2.442
    70   1 H        0.926     0.044     2.396     2.421
    71   1 H        0.926     0.052     2.289     2.366
    72   1 H        0.923     0.072     2.066     2.248
    73   1 H        0.804     0.348     0.593     1.210
    74   1 H        0.926     0.032     2.552     2.498
    75   1 H        0.926     0.051     2.304     2.374
    76   1 H        0.926     0.044     2.401     2.423
    77   1 H        0.926     0.041     2.440     2.443
    78   1 H        0.926     0.040     2.450     2.448

Wiberg/Mayer (AO) data.
largest (>0.10) Wiberg bond orders for each atom

     #   Z sym  total        # sym  WBO       # sym  WBO       # sym  WBO
 ---------------------------------------------------------------------------
     1   6 C    3.990 --     2 C    1.567    10 C    1.290    51 H    0.969
     2   6 C    3.991 --     1 C    1.567     3 C    1.275    52 H    0.967
                             9 C    0.113
     3   6 C    3.990 --     4 C    1.283     2 C    1.275     8 C    1.252
     4   6 C    3.992 --     5 C    1.555     3 C    1.283    53 H    0.968
                             7 C    0.118
     5   6 C    3.990 --     4 C    1.555     6 C    1.322    54 H    0.971
     6   6 C    3.992 --     7 C    1.556     5 C    1.322    55 H    0.971
     7   6 C    3.990 --     6 C    1.556     8 C    1.280    56 H    0.969
                             4 C    0.118
     8   6 C    3.990 --     7 C    1.280     9 C    1.279     3 C    1.252
     9   6 C    3.991 --    10 C    1.530     8 C    1.279    57 H    0.965
                             2 C    0.113
    10   6 C    3.985 --     9 C    1.530     1 C    1.290    11 C    0.985
    11   6 C    3.958 --    10 C    0.985    12 C    0.960    39 N    0.958
                            58 H    0.947
    12   6 C    3.952 --    13 C    0.984    11 C    0.960    23 N    0.948
                            59 H    0.947
    13   6 C    3.984 --    14 C    1.515    22 C    1.304    12 C    0.984
    14   6 C    3.989 --    13 C    1.515    15 C    1.291    60 H    0.965
                            21 C    0.117
    15   6 C    3.990 --    14 C    1.291    16 C    1.274    20 C    1.248
    16   6 C    3.991 --    17 C    1.562    15 C    1.274    61 H    0.968
                            19 C    0.119
    17   6 C    3.992 --    16 C    1.562    18 C    1.317    62 H    0.971
    18   6 C    3.990 --    19 C    1.560    17 C    1.317    63 H    0.971
    19   6 C    3.992 --    18 C    1.560    20 C    1.278    64 H    0.968
                            16 C    0.119
    20   6 C    3.990 --    21 C    1.284    19 C    1.278    15 C    1.248
    21   6 C    3.991 --    22 C    1.552    20 C    1.284    65 H    0.968
                            14 C    0.117
    22   6 C    3.990 --    21 C    1.552    13 C    1.304    66 H    0.964
    23   7 N    3.445 --    24 C    1.178    35 C    0.996    12 C    0.948
                            34 O    0.187
    24   6 C    3.952 --    34 O    1.696    23 N    1.178    25 C    0.991
    25   6 C    3.916 --    26 C    1.582    33 O    1.093    24 C    0.991
    26   6 C    3.982 --    25 C    1.582    27 C    1.217    67 H    0.966
    27   6 C    3.986 --    28 C    1.323    32 C    1.269    26 C    1.217
    28   6 C    3.986 --    29 C    1.508    27 C    1.323    68 H    0.969
                            31 C    0.116
    29   6 C    3.991 --    28 C    1.508    30 C    1.375    69 H    0.971
    30   6 C    3.983 --    31 C    1.488    29 C    1.375    70 H    0.971
    31   6 C    3.988 --    30 C    1.488    32 C    1.348    71 H    0.967
                            28 C    0.116
    32   6 C    3.919 --    31 C    1.348    27 C    1.269    33 O    1.094
    33   8 O    2.419 --    32 C    1.094    25 C    1.093
    34   8 O    2.034 --    24 C    1.696    23 N    0.187
    35   6 C    3.974 --    23 N    0.996    39 N    0.980    72 H    0.923
                            36 C    0.913
    36   6 C    3.922 --    38 O    1.771    37 O    1.167    35 C    0.913
    37   8 O    2.234 --    36 C    1.167    73 H    0.852    38 O    0.183
    38   8 O    2.060 --    36 C    1.771    37 O    0.183
    39   7 N    3.465 --    40 C    1.209    35 C    0.980    11 C    0.958
                            50 O    0.197
    40   6 C    3.955 --    50 O    1.691    39 N    1.209    41 C    0.970
    41   6 C    3.918 --    42 C    1.597    49 O    1.102    40 C    0.970
    42   6 C    3.980 --    41 C    1.597    43 C    1.212    74 H    0.971
    43   6 C    3.986 --    48 C    1.326    44 C    1.271    42 C    1.212
    44   6 C    3.919 --    45 C    1.349    43 C    1.271    49 O    1.091
    45   6 C    3.987 --    46 C    1.486    44 C    1.349    75 H    0.967
                            48 C    0.116
    46   6 C    3.986 --    45 C    1.486    47 C    1.378    76 H    0.971
    47   6 C    3.991 --    48 C    1.505    46 C    1.378    77 H    0.971
    48   6 C    3.987 --    47 C    1.505    43 C    1.326    78 H    0.969
                            45 C    0.116
    49   8 O    2.423 --    41 C    1.102    44 C    1.091
    50   8 O    2.026 --    40 C    1.691    39 N    0.197
    51   1 H    0.998 --     1 C    0.969
    52   1 H    0.997 --     2 C    0.967
    53   1 H    0.998 --     4 C    0.968
    54   1 H    0.998 --     5 C    0.971
    55   1 H    0.999 --     6 C    0.971
    56   1 H    0.999 --     7 C    0.969
    57   1 H    0.999 --     9 C    0.965
    58   1 H    0.992 --    11 C    0.947
    59   1 H    0.991 --    12 C    0.947
    60   1 H    0.997 --    14 C    0.965
    61   1 H    0.998 --    16 C    0.968
    62   1 H    0.998 --    17 C    0.971
    63   1 H    0.998 --    18 C    0.971
    64   1 H    0.998 --    19 C    0.968
    65   1 H    0.998 --    21 C    0.968
    66   1 H    0.998 --    22 C    0.964
    67   1 H    0.996 --    26 C    0.966
    68   1 H    0.998 --    28 C    0.969
    69   1 H    0.998 --    29 C    0.971
    70   1 H    0.998 --    30 C    0.971
    71   1 H    0.997 --    31 C    0.967
    72   1 H    0.995 --    35 C    0.923
    73   1 H    0.878 --    37 O    0.852
    74   1 H    0.999 --    42 C    0.971
    75   1 H    0.997 --    45 C    0.967
    76   1 H    0.998 --    46 C    0.971
    77   1 H    0.998 --    47 C    0.971
    78   1 H    0.998 --    48 C    0.969
 ---------------------------------------------------------------------------

molecular dipole:
                 x           y           z       tot (Debye)
 q only:        0.429      -0.973      -0.664
   full:        0.506      -1.290      -0.797       4.063

           -------------------------------------------------
          | TOTAL ENERGY             -134.525750390580 Eh   |
          | GRADIENT NORM               0.000206049170 Eh/Î± |
          | HOMO-LUMO GAP               2.879087252936 eV   |
           -------------------------------------------------

 * finished run on 2022/03/17 at 01:01:55.795
