   * xtb version 6.3.3 (4ae9cef) compiled by 'conda@95abc7406d43' on 2020-10-14
          program call               : xtb acid_352.xyz --opt --chrg 0 --uhf 0 --gfn 2
          number of atoms            :                    84
          number of electrons        :                   262
          charge                     :                     0
          spin                       :                   0.0

   ID    Z sym.   atoms
    1    6 C      1, 2, 6-15, 19-22, 24-33, 35, 36, 40-49
    2    9 F      3-5, 16-18
    3    7 N      23, 39
    4    8 O      34, 37, 38, 50
    5    1 H      51-84

          :  Hamiltonian                  GFN2-xTB          :
 * total energy  :  -149.2623545 Eh     change       -0.1764732E-08 Eh
 * total energy  :  -149.2809388 Eh     change       -0.1858428E-01 Eh
 * total energy  :  -149.2860245 Eh     change       -0.5085715E-02 Eh
 * total energy  :  -149.2874433 Eh     change       -0.1418774E-02 Eh
 * total energy  :  -149.2883859 Eh     change       -0.9426045E-03 Eh
 * total energy  :  -149.2889752 Eh     change       -0.5893582E-03 Eh
 * total energy  :  -149.2894325 Eh     change       -0.4572608E-03 Eh
 * total energy  :  -149.2898422 Eh     change       -0.4097493E-03 Eh
 * total energy  :  -149.2902698 Eh     change       -0.4275798E-03 Eh
 * total energy  :  -149.2906053 Eh     change       -0.3354923E-03 Eh
 * total energy  :  -149.3139123 Eh     change       -0.1653484E-04 Eh
 * total energy  :  -149.3139292 Eh     change       -0.1689779E-04 Eh
 * total energy  :  -149.3139426 Eh     change       -0.1333233E-04 Eh
 * total energy  :  -149.3139561 Eh     change       -0.1351831E-04 Eh
 * total energy  :  -149.3139719 Eh     change       -0.1584493E-04 Eh
 * total energy  :  -149.3139857 Eh     change       -0.1378367E-04 Eh
 * total energy  :  -149.3139945 Eh     change       -0.8824708E-05 Eh
 * total energy  :  -149.3140000 Eh     change       -0.5421746E-05 Eh
 * total energy  :  -149.3140035 Eh     change       -0.3579369E-05 Eh
   *** GEOMETRY OPTIMIZATION CONVERGED AFTER 118 ITERATIONS ***

 final structure:
================
84
 xtb: 6.3.3 (4ae9cef)
C        -2.71251325293438   -2.09497458129432   -0.43131166807798
C        -2.46316115382081   -2.73503968426420    0.90699582663484
F        -3.35245102090157   -3.69221205375228    1.19972096248665
F        -2.50410582431240   -1.87606681205749    1.94111867836322
F        -1.25247832124301   -3.32633378880904    0.97595602926825
C        -3.76863611872431   -2.57054758127450   -1.19990310043285
C        -3.99782372653910   -2.06292554142134   -2.46355231853513
C        -3.15604650291053   -1.09148858215276   -2.97515314055896
C        -2.10923220229761   -0.61619007191334   -2.21091800747108
C        -1.87977879107229   -1.08918473466824   -0.92330334584282
C        -0.71091874860086   -0.53507626311462   -0.15254478035983
C         0.63150933528928   -1.03261608825436   -0.76515350071624
C         1.24863222549858   -2.19165652278845   -0.02525228398712
C         1.34875992197435   -3.47224690441483   -0.57216994186353
C         0.77503889805088   -3.79126726100228   -1.92500452236799
F         0.91178712824781   -5.07963793476375   -2.26083818626569
F        -0.55680136347048   -3.54283213932095   -1.98601088155310
F         1.31337705220574   -3.08989786618148   -2.93502733268891
C         1.95410008235819   -4.49671714188702    0.14430280903900
C         2.46138228513505   -4.26020987068974    1.40788169385076
C         2.35457507273378   -2.99860799977667    1.96452759594317
C         1.75408956524080   -1.97837856713371    1.25168670751035
N         1.49629187475439    0.14479580257724   -0.71995407139933
C         2.74980783370681    0.09822187219931   -1.24814408855573
C         3.45456389851855    1.41839369761924   -1.31654691297624
C         3.02518831786868    2.40410703531165   -2.19941758728942
C         3.71431539198776    3.60119437097341   -2.26673588402237
C         4.81678755884624    3.81966048680397   -1.45745805488613
C         5.27006292980889    2.83963042304018   -0.58329184451184
C         6.48047808295122    3.07496516216735    0.28282650264464
C         6.13006664524151    2.91960920582945    1.76462097819854
C         7.61244395736475    2.12434653976118   -0.11384153106625
C         4.58124853919326    1.63193743083394   -0.52960998015045
O         3.24614675954919   -0.94120186674425   -1.62172241998654
C         0.79672144638162    1.27699046948492   -0.16097366018415
C         1.15642135368840    1.49210874106204    1.33871049431707
O         2.40045814226403    1.89191179634612    1.58071613107790
O         0.36485323932439    1.29613309346883    2.21219148971749
N        -0.59046668884134    0.91011759456345   -0.26258175376736
C        -1.52919404686055    1.89199726141412   -0.40431638863872
C        -2.95333957632818    1.49309977923138   -0.26949638146162
C        -3.40567421459238    0.89082869895979    0.89747202007682
C        -4.74841376269999    0.57655435461287    1.05832522326390
C        -5.23584130899529   -0.03489619320993    2.34815197545798
C        -6.03291116772839   -1.31700933160649    2.10437536227451
C        -6.07777326151926    0.98617795701954    3.11817480867874
C        -5.62826653581716    0.87141116897795    0.02283575094661
C        -5.18592324059927    1.49070174308488   -1.13217777530769
C        -3.85190051908706    1.81980238834605   -1.27758574791752
O        -1.18148986171940    3.03460761519552   -0.63242222663448
H        -4.40524479972111   -3.34863919938271   -0.80901394422938
H        -4.82095430020940   -2.43822918793829   -3.05050151826273
H        -3.31211828374969   -0.70596953611090   -3.97071040053109
H        -1.45598750231362    0.14366206257350   -2.61306038129393
H        -0.74688059106913   -0.81413013037546    0.90592545102381
H         0.48155795821918   -1.28800042133412   -1.81882926512951
H         2.02647374427835   -5.48099027191505   -0.29099908340496
H         2.93267043967155   -5.06155787432636    1.95494166549262
H         2.73705243995615   -2.80476635448647    2.95492107026502
H         1.67353743972664   -0.99899260397225    1.69816910515822
H         2.17425891364841    2.22610595898947   -2.84001211378572
H         3.38958780344204    4.36816269640514   -2.95301714759403
H         5.34051909256260    4.76246994354594   -1.51566727131889
H         6.82234406682688    4.10236132817316    0.11785517506537
H         6.98802212019610    3.18385664934951    2.37791847419317
H         5.30099769080937    3.57082020255087    2.03303670488771
H         5.85059819916820    1.89511495961415    1.99569761027245
H         8.49851988824548    2.32837722601381    0.48245879010309
H         7.86451975678684    2.25204721507541   -1.16426703708276
H         7.32187950355227    1.08898282975677    0.04450325491408
H         4.92471335760141    0.83402451720760    0.11239459287101
H         0.97205497673162    2.21551274495523   -0.70554397836726
H         2.95849569456523    1.99820417474762    0.78512304461048
H        -2.70762597601874    0.69192572484078    1.69717547860393
H        -4.36150469723260   -0.28715327589888    2.95559436390573
H        -6.95277130094045   -1.11204817862994    1.56269802341048
H        -6.29369079022049   -1.77644019059306    3.05469468182052
H        -5.44665440081862   -2.02938791254382    1.52958933884992
H        -5.49677793564246    1.88459560102907    3.31300315894279
H        -6.96047988024014    1.26551111775151    2.54751835869545
H        -6.39913428471506    0.56778072801604    4.06915669901077
H        -6.67626392101405    0.63314144606320    0.12369337753342
H        -5.88755915574868    1.72921745478084   -1.91781466672819
H        -3.49812359304156    2.32233924974042   -2.16480233212452

          :  Hamiltonian                  GFN2-xTB          :
         :: total energy            -149.314003549082 Eh    ::
         :: gradient norm              0.000516386513 Eh/a0 ::
         :: HOMO-LUMO gap              3.400513113862 eV    ::
         :: SCC energy              -151.213806088932 Eh    ::
         :: -> dispersion             -0.121286677389 Eh    ::
         :: repulsion energy           1.894917545872 Eh    ::

    * Orbital Energies and Occupations

         #    Occupation            Energy/Eh            Energy/eV
      -------------------------------------------------------------
         1        2.0000           -0.8849285             -24.0801
       ...           ...                  ...                  ...
       119        2.0000           -0.4383298             -11.9276
       120        2.0000           -0.4376703             -11.9096
       121        2.0000           -0.4343626             -11.8196
       122        2.0000           -0.4316559             -11.7460
       123        2.0000           -0.4295195             -11.6878
       124        2.0000           -0.4229103             -11.5080
       125        2.0000           -0.4224218             -11.4947
       126        2.0000           -0.4200020             -11.4288
       127        2.0000           -0.4114459             -11.1960
       128        2.0000           -0.4112382             -11.1904
       129        2.0000           -0.4054551             -11.0330
       130        2.0000           -0.4042904             -11.0013
       131        2.0000           -0.3995108             -10.8712 (HOMO)
       132                         -0.2745442              -7.4707 (LUMO)
       133                         -0.2664170              -7.2496
       134                         -0.2633688              -7.1666
       135                         -0.2621781              -7.1342
       136                         -0.2603526              -7.0846
       137                         -0.2543072              -6.9200
       138                         -0.2518798              -6.8540
       139                         -0.2509233              -6.8280
       140                         -0.2294366              -6.2433
       141                         -0.2247854              -6.1167
       142                         -0.2049500              -5.5770
       ...                                ...                  ...
       234                          0.6589999              17.9323
      -------------------------------------------------------------
                  HL-Gap            0.1249666 Eh            3.4005 eV

     #   Z          covCN         q      C6AA      Î±(0)
     1   6 C        2.976    -0.029    28.720     8.791
     2   6 C        3.335     0.486    17.295     6.587
     3   9 F        0.792    -0.200    11.234     3.959
     4   9 F        0.791    -0.206    11.298     3.971
     5   9 F        0.791    -0.217    11.417     3.991
     6   6 C        2.924    -0.020    28.505     8.755
     7   6 C        2.920    -0.021    28.521     8.758
     8   6 C        2.919    -0.016    28.420     8.742
     9   6 C        2.928    -0.025    28.620     8.773
    10   6 C        2.971     0.014    27.697     8.633
    11   6 C        3.825     0.040    19.889     6.346
    12   6 C        3.827     0.048    19.746     6.323
    13   6 C        2.970     0.021    27.528     8.606
    14   6 C        2.976    -0.021    28.523     8.760
    15   6 C        3.335     0.486    17.291     6.587
    16   9 F        0.792    -0.200    11.234     3.959
    17   9 F        0.791    -0.227    11.519     4.009
    18   9 F        0.791    -0.201    11.248     3.962
    19   6 C        2.923    -0.018    28.463     8.749
    20   6 C        2.920    -0.020    28.510     8.756
    21   6 C        2.919    -0.016    28.412     8.741
    22   6 C        2.927    -0.024    28.605     8.771
    23   7 N        2.762    -0.129    23.806     7.246
    24   6 C        2.761     0.268    22.481     7.765
    25   6 C        2.974    -0.031    28.769     8.798
    26   6 C        2.921    -0.035    28.870     8.811
    27   6 C        2.918    -0.026    28.643     8.776
    28   6 C        2.925    -0.035    28.883     8.813
    29   6 C        2.972     0.017    27.637     8.623
    30   6 C        3.855    -0.015    20.812     6.488
    31   6 C        3.756    -0.109    22.640     6.784
    32   6 C        3.756    -0.105    22.561     6.772
    33   6 C        2.927    -0.044    29.091     8.845
    34   8 O        0.859    -0.412    21.929     6.278
    35   6 C        3.774     0.074    19.369     6.271
    36   6 C        2.686     0.349    21.070     7.512
    37   8 O        1.658    -0.362    20.119     6.055
    38   8 O        0.856    -0.349    20.690     6.099
    39   7 N        2.767    -0.113    23.464     7.194
    40   6 C        2.767     0.274    22.377     7.747
    41   6 C        2.975    -0.018    28.442     8.748
    42   6 C        2.928    -0.041    29.028     8.836
    43   6 C        2.973     0.016    27.661     8.627
    44   6 C        3.855    -0.017    20.849     6.494
    45   6 C        3.755    -0.103    22.530     6.768
    46   6 C        3.757    -0.104    22.535     6.768
    47   6 C        2.925    -0.034    28.836     8.806
    48   6 C        2.918    -0.032    28.793     8.799
    49   6 C        2.924    -0.028    28.711     8.787
    50   8 O        0.860    -0.432    22.324     6.335
    51   1 H        0.926     0.069     2.091     2.262
    52   1 H        0.926     0.062     2.181     2.309
    53   1 H        0.926     0.061     2.192     2.315
    54   1 H        0.926     0.054     2.266     2.354
    55   1 H        0.924     0.070     2.090     2.261
    56   1 H        0.924     0.067     2.121     2.278
    57   1 H        0.926     0.069     2.092     2.262
    58   1 H        0.926     0.059     2.210     2.325
    59   1 H        0.926     0.059     2.211     2.325
    60   1 H        0.926     0.051     2.312     2.378
    61   1 H        0.926     0.039     2.457     2.451
    62   1 H        0.926     0.047     2.352     2.398
    63   1 H        0.926     0.043     2.403     2.424
    64   1 H        0.924     0.038     2.477     2.461
    65   1 H        0.925     0.044     2.391     2.418
    66   1 H        0.925     0.038     2.470     2.458
    67   1 H        0.925     0.042     2.424     2.435
    68   1 H        0.925     0.043     2.411     2.428
    69   1 H        0.925     0.038     2.482     2.464
    70   1 H        0.925     0.043     2.414     2.430
    71   1 H        0.926     0.049     2.328     2.386
    72   1 H        0.923     0.087     1.909     2.161
    73   1 H        0.803     0.330     0.637     1.254
    74   1 H        0.926     0.049     2.334     2.389
    75   1 H        0.924     0.045     2.378     2.411
    76   1 H        0.925     0.037     2.490     2.468
    77   1 H        0.925     0.043     2.412     2.429
    78   1 H        0.925     0.031     2.575     2.509
    79   1 H        0.925     0.038     2.480     2.463
    80   1 H        0.925     0.038     2.476     2.461
    81   1 H        0.925     0.041     2.429     2.437
    82   1 H        0.926     0.041     2.436     2.441
    83   1 H        0.926     0.038     2.482     2.464
    84   1 H        0.926     0.042     2.424     2.435

Wiberg/Mayer (AO) data.
largest (>0.10) Wiberg bond orders for each atom

     #   Z sym  total        # sym  WBO       # sym  WBO       # sym  WBO
 ---------------------------------------------------------------------------
     1   6 C    3.970 --     6 C    1.411    10 C    1.387     2 C    0.951
                             8 C    0.104
     2   6 C    3.823 --     3 F    0.955     1 C    0.951     4 F    0.942
                             5 F    0.935
     3   9 F    1.079 --     2 C    0.955
     4   9 F    1.074 --     2 C    0.942
     5   9 F    1.062 --     2 C    0.935
     6   6 C    3.987 --     7 C    1.445     1 C    1.411    51 H    0.965
                             9 C    0.109
     7   6 C    3.988 --     6 C    1.445     8 C    1.431    52 H    0.968
                            10 C    0.109
     8   6 C    3.989 --     9 C    1.450     7 C    1.431    53 H    0.968
                             1 C    0.104
     9   6 C    3.989 --     8 C    1.450    10 C    1.406    54 H    0.966
                             6 C    0.109
    10   6 C    3.987 --     9 C    1.406     1 C    1.387    11 C    0.999
                             7 C    0.109
    11   6 C    3.970 --    10 C    0.999    39 N    0.969    55 H    0.951
                            12 C    0.942
    12   6 C    3.967 --    13 C    0.995    23 N    0.956    56 H    0.954
                            11 C    0.942
    13   6 C    3.987 --    22 C    1.413    14 C    1.383    12 C    0.995
                            20 C    0.109
    14   6 C    3.970 --    19 C    1.416    13 C    1.383    15 C    0.952
                            21 C    0.106
    15   6 C    3.821 --    16 F    0.957    14 C    0.952    18 F    0.949
                            17 F    0.925
    16   9 F    1.079 --    15 C    0.957
    17   9 F    1.051 --    15 C    0.925
    18   9 F    1.080 --    15 C    0.949
    19   6 C    3.987 --    20 C    1.441    14 C    1.416    57 H    0.965
                            22 C    0.109
    20   6 C    3.988 --    19 C    1.441    21 C    1.436    58 H    0.969
                            13 C    0.109
    21   6 C    3.990 --    22 C    1.445    20 C    1.436    59 H    0.969
                            14 C    0.106
    22   6 C    3.990 --    21 C    1.445    13 C    1.413    60 H    0.964
                            19 C    0.109
    23   7 N    3.456 --    24 C    1.199    35 C    0.978    12 C    0.956
                            34 O    0.193
    24   6 C    3.945 --    34 O    1.702    23 N    1.199    25 C    0.957
    25   6 C    3.986 --    33 C    1.400    26 C    1.393    24 C    0.957
                            28 C    0.106
    26   6 C    3.990 --    27 C    1.444    25 C    1.393    61 H    0.968
                            29 C    0.108
    27   6 C    3.990 --    26 C    1.444    28 C    1.438    62 H    0.969
                            33 C    0.106
    28   6 C    3.991 --    27 C    1.438    29 C    1.415    63 H    0.968
                            25 C    0.106
    29   6 C    3.986 --    28 C    1.415    33 C    1.398    30 C    1.000
                            26 C    0.108
    30   6 C    3.994 --    29 C    1.000    31 C    0.997    32 C    0.994
                            64 H    0.967
    31   6 C    3.995 --    30 C    0.997    66 H    0.987    65 H    0.985
                            67 H    0.985
    32   6 C    3.995 --    30 C    0.994    69 H    0.987    70 H    0.985
                            68 H    0.985
    33   6 C    3.990 --    25 C    1.400    29 C    1.398    71 H    0.963
                            27 C    0.106
    34   8 O    2.033 --    24 C    1.702    23 N    0.193
    35   6 C    3.962 --    39 N    0.994    23 N    0.978    72 H    0.932
                            36 C    0.894
    36   6 C    3.922 --    38 O    1.802    37 O    1.159    35 C    0.894
    37   8 O    2.229 --    36 C    1.159    73 H    0.826    38 O    0.174
    38   8 O    2.090 --    36 C    1.802    37 O    0.174
    39   7 N    3.452 --    40 C    1.185    35 C    0.994    11 C    0.969
                            50 O    0.182
    40   6 C    3.939 --    50 O    1.683    39 N    1.185    41 C    0.982
    41   6 C    3.986 --    42 C    1.400    49 C    1.396    40 C    0.982
                            47 C    0.106
    42   6 C    3.989 --    43 C    1.417    41 C    1.400    74 H    0.965
                            48 C    0.106
    43   6 C    3.987 --    42 C    1.417    47 C    1.406    44 C    0.999
                            49 C    0.107
    44   6 C    3.994 --    45 C    1.000    43 C    0.999    46 C    0.993
                            75 H    0.967
    45   6 C    3.996 --    44 C    1.000    78 H    0.987    77 H    0.985
                            76 H    0.984
    46   6 C    3.996 --    44 C    0.993    79 H    0.987    80 H    0.986
                            81 H    0.985
    47   6 C    3.991 --    48 C    1.444    43 C    1.406    82 H    0.966
                            41 C    0.106
    48   6 C    3.991 --    47 C    1.444    49 C    1.442    83 H    0.970
                            42 C    0.106
    49   6 C    3.989 --    48 C    1.442    41 C    1.396    84 H    0.969
                            43 C    0.107
    50   8 O    2.009 --    40 C    1.683    39 N    0.182
    51   1 H    0.995 --     6 C    0.965
    52   1 H    0.995 --     7 C    0.968
    53   1 H    0.996 --     8 C    0.968
    54   1 H    0.997 --     9 C    0.966
    55   1 H    0.995 --    11 C    0.951
    56   1 H    0.995 --    12 C    0.954
    57   1 H    0.995 --    19 C    0.965
    58   1 H    0.996 --    20 C    0.969
    59   1 H    0.996 --    21 C    0.969
    60   1 H    0.997 --    22 C    0.964
    61   1 H    0.998 --    26 C    0.968
    62   1 H    0.997 --    27 C    0.969
    63   1 H    0.998 --    28 C    0.968
    64   1 H    0.998 --    30 C    0.967
    65   1 H    0.997 --    31 C    0.985
    66   1 H    0.999 --    31 C    0.987
    67   1 H    0.998 --    31 C    0.985
    68   1 H    0.997 --    32 C    0.985
    69   1 H    0.999 --    32 C    0.987
    70   1 H    0.998 --    32 C    0.985
    71   1 H    0.998 --    33 C    0.963
    72   1 H    0.992 --    35 C    0.932
    73   1 H    0.891 --    37 O    0.826
    74   1 H    0.998 --    42 C    0.965
    75   1 H    0.998 --    44 C    0.967
    76   1 H    0.999 --    45 C    0.984
    77   1 H    0.997 --    45 C    0.985
    78   1 H    0.999 --    45 C    0.987
    79   1 H    0.999 --    46 C    0.987
    80   1 H    0.999 --    46 C    0.986
    81   1 H    0.997 --    46 C    0.985
    82   1 H    0.998 --    47 C    0.966
    83   1 H    0.998 --    48 C    0.970
    84   1 H    0.998 --    49 C    0.969
 ---------------------------------------------------------------------------

molecular dipole:
                 x           y           z       tot (Debye)
 q only:        0.175       0.428      -0.087
   full:        0.287       0.555      -0.416       1.910

           -------------------------------------------------
          | TOTAL ENERGY             -149.314003549082 Eh   |
          | GRADIENT NORM               0.000516386513 Eh/Î± |
          | HOMO-LUMO GAP               3.400513113862 eV   |
           -------------------------------------------------

 * finished run on 2022/03/17 at 00:11:20.145
