   * xtb version 6.3.3 (4ae9cef) compiled by 'conda@95abc7406d43' on 2020-10-14
          program call               : xtb acid_463.xyz --opt --chrg 0 --uhf 0 --gfn 2
          number of atoms            :                    66
          number of electrons        :                   218
          charge                     :                     0
          spin                       :                   0.0

   ID    Z sym.   atoms
    1    6 C      1-22, 24-28, 32, 33, 37-41
    2    7 N      23, 36
    3   17 Cl     29, 42
    4   16 S      30, 43
    5    8 O      31, 34, 35, 44
    6    1 H      45-66

          :  Hamiltonian                  GFN2-xTB          :
 * total energy  :  -121.7430947 Eh     change       -0.3311357E-08 Eh
 * total energy  :  -121.7585416 Eh     change       -0.1544691E-01 Eh
 * total energy  :  -121.7631413 Eh     change       -0.4599668E-02 Eh
 * total energy  :  -121.7640794 Eh     change       -0.9381059E-03 Eh
 * total energy  :  -121.7645957 Eh     change       -0.5162715E-03 Eh
 * total energy  :  -121.7648323 Eh     change       -0.2365800E-03 Eh
 * total energy  :  -121.7650862 Eh     change       -0.2539730E-03 Eh
 * total energy  :  -121.7653294 Eh     change       -0.2431323E-03 Eh
 * total energy  :  -121.7655776 Eh     change       -0.2482490E-03 Eh
 * total energy  :  -121.7658384 Eh     change       -0.2607843E-03 Eh
 * total energy  :  -121.7688304 Eh     change       -0.2741645E-04 Eh
 * total energy  :  -121.7688574 Eh     change       -0.2695495E-04 Eh
 * total energy  :  -121.7688823 Eh     change       -0.2489080E-04 Eh
 * total energy  :  -121.7689023 Eh     change       -0.2005237E-04 Eh
 * total energy  :  -121.7689182 Eh     change       -0.1583779E-04 Eh
 * total energy  :  -121.7689317 Eh     change       -0.1354206E-04 Eh
 * total energy  :  -121.7689451 Eh     change       -0.1337591E-04 Eh
 * total energy  :  -121.7689572 Eh     change       -0.1212808E-04 Eh
 * total energy  :  -121.7689611 Eh     change       -0.3933467E-05 Eh
   *** GEOMETRY OPTIMIZATION CONVERGED AFTER 94 ITERATIONS ***

 final structure:
================
66
 xtb: 6.3.3 (4ae9cef)
C         0.92933751852410   -0.74021137101586    2.48562087583914
C         1.54822762553573   -1.37413832658361    3.52368198296943
C         2.57332994379439   -2.31464929286475    3.28918814769270
C         3.23307316089633   -2.98680696926449    4.33843908476546
C         4.22487115721474   -3.88946416427539    4.07397854805466
C         4.60252531035787   -4.16034924837427    2.74936005666106
C         3.98101228159388   -3.52599330875291    1.71061773804546
C         2.95348317646996   -2.58995400136256    1.94989617494740
C         2.29567125199289   -1.91801157545152    0.90031088622376
C         1.30318342932490   -1.01109306482533    1.15458476198696
C         0.59021170316549   -0.30568130659796    0.02954423875708
C        -0.91498387688431   -0.64494818396805   -0.01782152272136
C        -1.38396643695223   -1.03116904868126   -1.40477451920411
C        -0.78895910352792   -2.09878166925224   -2.02818489917202
C        -1.18448682900521   -2.50910370530684   -3.31547249663916
C        -0.58452823770132   -3.60559326035878   -3.97073928939089
C        -0.99397742408540   -3.98001538292155   -5.21915735981668
C        -2.02035578345960   -3.27724848087132   -5.87133382862399
C        -2.62163989125756   -2.21164193516691   -5.26325075173448
C        -2.22325993988769   -1.80069261160967   -3.97399943538418
C        -2.82849273003760   -0.71766802937483   -3.30658892462987
C        -2.42383671881687   -0.34409029956134   -2.05551377753511
N        -1.54305478502468    0.55562310295371    0.50093012774243
C        -2.76582346352102    0.52199992703931    1.09819326764172
C        -3.28038604250435    1.84191955904009    1.54739227086381
C        -2.82967610870812    2.64533798869232    2.55328311408892
C        -3.59731291526383    3.81671636812327    2.71444746082962
C        -4.62291533837951    3.87930928036048    1.82153041049391
Cl       -5.76913852485874    5.13366012347135    1.67435742336267
S        -4.67947499479647    2.50029153146936    0.77720395846527
O        -3.38032135902349   -0.51237972015685    1.23228878911788
C        -0.69950724583676    1.70157942680843    0.27476964062590
C        -1.11877818335263    2.38577539723661   -1.05018038137362
O        -0.29360551495970    2.09912445278276   -2.04745769289980
O        -2.10037776324271    3.06546635861029   -1.15312978790146
N         0.62009483360485    1.14381883792375    0.22317733493966
C         1.81896928462715    1.77914812697370    0.13574715454728
C         1.89535457532919    3.24114944419297    0.29735940273543
C         3.10007411740638    3.89579534939739    0.27542585069813
C         3.00306446886553    5.28752643168301    0.43338341240367
C         1.71000789358563    5.69678708071702    0.57189439295063
Cl        1.15193946375009    7.29287841077156    0.78765884371283
S         0.59186675504163    4.37589084013703    0.51624665323415
O         2.84113581299703    1.14406957344337   -0.05209196286803
H         0.14376316696490   -0.02254713595581    2.67613093524649
H         1.26008899858104   -1.16354755245897    4.54372550250044
H         2.93991021321324   -2.77457784741524    5.35681866825612
H         4.72670540612645   -4.40080506824074    4.88237970990397
H         5.38974496670223   -4.87525628825256    2.55956180580611
H         4.26937498630390   -3.72920809322942    0.68934148655949
H         2.59920262681829   -2.11981277878916   -0.11663527437821
H         1.08405841104827   -0.54255244009864   -0.91940557458712
H        -1.15423285502738   -1.46806932140657    0.66684092027674
H        -0.00689126595056   -2.65091142929612   -1.52567776392718
H         0.20378596965095   -4.14410046747318   -3.46457680275322
H        -0.53229795878544   -4.82127494005247   -5.71486656685719
H        -2.33107838105874   -3.58936393760491   -6.85754682759227
H        -3.41416943348604   -1.66924282936867   -5.75877689125495
H        -3.63091865829579   -0.18575769283510   -3.79717894268221
H        -2.92300198198386    0.47486525308940   -1.55944396873507
H        -1.99090172924175    2.40238022588559    3.18203061761141
H        -3.39957567265634    4.57233771076077    3.45148637094700
H        -0.82417171210385    2.43298444142030    1.08350135978796
H        -0.59448538461094    2.49928249870076   -2.87992106878878
H         4.02470511373299    3.36282123002167    0.14796905904425
H         3.84181162105891    5.95817580736769    0.44342687112684

          :  Hamiltonian                  GFN2-xTB          :
         :: total energy            -121.768961143655 Eh    ::
         :: gradient norm              0.000338593936 Eh/a0 ::
         :: HOMO-LUMO gap              2.401341577601 eV    ::
         :: SCC energy              -123.478171047659 Eh    ::
         :: -> dispersion             -0.103159589462 Eh    ::
         :: repulsion energy           1.707668079574 Eh    ::

    * Orbital Energies and Occupations

         #    Occupation            Energy/Eh            Energy/eV
      -------------------------------------------------------------
         1        2.0000           -1.0813975             -29.4263
       ...           ...                  ...                  ...
        97        2.0000           -0.4236584             -11.5283
        98        2.0000           -0.4199951             -11.4286
        99        2.0000           -0.4194397             -11.4135
       100        2.0000           -0.4165772             -11.3356
       101        2.0000           -0.4132292             -11.2445
       102        2.0000           -0.4118423             -11.2068
       103        2.0000           -0.4108860             -11.1808
       104        2.0000           -0.4085208             -11.1164
       105        2.0000           -0.4058326             -11.0433
       106        2.0000           -0.4019110             -10.9366
       107        2.0000           -0.3947841             -10.7426
       108        2.0000           -0.3867725             -10.5246
       109        2.0000           -0.3833655             -10.4319 (HOMO)
       110                         -0.2951178              -8.0306 (LUMO)
       111                         -0.2741822              -7.4609
       112                         -0.2694636              -7.3325
       113                         -0.2686327              -7.3099
       114                         -0.2646547              -7.2016
       115                         -0.2392056              -6.5091
       116                         -0.2379314              -6.4744
       117                         -0.2349921              -6.3945
       118                         -0.2340714              -6.3694
       119                         -0.2227253              -6.0607
       120                         -0.2181672              -5.9366
       ...                                ...                  ...
       218                          0.6920933              18.8328
      -------------------------------------------------------------
                  HL-Gap            0.0882477 Eh            2.4013 eV

     #   Z          covCN         q      C6AA      Î±(0)
     1   6 C        2.919    -0.034    28.848     8.808
     2   6 C        2.917    -0.033    28.834     8.805
     3   6 C        2.988     0.014    27.687     8.631
     4   6 C        2.918    -0.034    28.836     8.806
     5   6 C        2.916    -0.029    28.715     8.787
     6   6 C        2.916    -0.028    28.709     8.786
     7   6 C        2.918    -0.033    28.815     8.803
     8   6 C        2.987     0.017    27.618     8.621
     9   6 C        2.923    -0.033    28.832     8.806
    10   6 C        2.970     0.007    27.871     8.660
    11   6 C        3.831     0.040    19.878     6.344
    12   6 C        3.829     0.039    19.900     6.347
    13   6 C        2.967     0.002    27.970     8.675
    14   6 C        2.925    -0.044    29.089     8.845
    15   6 C        2.987     0.016    27.645     8.625
    16   6 C        2.918    -0.034    28.850     8.808
    17   6 C        2.916    -0.028    28.700     8.785
    18   6 C        2.916    -0.029    28.715     8.787
    19   6 C        2.918    -0.034    28.840     8.806
    20   6 C        2.987     0.013    27.713     8.635
    21   6 C        2.918    -0.034    28.848     8.808
    22   6 C        2.918    -0.032    28.793     8.799
    23   7 N        2.772    -0.107    23.336     7.175
    24   6 C        2.786     0.274    22.365     7.746
    25   6 C        2.993    -0.022    28.536     8.763
    26   6 C        3.115    -0.048    29.030     8.826
    27   6 C        3.114    -0.059    29.292     8.866
    28   6 C        2.911     0.097    25.857     8.338
    29  17 Cl       1.015    -0.132   103.297    15.549
    30  16 S        2.408     0.071   138.199    19.786
    31   8 O        0.859    -0.402    21.729     6.250
    32   6 C        3.761     0.082    19.262     6.256
    33   6 C        2.688     0.352    21.022     7.503
    34   8 O        1.659    -0.352    19.946     6.029
    35   8 O        0.856    -0.384    21.370     6.198
    36   7 N        2.765    -0.103    23.267     7.164
    37   6 C        2.772     0.268    22.468     7.763
    38   6 C        2.982    -0.018    28.457     8.750
    39   6 C        3.124    -0.028    28.499     8.742
    40   6 C        3.106    -0.054    29.203     8.854
    41   6 C        2.910     0.107    25.636     8.302
    42  17 Cl       1.017    -0.123   103.015    15.528
    43  16 S        2.396    -0.019   141.845    20.045
    44   8 O        0.861    -0.425    22.191     6.316
    45   1 H        0.926     0.025     2.657     2.549
    46   1 H        0.926     0.037     2.490     2.468
    47   1 H        0.926     0.034     2.533     2.489
    48   1 H        0.926     0.033     2.543     2.494
    49   1 H        0.926     0.034     2.537     2.491
    50   1 H        0.926     0.036     2.504     2.475
    51   1 H        0.926     0.042     2.426     2.436
    52   1 H        0.924     0.071     2.071     2.250
    53   1 H        0.924     0.083     1.952     2.185
    54   1 H        0.926     0.035     2.516     2.480
    55   1 H        0.926     0.035     2.519     2.482
    56   1 H        0.926     0.034     2.526     2.485
    57   1 H        0.926     0.034     2.530     2.487
    58   1 H        0.926     0.035     2.519     2.482
    59   1 H        0.926     0.039     2.458     2.452
    60   1 H        0.926     0.029     2.599     2.521
    61   1 H        0.926     0.049     2.331     2.388
    62   1 H        0.926     0.066     2.129     2.282
    63   1 H        0.924     0.082     1.960     2.189
    64   1 H        0.804     0.346     0.598     1.215
    65   1 H        0.926     0.087     1.910     2.161
    66   1 H        0.926     0.072     2.067     2.248

Wiberg/Mayer (AO) data.
largest (>0.10) Wiberg bond orders for each atom

     #   Z sym  total        # sym  WBO       # sym  WBO       # sym  WBO
 ---------------------------------------------------------------------------
     1   6 C    3.992 --     2 C    1.566    10 C    1.293    45 H    0.969
     2   6 C    3.992 --     1 C    1.566     3 C    1.275    46 H    0.968
                             9 C    0.114
     3   6 C    3.990 --     4 C    1.282     2 C    1.275     8 C    1.251
     4   6 C    3.992 --     5 C    1.556     3 C    1.282    47 H    0.968
                             7 C    0.118
     5   6 C    3.990 --     4 C    1.556     6 C    1.321    48 H    0.971
     6   6 C    3.992 --     7 C    1.557     5 C    1.321    49 H    0.971
     7   6 C    3.990 --     6 C    1.557     8 C    1.279    50 H    0.968
                             4 C    0.118
     8   6 C    3.990 --     9 C    1.280     7 C    1.279     3 C    1.251
     9   6 C    3.989 --    10 C    1.529     8 C    1.280    51 H    0.965
                             2 C    0.114
    10   6 C    3.983 --     9 C    1.529     1 C    1.293    11 C    0.987
    11   6 C    3.956 --    10 C    0.987    12 C    0.958    52 H    0.952
                            36 N    0.951
    12   6 C    3.956 --    13 C    0.982    23 N    0.964    11 C    0.958
                            53 H    0.943
    13   6 C    3.984 --    14 C    1.516    22 C    1.306    12 C    0.982
    14   6 C    3.990 --    13 C    1.516    15 C    1.289    54 H    0.966
                            21 C    0.118
    15   6 C    3.990 --    14 C    1.289    16 C    1.275    20 C    1.248
    16   6 C    3.991 --    17 C    1.561    15 C    1.275    55 H    0.968
                            19 C    0.119
    17   6 C    3.992 --    16 C    1.561    18 C    1.318    56 H    0.971
    18   6 C    3.990 --    19 C    1.560    17 C    1.318    57 H    0.971
    19   6 C    3.992 --    18 C    1.560    20 C    1.278    58 H    0.968
                            16 C    0.119
    20   6 C    3.990 --    21 C    1.284    19 C    1.278    15 C    1.248
    21   6 C    3.991 --    22 C    1.552    20 C    1.284    59 H    0.968
                            14 C    0.118
    22   6 C    3.991 --    21 C    1.552    13 C    1.306    60 H    0.965
    23   7 N    3.473 --    24 C    1.194    32 C    0.983    12 C    0.964
                            31 O    0.192
    24   6 C    3.951 --    31 O    1.698    23 N    1.194    25 C    0.978
    25   6 C    3.945 --    26 C    1.572    30 S    1.163    24 C    0.978
                            28 C    0.102
    26   6 C    3.984 --    25 C    1.572    27 C    1.278    61 H    0.962
    27   6 C    3.979 --    28 C    1.561    26 C    1.278    62 H    0.961
    28   6 C    3.888 --    27 C    1.561    30 S    1.176    29 Cl   1.010
                            25 C    0.102
    29  17 Cl   1.164 --    28 C    1.010
    30  16 S    2.656 --    28 C    1.176    25 C    1.163
    31   8 O    2.037 --    24 C    1.698    23 N    0.192
    32   6 C    3.971 --    36 N    0.999    23 N    0.983    63 H    0.926
                            33 C    0.899
    33   6 C    3.920 --    35 O    1.775    34 O    1.166    32 C    0.899
    34   8 O    2.233 --    33 C    1.166    64 H    0.854    35 O    0.185
    35   8 O    2.062 --    33 C    1.775    34 O    0.185
    36   7 N    3.468 --    37 C    1.199    32 C    0.999    11 C    0.951
                            44 O    0.184
    37   6 C    3.957 --    44 O    1.643    36 N    1.199    38 C    1.032
    38   6 C    3.935 --    39 C    1.540    43 S    1.129    37 C    1.032
                            41 C    0.102
    39   6 C    3.983 --    38 C    1.540    40 C    1.301    65 H    0.956
    40   6 C    3.980 --    41 C    1.545    39 C    1.301    66 H    0.960
    41   6 C    3.889 --    40 C    1.545    43 S    1.166    42 Cl   1.017
                            38 C    0.102
    42  17 Cl   1.175 --    41 C    1.017
    43  16 S    2.642 --    41 C    1.166    38 C    1.129
    44   8 O    2.004 --    37 C    1.643    36 N    0.184
    45   1 H    0.999 --     1 C    0.969
    46   1 H    0.998 --     2 C    0.968
    47   1 H    0.998 --     4 C    0.968
    48   1 H    0.998 --     5 C    0.971
    49   1 H    0.998 --     6 C    0.971
    50   1 H    0.998 --     7 C    0.968
    51   1 H    0.998 --     9 C    0.965
    52   1 H    0.994 --    11 C    0.952
    53   1 H    0.992 --    12 C    0.943
    54   1 H    0.998 --    14 C    0.966
    55   1 H    0.998 --    16 C    0.968
    56   1 H    0.998 --    17 C    0.971
    57   1 H    0.998 --    18 C    0.971
    58   1 H    0.998 --    19 C    0.968
    59   1 H    0.998 --    21 C    0.968
    60   1 H    0.999 --    22 C    0.965
    61   1 H    0.998 --    26 C    0.962
    62   1 H    0.995 --    27 C    0.961
    63   1 H    0.993 --    32 C    0.926
    64   1 H    0.880 --    34 O    0.854
    65   1 H    0.992 --    39 C    0.956
    66   1 H    0.994 --    40 C    0.960
 ---------------------------------------------------------------------------

molecular dipole:
                 x           y           z       tot (Debye)
 q only:        1.321      -0.760      -0.650
   full:        1.317       0.316      -0.592       3.758

           -------------------------------------------------
          | TOTAL ENERGY             -121.768961143655 Eh   |
          | GRADIENT NORM               0.000338593936 Eh/Î± |
          | HOMO-LUMO GAP               2.401341577601 eV   |
           -------------------------------------------------

 * finished run on 2022/03/17 at 01:30:29.914
