   * xtb version 6.3.3 (4ae9cef) compiled by 'conda@95abc7406d43' on 2020-10-14
          program call               : xtb acid_478.xyz --opt --chrg 0 --uhf 0 --gfn 2
          number of atoms            :                    84
          number of electrons        :                   262
          charge                     :                     0
          spin                       :                   0.0

   ID    Z sym.   atoms
    1    6 C      1, 2, 6-15, 19-22, 24-33, 35, 36, 40-49
    2    9 F      3-5, 16-18
    3    7 N      23, 39
    4    8 O      34, 37, 38, 50
    5    1 H      51-84

          :  Hamiltonian                  GFN2-xTB          :
 * total energy  :  -149.2721100 Eh     change       -0.1244359E-08 Eh
 * total energy  :  -149.2898815 Eh     change       -0.1777145E-01 Eh
 * total energy  :  -149.2957794 Eh     change       -0.5897953E-02 Eh
 * total energy  :  -149.2978448 Eh     change       -0.2065356E-02 Eh
 * total energy  :  -149.2994063 Eh     change       -0.1561478E-02 Eh
 * total energy  :  -149.3003997 Eh     change       -0.9934038E-03 Eh
 * total energy  :  -149.3011025 Eh     change       -0.7027856E-03 Eh
 * total energy  :  -149.3017142 Eh     change       -0.6117936E-03 Eh
 * total energy  :  -149.3022273 Eh     change       -0.5130594E-03 Eh
 * total energy  :  -149.3026921 Eh     change       -0.4647850E-03 Eh
 * total energy  :  -149.3168991 Eh     change       -0.1287726E-04 Eh
 * total energy  :  -149.3169106 Eh     change       -0.1154581E-04 Eh
 * total energy  :  -149.3169220 Eh     change       -0.1135078E-04 Eh
 * total energy  :  -149.3169331 Eh     change       -0.1118017E-04 Eh
 * total energy  :  -149.3169440 Eh     change       -0.1081256E-04 Eh
 * total energy  :  -149.3169540 Eh     change       -0.1006160E-04 Eh
 * total energy  :  -149.3169626 Eh     change       -0.8628291E-05 Eh
 * total energy  :  -149.3169691 Eh     change       -0.6465041E-05 Eh
 * total energy  :  -149.3169738 Eh     change       -0.4692901E-05 Eh
   *** GEOMETRY OPTIMIZATION CONVERGED AFTER 149 ITERATIONS ***

 final structure:
================
84
 xtb: 6.3.3 (4ae9cef)
C         1.05560378589018   -4.31467602266668   -2.60464346636465
C        -0.20444678426527   -4.33949529017860   -3.42325111574241
F        -1.30069893830300   -4.59956263344730   -2.67185261937826
F        -0.47049867270055   -3.18232952983520   -4.05481147777078
F        -0.19409049261055   -5.27957144736371   -4.37623594149048
C         2.05142928253490   -5.23926746425727   -2.89573607564810
C         3.21686720867666   -5.26539473821583   -2.15507248688571
C         3.38865818072241   -4.37015974898866   -1.11411585667208
C         2.39763066765921   -3.45461849911962   -0.82216067588988
C         1.22160299863210   -3.40347017411370   -1.56193708447496
C         0.17753636869558   -2.38731319029124   -1.18334379001002
C        -0.48016328094513   -2.69155135140845    0.18197933208986
C        -1.75716805062449   -3.47791821542158    0.04494943057604
C        -1.88353119349934   -4.80153719510504    0.46606798547833
C        -0.72568835937724   -5.53745253974790    1.07905505589943
F        -0.24804699099612   -4.96862864830616    2.20068818847430
F        -1.01897344797209   -6.80103410344928    1.40817811104412
F         0.33392814310164   -5.61977129198019    0.23882600324906
C        -3.08603641373355   -5.47913120167290    0.30417833917768
C        -4.16841861822637   -4.84836044458441   -0.27701915069971
C        -4.04947153533237   -3.53869764925587   -0.70749692776948
C        -2.85437933359246   -2.86567966737400   -0.55025369892685
N        -0.72554136527638   -1.35954762345906    0.72309108124701
C        -1.60465458904196   -1.11092904521842    1.73564518594866
C        -1.73818136899268    0.35280516818917    2.01439962474582
C        -2.87624092305363    1.01744276479363    1.57328396882807
C        -2.96828260574329    2.39029060863357    1.69612711834654
C        -1.93622567538169    3.12576011890410    2.26651748032567
C        -1.97925122217491    4.63172764441020    2.30343004496893
C        -3.18345466461625    5.14407820965906    3.09484318451206
C        -1.98732473352939    5.17833362934221    0.87282779945166
C        -0.83803209464919    2.44204758865614    2.77307847945184
C        -0.73563669206516    1.06979770239720    2.65430543122242
O        -2.22703413847070   -1.98656643086125    2.29108682576898
C         0.07755435694100   -0.35360369812578    0.07280946252844
C        -0.77834742477491    0.77043736393264   -0.55014343242470
O        -1.76265386188707    0.27839755487691   -1.29910137938053
O        -0.54812616544760    1.94135703810802   -0.43605592729438
N         0.78207435290989   -1.07869840186767   -0.95888254611992
C         1.67311468216677   -0.53208551943962   -1.84387716580292
C         2.14002614583441    0.82906069057014   -1.45207831834056
C         2.84142904449340    1.02752822140048   -0.26795620249986
C         3.19421009938345    2.30262220212590    0.12435684175500
C         2.85287976049145    3.40691254906056   -0.64860758583019
C         3.15085659855760    4.80684830141119   -0.17494963891193
C         2.37998933427381    5.09271116896907    1.11668690116617
C         4.65219190818116    5.02308027526177    0.02282245086304
C         2.20619455483508    3.19195353760473   -1.85808710525362
C         1.85957938247168    1.91714748617709   -2.26534727382282
O         2.03973610617236   -1.12793771112319   -2.83160083763970
H         1.90989061097119   -5.93719198076946   -3.70605837818569
H         3.98593759903464   -5.98398579593066   -2.39083957063128
H         4.29511832648448   -4.38563231928422   -0.52846562735579
H         2.53716141096285   -2.75447916646912   -0.01198090693874
H        -0.59825043421599   -2.29891044675530   -1.95129187941994
H         0.23904280439198   -3.20615325979483    0.82821649213359
H        -3.17019828834051   -6.50194804723178    0.63654600992446
H        -5.09934299348785   -5.38052525897059   -0.39432762680070
H        -4.88949979473704   -3.04091574736136   -1.16769374302130
H        -2.76495305859006   -1.84315150165414   -0.88434085482429
H        -3.67423021634210    0.45140212306223    1.11408382756040
H        -3.84766095293192    2.89372947152016    1.32344496034019
H        -1.06868984323025    4.98521073213739    2.79939938167164
H        -3.16448239233809    4.75351398483331    4.10980020245315
H        -3.16486385860028    6.23057748388643    3.14104253454673
H        -4.11586955156675    4.83801733798906    2.62741233254187
H        -1.19130531793122    4.71740860612209    0.29169538181054
H        -2.93422035086194    4.96183431186338    0.38441382395119
H        -1.84318879200675    6.25629118444427    0.87876142837633
H        -0.04105721037240    2.99444139176880    3.24933027542336
H         0.12619370690619    0.55349118321718    3.05242781619743
H         0.78025821741092    0.13233424561364    0.76547901436695
H        -2.26367409750286    0.99221667837281   -1.72740397046644
H         3.11727785954352    0.17847602341878    0.34252570800948
H         3.72846987614620    2.43740051391243    1.05280753257981
H         2.80311143958566    5.50741657632634   -0.94177079704289
H         2.73851603863075    4.46163473512736    1.92626055511095
H         2.50700730761166    6.13263320502823    1.40946039503834
H         1.32003192854541    4.89536626791511    0.97242228291269
H         5.19060084357174    4.80531186175260   -0.89687631963975
H         4.84797229373865    6.05579322757076    0.30253870159551
H         5.03874475150406    4.37764266070965    0.80740213694270
H         1.95586077642187    4.03494140922809   -2.48578027337122
H         1.34780103622492    1.76046096082143   -3.20326139183502

          :  Hamiltonian                  GFN2-xTB          :
         :: total energy            -149.316973800752 Eh    ::
         :: gradient norm              0.000219419975 Eh/a0 ::
         :: HOMO-LUMO gap              3.329068275673 eV    ::
         :: SCC energy              -151.219856899040 Eh    ::
         :: -> dispersion             -0.119712558862 Eh    ::
         :: repulsion energy           1.898265193811 Eh    ::

    * Orbital Energies and Occupations

         #    Occupation            Energy/Eh            Energy/eV
      -------------------------------------------------------------
         1        2.0000           -0.8749675             -23.8091
       ...           ...                  ...                  ...
       119        2.0000           -0.4335034             -11.7962
       120        2.0000           -0.4302370             -11.7073
       121        2.0000           -0.4300261             -11.7016
       122        2.0000           -0.4279832             -11.6460
       123        2.0000           -0.4271470             -11.6233
       124        2.0000           -0.4206772             -11.4472
       125        2.0000           -0.4194941             -11.4150
       126        2.0000           -0.4169156             -11.3449
       127        2.0000           -0.4106688             -11.1749
       128        2.0000           -0.4094816             -11.1426
       129        2.0000           -0.4033221             -10.9750
       130        2.0000           -0.4007097             -10.9039
       131        2.0000           -0.3997889             -10.8788 (HOMO)
       132                         -0.2774479              -7.5497 (LUMO)
       133                         -0.2615877              -7.1182
       134                         -0.2572505              -7.0001
       135                         -0.2520953              -6.8599
       136                         -0.2513010              -6.8382
       137                         -0.2467226              -6.7137
       138                         -0.2446631              -6.6576
       139                         -0.2376336              -6.4663
       140                         -0.2342485              -6.3742
       141                         -0.2190018              -5.9593
       142                         -0.2126463              -5.7864
       ...                                ...                  ...
       234                          0.6590235              17.9329
      -------------------------------------------------------------
                  HL-Gap            0.1223410 Eh            3.3291 eV

     #   Z          covCN         q      C6AA      Î±(0)
     1   6 C        2.977    -0.023    28.585     8.770
     2   6 C        3.336     0.486    17.296     6.587
     3   9 F        0.791    -0.224    11.486     4.003
     4   9 F        0.791    -0.205    11.290     3.969
     5   9 F        0.792    -0.200    11.237     3.960
     6   6 C        2.923    -0.018    28.466     8.750
     7   6 C        2.921    -0.020    28.498     8.754
     8   6 C        2.919    -0.015    28.377     8.736
     9   6 C        2.928    -0.020    28.498     8.755
    10   6 C        2.972     0.027    27.396     8.586
    11   6 C        3.827     0.048    19.743     6.323
    12   6 C        3.823     0.048    19.761     6.326
    13   6 C        2.972     0.027    27.405     8.587
    14   6 C        2.976    -0.024    28.603     8.773
    15   6 C        3.336     0.485    17.299     6.588
    16   9 F        0.791    -0.206    11.297     3.970
    17   9 F        0.792    -0.200    11.234     3.959
    18   9 F        0.791    -0.225    11.494     4.005
    19   6 C        2.923    -0.019    28.473     8.751
    20   6 C        2.920    -0.020    28.501     8.755
    21   6 C        2.919    -0.015    28.385     8.737
    22   6 C        2.927    -0.023    28.568     8.765
    23   7 N        2.770    -0.118    23.557     7.209
    24   6 C        2.760     0.272    22.395     7.750
    25   6 C        2.981    -0.028    28.684     8.785
    26   6 C        2.923    -0.029    28.725     8.789
    27   6 C        2.925    -0.031    28.766     8.796
    28   6 C        2.974     0.022    27.515     8.604
    29   6 C        3.855    -0.014    20.789     6.485
    30   6 C        3.755    -0.104    22.550     6.771
    31   6 C        3.757    -0.105    22.556     6.771
    32   6 C        2.926    -0.031    28.780     8.798
    33   6 C        2.920    -0.031    28.766     8.795
    34   8 O        0.858    -0.409    21.869     6.270
    35   6 C        3.756     0.087    19.182     6.245
    36   6 C        2.687     0.349    21.077     7.513
    37   8 O        1.659    -0.358    20.054     6.045
    38   8 O        0.856    -0.390    21.479     6.214
    39   7 N        2.769    -0.123    23.668     7.226
    40   6 C        2.761     0.271    22.420     7.754
    41   6 C        2.979    -0.025    28.633     8.777
    42   6 C        2.922    -0.033    28.816     8.803
    43   6 C        2.925    -0.031    28.763     8.795
    44   6 C        2.974     0.020    27.564     8.612
    45   6 C        3.855    -0.015    20.797     6.486
    46   6 C        3.757    -0.104    22.539     6.769
    47   6 C        3.755    -0.104    22.546     6.770
    48   6 C        2.926    -0.030    28.759     8.794
    49   6 C        2.922    -0.020    28.504     8.755
    50   8 O        0.859    -0.409    21.866     6.270
    51   1 H        0.926     0.069     2.101     2.267
    52   1 H        0.926     0.059     2.212     2.326
    53   1 H        0.926     0.057     2.232     2.337
    54   1 H        0.926     0.048     2.345     2.395
    55   1 H        0.924     0.066     2.135     2.285
    56   1 H        0.924     0.063     2.164     2.300
    57   1 H        0.926     0.068     2.111     2.272
    58   1 H        0.926     0.058     2.225     2.333
    59   1 H        0.926     0.055     2.262     2.352
    60   1 H        0.926     0.059     2.213     2.326
    61   1 H        0.926     0.037     2.488     2.466
    62   1 H        0.926     0.042     2.421     2.433
    63   1 H        0.924     0.036     2.510     2.477
    64   1 H        0.925     0.036     2.503     2.474
    65   1 H        0.925     0.041     2.441     2.443
    66   1 H        0.925     0.039     2.464     2.455
    67   1 H        0.925     0.044     2.400     2.422
    68   1 H        0.925     0.037     2.484     2.465
    69   1 H        0.925     0.039     2.462     2.454
    70   1 H        0.926     0.041     2.432     2.439
    71   1 H        0.926     0.033     2.544     2.494
    72   1 H        0.923     0.070     2.081     2.256
    73   1 H        0.804     0.344     0.602     1.218
    74   1 H        0.925     0.028     2.621     2.532
    75   1 H        0.926     0.041     2.429     2.437
    76   1 H        0.924     0.035     2.511     2.478
    77   1 H        0.925     0.037     2.488     2.467
    78   1 H        0.925     0.039     2.461     2.453
    79   1 H        0.925     0.040     2.450     2.448
    80   1 H        0.925     0.036     2.506     2.475
    81   1 H        0.925     0.040     2.453     2.449
    82   1 H        0.925     0.039     2.464     2.455
    83   1 H        0.926     0.041     2.438     2.442
    84   1 H        0.926     0.041     2.440     2.443

Wiberg/Mayer (AO) data.
largest (>0.10) Wiberg bond orders for each atom

     #   Z sym  total        # sym  WBO       # sym  WBO       # sym  WBO
 ---------------------------------------------------------------------------
     1   6 C    3.969 --     6 C    1.411    10 C    1.387     2 C    0.952
                             8 C    0.104
     2   6 C    3.821 --     5 F    0.957     1 C    0.952     4 F    0.945
                             3 F    0.928
     3   9 F    1.055 --     2 C    0.928
     4   9 F    1.075 --     2 C    0.945
     5   9 F    1.079 --     2 C    0.957
     6   6 C    3.987 --     7 C    1.445     1 C    1.411    51 H    0.965
                             9 C    0.109
     7   6 C    3.988 --     6 C    1.445     8 C    1.431    52 H    0.969
                            10 C    0.108
     8   6 C    3.990 --     9 C    1.451     7 C    1.431    53 H    0.969
                             1 C    0.104
     9   6 C    3.990 --     8 C    1.451    10 C    1.406    54 H    0.966
                             6 C    0.109
    10   6 C    3.986 --     9 C    1.406     1 C    1.387    11 C    0.997
                             7 C    0.108
    11   6 C    3.967 --    10 C    0.997    39 N    0.957    55 H    0.951
                            12 C    0.948
    12   6 C    3.967 --    13 C    0.996    23 N    0.955    56 H    0.952
                            11 C    0.948
    13   6 C    3.986 --    22 C    1.406    14 C    1.387    12 C    0.996
                            20 C    0.108
    14   6 C    3.969 --    19 C    1.411    13 C    1.387    15 C    0.952
                            21 C    0.104
    15   6 C    3.820 --    17 F    0.957    14 C    0.952    16 F    0.944
                            18 F    0.927
    16   9 F    1.074 --    15 C    0.944
    17   9 F    1.079 --    15 C    0.957
    18   9 F    1.054 --    15 C    0.927
    19   6 C    3.987 --    20 C    1.445    14 C    1.411    57 H    0.966
                            22 C    0.109
    20   6 C    3.988 --    19 C    1.445    21 C    1.431    58 H    0.969
                            13 C    0.108
    21   6 C    3.990 --    22 C    1.451    20 C    1.431    59 H    0.969
                            14 C    0.104
    22   6 C    3.988 --    21 C    1.451    13 C    1.406    60 H    0.962
                            19 C    0.109
    23   7 N    3.450 --    24 C    1.192    35 C    0.988    12 C    0.955
                            34 O    0.191
    24   6 C    3.943 --    34 O    1.711    23 N    1.192    25 C    0.957
    25   6 C    3.986 --    33 C    1.398    26 C    1.393    24 C    0.957
                            28 C    0.106
    26   6 C    3.990 --    27 C    1.452    25 C    1.393    61 H    0.969
                            32 C    0.105
    27   6 C    3.991 --    26 C    1.452    28 C    1.407    62 H    0.965
                            33 C    0.108
    28   6 C    3.985 --    27 C    1.407    32 C    1.406    29 C    1.001
                            25 C    0.106
    29   6 C    3.995 --    28 C    1.001    30 C    0.998    31 C    0.994
                            63 H    0.967
    30   6 C    3.995 --    29 C    0.998    64 H    0.987    65 H    0.985
                            66 H    0.985
    31   6 C    3.995 --    29 C    0.994    68 H    0.986    69 H    0.986
                            67 H    0.985
    32   6 C    3.991 --    33 C    1.451    28 C    1.406    70 H    0.967
                            26 C    0.105
    33   6 C    3.991 --    32 C    1.451    25 C    1.398    71 H    0.968
                            27 C    0.108
    34   8 O    2.038 --    24 C    1.711    23 N    0.191
    35   6 C    3.970 --    23 N    0.988    39 N    0.983    72 H    0.939
                            36 C    0.908
    36   6 C    3.921 --    38 O    1.776    37 O    1.151    35 C    0.908
    37   8 O    2.221 --    36 C    1.151    73 H    0.855    38 O    0.179
    38   8 O    2.060 --    36 C    1.776    37 O    0.179
    39   7 N    3.438 --    40 C    1.175    35 C    0.983    11 C    0.957
                            50 O    0.183
    40   6 C    3.941 --    50 O    1.712    39 N    1.175    41 C    0.969
    41   6 C    3.985 --    49 C    1.407    42 C    1.389    40 C    0.969
                            44 C    0.107
    42   6 C    3.991 --    43 C    1.458    41 C    1.389    74 H    0.968
                            48 C    0.107
    43   6 C    3.991 --    42 C    1.458    44 C    1.400    75 H    0.965
                            49 C    0.107
    44   6 C    3.986 --    48 C    1.416    43 C    1.400    45 C    1.000
                            41 C    0.107
    45   6 C    3.995 --    44 C    1.000    47 C    0.998    46 C    0.995
                            76 H    0.968
    46   6 C    3.995 --    45 C    0.995    79 H    0.986    77 H    0.986
                            78 H    0.985
    47   6 C    3.996 --    45 C    0.998    80 H    0.987    81 H    0.986
                            82 H    0.985
    48   6 C    3.990 --    49 C    1.442    44 C    1.416    83 H    0.967
                            42 C    0.107
    49   6 C    3.990 --    48 C    1.442    41 C    1.407    84 H    0.969
                            43 C    0.107
    50   8 O    2.038 --    40 C    1.712    39 N    0.183
    51   1 H    0.995 --     6 C    0.965
    52   1 H    0.996 --     7 C    0.969
    53   1 H    0.996 --     8 C    0.969
    54   1 H    0.997 --     9 C    0.966
    55   1 H    0.995 --    11 C    0.951
    56   1 H    0.995 --    12 C    0.952
    57   1 H    0.995 --    19 C    0.966
    58   1 H    0.996 --    20 C    0.969
    59   1 H    0.996 --    21 C    0.969
    60   1 H    0.996 --    22 C    0.962
    61   1 H    0.998 --    26 C    0.969
    62   1 H    0.998 --    27 C    0.965
    63   1 H    0.998 --    29 C    0.967
    64   1 H    0.999 --    30 C    0.987
    65   1 H    0.998 --    30 C    0.985
    66   1 H    0.998 --    30 C    0.985
    67   1 H    0.998 --    31 C    0.985
    68   1 H    0.999 --    31 C    0.986
    69   1 H    0.998 --    31 C    0.986
    70   1 H    0.998 --    32 C    0.967
    71   1 H    0.999 --    33 C    0.968
    72   1 H    0.995 --    35 C    0.939
    73   1 H    0.881 --    37 O    0.855
    74   1 H    0.999 --    42 C    0.968
    75   1 H    0.998 --    43 C    0.965
    76   1 H    0.998 --    45 C    0.968
    77   1 H    0.999 --    46 C    0.986
    78   1 H    0.998 --    46 C    0.985
    79   1 H    0.998 --    46 C    0.986
    80   1 H    0.999 --    47 C    0.987
    81   1 H    0.998 --    47 C    0.986
    82   1 H    0.998 --    47 C    0.985
    83   1 H    0.998 --    48 C    0.967
    84   1 H    0.998 --    49 C    0.969
 ---------------------------------------------------------------------------

molecular dipole:
                 x           y           z       tot (Debye)
 q only:       -0.037       2.213       0.303
   full:       -0.091       2.439       0.290       6.248

           -------------------------------------------------
          | TOTAL ENERGY             -149.316973800752 Eh   |
          | GRADIENT NORM               0.000219419975 Eh/Î± |
          | HOMO-LUMO GAP               3.329068275673 eV   |
           -------------------------------------------------

 * finished run on 2022/03/17 at 01:40:17.565
