   * xtb version 6.3.3 (4ae9cef) compiled by 'conda@95abc7406d43' on 2020-10-14
          program call               : xtb acid_30.xyz --opt --chrg 0 --uhf 0 --gfn 2
          number of atoms            :                    62
          number of electrons        :                   206
          charge                     :                     0
          spin                       :                   0.0

   ID    Z sym.   atoms
    1    6 C      1, 3-16, 18, 20-22, 24, 26, 28, 29, 33-35, 37, 39
    2    8 O      2, 17, 23, 27, 30, 31, 36, 40
    3    7 N      19, 32
    4   35 Br     25, 38
    5    1 H      41-62

          :  Hamiltonian                  GFN2-xTB          :
 * total energy  :  -117.7310176 Eh     change       -0.2419739E-08 Eh
 * total energy  :  -117.7466357 Eh     change       -0.1561811E-01 Eh
 * total energy  :  -117.7519166 Eh     change       -0.5280872E-02 Eh
 * total energy  :  -117.7532076 Eh     change       -0.1291039E-02 Eh
 * total energy  :  -117.7539790 Eh     change       -0.7713499E-03 Eh
 * total energy  :  -117.7545525 Eh     change       -0.5735137E-03 Eh
 * total energy  :  -117.7551118 Eh     change       -0.5593134E-03 Eh
 * total energy  :  -117.7556304 Eh     change       -0.5185590E-03 Eh
 * total energy  :  -117.7561650 Eh     change       -0.5346711E-03 Eh
 * total energy  :  -117.7565692 Eh     change       -0.4041825E-03 Eh
 * total energy  :  -117.7586145 Eh     change       -0.5702540E-04 Eh
 * total energy  :  -117.7586418 Eh     change       -0.2728174E-04 Eh
 * total energy  :  -117.7586608 Eh     change       -0.1906502E-04 Eh
 * total energy  :  -117.7587061 Eh     change       -0.4529532E-04 Eh
 * total energy  :  -117.7587247 Eh     change       -0.1858489E-04 Eh
 * total energy  :  -117.7587432 Eh     change       -0.1853727E-04 Eh
 * total energy  :  -117.7587520 Eh     change       -0.8755347E-05 Eh
 * total energy  :  -117.7587574 Eh     change       -0.5389942E-05 Eh
 * total energy  :  -117.7587619 Eh     change       -0.4493968E-05 Eh
   *** GEOMETRY OPTIMIZATION CONVERGED AFTER 33 ITERATIONS ***

 final structure:
================
62
 xtb: 6.3.3 (4ae9cef)
C        -2.88900288277475   -0.05232827881439   -0.35680987287805
O        -2.08551602011127   -0.27808542951272   -1.44247701868068
C        -2.68071712238859   -0.55202567927839   -2.68809667372786
C        -4.26905976421228    0.08505312189561   -0.44401152268563
C        -5.02351663446801    0.33740308068803    0.68793209890145
C        -4.41080196885000    0.45545287136150    1.92035362034336
C        -3.03876511847791    0.30662286309387    2.01195814216165
C        -2.26149776478930    0.04550278918281    0.89296428544939
C        -0.77136703744476   -0.09067546831637    1.09119112617700
C        -0.04044080648021   -1.10781337170399    0.19445370575662
C         0.96083770656606   -1.89888671550297    0.99952891259996
C         2.26860099747794   -1.48381341813328    1.16747197477525
C         3.15897994123227   -2.22565116241922    1.92570569363832
C         2.73192103776703   -3.39478739338678    2.52358618036512
C         1.42210827143438   -3.82157776938014    2.37901247418450
C         0.52453338842332   -3.07639131698831    1.62525843203041
O        -0.78812551798531   -3.39347535040231    1.44367513142232
C        -1.27699927641968   -4.58689096998052    2.00748838839044
N         0.61802680230156   -0.28185006646108   -0.80941747507214
C         1.21087440566457   -0.85807608281436   -1.88219395763907
C         2.03077467816318    0.03621740603771   -2.74000842118604
C         2.03620092362351    0.04687367521479   -4.10575854990175
O         2.94468291884083    0.91507175184345   -4.57697177822840
C         3.55125355730228    1.44876571088993   -3.50775449150532
Br        4.89195284508927    2.70620251719487   -3.81391556179068
C         3.04321618845930    0.95772759603818   -2.34448961733628
O         1.11975726662941   -2.04640070859550   -2.11112011115872
C         0.40105087165346    1.12383821073924   -0.55423614285639
C        -0.62989266278930    1.77149113353962   -1.50855787795037
O        -0.34275887515544    1.53443911585465   -2.78743924695960
O        -1.49986215673268    2.51264587910897   -1.14855374704805
N        -0.06754985023686    1.15458812008946    0.79920820133207
C         0.38187131490657    1.94630683478095    1.80713936348925
C         1.20341193208426    3.11095476774656    1.39564025068084
C         2.36556239332389    3.51322669308650    1.99392026621860
O         2.83487846061883    4.63122116540395    1.42022505678260
C         1.95673742133202    4.96782571701116    0.46211154908644
Br        2.32293047429824    6.49669587106468   -0.53657925424810
C         0.93000374561046    4.07799156544282    0.38500173744188
O         0.12519942105806    1.72263260788853    2.97095522808695
H        -3.23416576188016    0.31174401727666   -3.07220395618417
H        -1.85400973458786   -0.78756713704250   -3.35767087174971
H        -3.35070853193127   -1.41410589625987   -2.62693189798917
H        -4.76712844476528    0.00600436394371   -1.39716756180255
H        -6.09384549158920    0.44567911239727    0.59635799694713
H        -4.99422609224123    0.66065664769118    2.80421250536616
H        -2.54944726070851    0.40194261649809    2.96951732752974
H        -0.59400951073860   -0.31472628334394    2.14848420922200
H        -0.73106431601057   -1.80673109223439   -0.28264281428043
H         2.60083454316270   -0.57154141095042    0.69401286117399
H         4.17805138847677   -1.89174596819466    2.04483008582895
H         3.41765289015230   -3.98516671679949    3.11245288527244
H         1.11248681970415   -4.73611017598296    2.85909371358072
H        -1.20007644035134   -4.57619004989623    3.09925896776767
H        -0.75363194145442   -5.46280448311195    1.61195261423801
H        -2.32701339030900   -4.63505071732522    1.72319519188825
H         1.44672820080634   -0.49282704799373   -4.81809560394149
H         3.38745526503900    1.19176753710587   -1.35795645989700
H         1.32252955140123    1.71100254961908   -0.67065566806100
H        -0.98473834141207    1.98059793929914   -3.36480406359691
H         2.93183806452239    3.08694097075020    2.79708731052495
H         0.07699703017530    4.12220934104820   -0.25871827030254

          :  Hamiltonian                  GFN2-xTB          :
         :: total energy            -117.758761882727 Eh    ::
         :: gradient norm              0.000424211913 Eh/a0 ::
         :: HOMO-LUMO gap              3.209229938912 eV    ::
         :: SCC energy              -119.183072619005 Eh    ::
         :: -> dispersion             -0.091058212076 Eh    ::
         :: repulsion energy           1.420823608229 Eh    ::

    * Orbital Energies and Occupations

         #    Occupation            Energy/Eh            Energy/eV
      -------------------------------------------------------------
         1        2.0000           -0.8586790             -23.3658
       ...           ...                  ...                  ...
        91        2.0000           -0.4373861             -11.9019
        92        2.0000           -0.4352767             -11.8445
        93        2.0000           -0.4347129             -11.8291
        94        2.0000           -0.4218409             -11.4789
        95        2.0000           -0.4197110             -11.4209
        96        2.0000           -0.4139065             -11.2630
        97        2.0000           -0.4126238             -11.2281
        98        2.0000           -0.4114061             -11.1949
        99        2.0000           -0.4090724             -11.1314
       100        2.0000           -0.4076315             -11.0922
       101        2.0000           -0.4027970             -10.9607
       102        2.0000           -0.3938742             -10.7179
       103        2.0000           -0.3859519             -10.5023 (HOMO)
       104                         -0.2680149              -7.2931 (LUMO)
       105                         -0.2629180              -7.1544
       106                         -0.2599529              -7.0737
       107                         -0.2423421              -6.5945
       108                         -0.2413976              -6.5688
       109                         -0.2375920              -6.4652
       110                         -0.2313814              -6.2962
       111                         -0.2251496              -6.1266
       112                         -0.2221637              -6.0454
       113                         -0.2216506              -6.0314
       114                         -0.2196394              -5.9767
       ...                                ...                  ...
       192                          0.6692123              18.2102
      -------------------------------------------------------------
                  HL-Gap            0.1179370 Eh            3.2092 eV

     #   Z          covCN         q      C6AA      Î±(0)
     1   6 C        2.864     0.143    24.881     8.176
     2   8 O        1.704    -0.282    18.686     5.836
     3   6 C        3.641     0.041    20.234     6.468
     4   6 C        2.918    -0.062    29.537     8.912
     5   6 C        2.921    -0.029    28.718     8.788
     6   6 C        2.917    -0.037    28.910     8.817
     7   6 C        2.928    -0.031    28.769     8.796
     8   6 C        2.968    -0.015    28.373     8.737
     9   6 C        3.839     0.039    19.892     6.345
    10   6 C        3.830     0.041    19.867     6.342
    11   6 C        2.974    -0.016    28.399     8.741
    12   6 C        2.923    -0.030    28.761     8.795
    13   6 C        2.918    -0.040    28.986     8.829
    14   6 C        2.921    -0.030    28.759     8.794
    15   6 C        2.917    -0.064    29.593     8.921
    16   6 C        2.870     0.141    24.934     8.185
    17   8 O        1.705    -0.272    18.512     5.809
    18   6 C        3.644     0.036    20.310     6.478
    19   7 N        2.766    -0.098    23.148     7.146
    20   6 C        2.759     0.275    22.344     7.741
    21   6 C        3.081    -0.038    28.858     8.807
    22   6 C        3.089     0.080    26.123     8.378
    23   8 O        1.763    -0.163    16.756     5.527
    24   6 C        3.091     0.182    24.013     8.032
    25  35 Br       0.990    -0.105   187.881    22.101
    26   6 C        3.048    -0.075    29.818     8.956
    27   8 O        0.859    -0.417    22.023     6.292
    28   6 C        3.766     0.089    19.142     6.236
    29   6 C        2.687     0.362    20.862     7.475
    30   8 O        1.659    -0.372    20.322     6.086
    31   8 O        0.856    -0.387    21.430     6.207
    32   7 N        2.771    -0.099    23.171     7.149
    33   6 C        2.758     0.274    22.371     7.745
    34   6 C        3.085    -0.046    29.030     8.832
    35   6 C        3.080     0.078    26.182     8.389
    36   8 O        1.763    -0.163    16.755     5.527
    37   6 C        3.090     0.182    24.016     8.033
    38  35 Br       0.991    -0.103   187.837    22.098
    39   6 C        3.043    -0.078    29.904     8.969
    40   8 O        0.859    -0.413    21.951     6.282
    41   1 H        0.924     0.038     2.480     2.462
    42   1 H        0.925     0.064     2.155     2.295
    43   1 H        0.924     0.049     2.338     2.391
    44   1 H        0.926     0.041     2.431     2.438
    45   1 H        0.926     0.042     2.418     2.432
    46   1 H        0.926     0.045     2.386     2.416
    47   1 H        0.926     0.057     2.235     2.338
    48   1 H        0.924     0.086     1.920     2.167
    49   1 H        0.924     0.095     1.828     2.114
    50   1 H        0.926     0.025     2.655     2.548
    51   1 H        0.926     0.038     2.470     2.458
    52   1 H        0.926     0.041     2.436     2.440
    53   1 H        0.926     0.042     2.418     2.432
    54   1 H        0.924     0.044     2.403     2.424
    55   1 H        0.924     0.046     2.371     2.408
    56   1 H        0.925     0.063     2.163     2.300
    57   1 H        0.926     0.076     2.016     2.220
    58   1 H        0.926     0.051     2.313     2.378
    59   1 H        0.923     0.067     2.115     2.274
    60   1 H        0.804     0.345     0.601     1.218
    61   1 H        0.926     0.079     1.991     2.206
    62   1 H        0.927     0.069     2.095     2.263

Wiberg/Mayer (AO) data.
largest (>0.10) Wiberg bond orders for each atom

     #   Z sym  total        # sym  WBO       # sym  WBO       # sym  WBO
 ---------------------------------------------------------------------------
     1   6 C    3.930 --     4 C    1.383     8 C    1.335     2 O    1.041
     2   8 O    2.235 --     1 C    1.041     3 C    0.980
     3   6 C    3.943 --     2 O    0.980    42 H    0.978    43 H    0.976
                            41 H    0.976
     4   6 C    3.987 --     5 C    1.437     1 C    1.383    44 H    0.965
                             7 C    0.104
     5   6 C    3.990 --     6 C    1.441     4 C    1.437    45 H    0.971
                             8 C    0.107
     6   6 C    3.991 --     5 C    1.441     7 C    1.432    46 H    0.970
     7   6 C    3.987 --     6 C    1.432     8 C    1.430    47 H    0.966
                             4 C    0.104
     8   6 C    3.982 --     7 C    1.430     1 C    1.335     9 C    0.988
                             5 C    0.107
     9   6 C    3.958 --     8 C    0.988    10 C    0.958    48 H    0.950
                            32 N    0.949
    10   6 C    3.958 --    11 C    0.988    19 N    0.959     9 C    0.958
                            49 H    0.943
    11   6 C    3.983 --    12 C    1.443    16 C    1.319    10 C    0.988
                            14 C    0.106
    12   6 C    3.991 --    11 C    1.443    13 C    1.421    50 H    0.968
                            15 C    0.101
    13   6 C    3.991 --    14 C    1.447    12 C    1.421    51 H    0.971
    14   6 C    3.990 --    13 C    1.447    15 C    1.432    52 H    0.971
                            11 C    0.106
    15   6 C    3.987 --    14 C    1.432    16 C    1.384    53 H    0.965
                            12 C    0.101
    16   6 C    3.935 --    15 C    1.384    11 C    1.319    17 O    1.063
    17   8 O    2.233 --    16 C    1.063    18 C    0.982
    18   6 C    3.943 --    17 O    0.982    56 H    0.979    55 H    0.977
                            54 H    0.976
    19   7 N    3.478 --    20 C    1.218    28 C    0.982    10 C    0.959
                            27 O    0.194
    20   6 C    3.953 --    27 O    1.679    19 N    1.218    21 C    0.978
    21   6 C    3.979 --    22 C    1.569    26 C    1.248    20 C    0.978
    22   6 C    3.903 --    21 C    1.569    23 O    1.131    57 H    0.963
                            24 C    0.131
    23   8 O    2.460 --    22 C    1.131    24 C    1.128
    24   6 C    3.880 --    26 C    1.560    23 O    1.128    25 Br   1.014
                            22 C    0.131
    25  35 Br   1.165 --    24 C    1.014
    26   6 C    3.976 --    24 C    1.560    21 C    1.248    58 H    0.970
    27   8 O    2.015 --    20 C    1.679    19 N    0.194
    28   6 C    3.975 --    32 N    1.003    19 N    0.982    59 H    0.925
                            29 C    0.907
    29   6 C    3.919 --    31 O    1.774    30 O    1.143    28 C    0.907
    30   8 O    2.203 --    29 C    1.143    60 H    0.854    31 O    0.174
    31   8 O    2.060 --    29 C    1.774    30 O    0.174
    32   7 N    3.480 --    33 C    1.209    28 C    1.003     9 C    0.949
                            40 O    0.192
    33   6 C    3.951 --    40 O    1.684    32 N    1.209    34 C    0.983
    34   6 C    3.978 --    35 C    1.562    39 C    1.245    33 C    0.983
    35   6 C    3.902 --    34 C    1.562    36 O    1.135    61 H    0.962
                            37 C    0.131
    36   8 O    2.460 --    35 C    1.135    37 C    1.125
    37   6 C    3.881 --    39 C    1.566    36 O    1.125    38 Br   1.015
                            35 C    0.131
    38  35 Br   1.165 --    37 C    1.015
    39   6 C    3.977 --    37 C    1.566    34 C    1.245    62 H    0.968
    40   8 O    2.022 --    33 C    1.684    32 N    0.192
    41   1 H    0.999 --     3 C    0.976
    42   1 H    0.995 --     3 C    0.978
    43   1 H    0.997 --     3 C    0.976
    44   1 H    0.998 --     4 C    0.965
    45   1 H    0.998 --     5 C    0.971
    46   1 H    0.997 --     6 C    0.970
    47   1 H    0.996 --     7 C    0.966
    48   1 H    0.992 --     9 C    0.950
    49   1 H    0.990 --    10 C    0.943
    50   1 H    0.999 --    12 C    0.968
    51   1 H    0.998 --    13 C    0.971
    52   1 H    0.998 --    14 C    0.971
    53   1 H    0.998 --    15 C    0.965
    54   1 H    0.998 --    18 C    0.976
    55   1 H    0.998 --    18 C    0.977
    56   1 H    0.996 --    18 C    0.979
    57   1 H    0.994 --    22 C    0.963
    58   1 H    0.997 --    26 C    0.970
    59   1 H    0.995 --    28 C    0.925
    60   1 H    0.880 --    30 O    0.854
    61   1 H    0.994 --    35 C    0.962
    62   1 H    0.995 --    39 C    0.968
 ---------------------------------------------------------------------------

molecular dipole:
                 x           y           z       tot (Debye)
 q only:       -1.341      -1.292      -0.299
   full:       -1.702      -1.861      -0.358       6.474

           -------------------------------------------------
          | TOTAL ENERGY             -117.758761882727 Eh   |
          | GRADIENT NORM               0.000424211913 Eh/Î± |
          | HOMO-LUMO GAP               3.209229938912 eV   |
           -------------------------------------------------

 * finished run on 2022/03/16 at 23:34:00.074
