   * xtb version 6.3.3 (4ae9cef) compiled by 'conda@95abc7406d43' on 2020-10-14
          program call               : xtb acid_181.xyz --opt --chrg 0 --uhf 0 --gfn 2
          number of atoms            :                    78
          number of electrons        :                   262
          charge                     :                     0
          spin                       :                   0.0

   ID    Z sym.   atoms
    1    6 C      1-22, 24-29, 33, 34, 36, 37, 41-46, 50, 51
    2    7 N      23, 40
    3    9 F      30-32, 47-49
    4    8 O      35, 38, 39, 52
    5    1 H      53-78

          :  Hamiltonian                  GFN2-xTB          :
 * total energy  :  -149.4394460 Eh     change       -0.7538006E-09 Eh
 * total energy  :  -149.4607707 Eh     change       -0.2132474E-01 Eh
 * total energy  :  -149.4681111 Eh     change       -0.7340433E-02 Eh
 * total energy  :  -149.4702773 Eh     change       -0.2166141E-02 Eh
 * total energy  :  -149.4714568 Eh     change       -0.1179496E-02 Eh
 * total energy  :  -149.4720498 Eh     change       -0.5930469E-03 Eh
 * total energy  :  -149.4726080 Eh     change       -0.5581652E-03 Eh
 * total energy  :  -149.4733474 Eh     change       -0.7394310E-03 Eh
 * total energy  :  -149.4742587 Eh     change       -0.9113462E-03 Eh
 * total energy  :  -149.4752482 Eh     change       -0.9894604E-03 Eh
 * total energy  :  -149.5101073 Eh     change       -0.3317492E-04 Eh
 * total energy  :  -149.5101198 Eh     change       -0.1248290E-04 Eh
 * total energy  :  -149.5101383 Eh     change       -0.1846284E-04 Eh
 * total energy  :  -149.5101476 Eh     change       -0.9323914E-05 Eh
 * total energy  :  -149.5101791 Eh     change       -0.3155801E-04 Eh
 * total energy  :  -149.5102012 Eh     change       -0.2201495E-04 Eh
 * total energy  :  -149.5102195 Eh     change       -0.1834760E-04 Eh
 * total energy  :  -149.5102387 Eh     change       -0.1917730E-04 Eh
 * total energy  :  -149.5102435 Eh     change       -0.4819200E-05 Eh
   *** GEOMETRY OPTIMIZATION CONVERGED AFTER 101 ITERATIONS ***

 final structure:
================
78
 xtb: 6.3.3 (4ae9cef)
C        -2.96278466303525   -3.56212254810709   -2.81785520719873
C        -3.15163478530105   -2.44293663970039   -3.57674402097455
C        -2.69202030646955   -1.20367653520004   -3.11029950712896
C        -2.06897330989860   -1.10281219552965   -1.89711128567233
C        -1.87107162153592   -2.23467956363138   -1.07440496627942
C        -2.32084847993769   -3.49318527119089   -1.56312546325883
C        -2.11815557810517   -4.65617764843025   -0.79279117117209
C        -1.49470379745738   -4.58471329176734    0.41912653912065
C        -1.06970800602119   -3.34654191586712    0.91508204668226
C        -1.25281235638002   -2.18722508680365    0.20459809511105
C        -0.75754259886214   -0.90048949605834    0.81575635778517
C         0.46785514642688   -0.31735173489134    0.08077850560139
C         1.76078073485384   -0.62349769027846    0.79775519389231
C         1.94537722476940   -0.08449124539646    2.04899279155657
C         3.15228101446593   -0.24536760562692    2.73842174019180
C         4.18418487804631   -0.92496357291404    2.15679551261181
C         4.03006458090506   -1.51326099420465    0.88548393251364
C         2.78756276127731   -1.40213849098130    0.20014776023568
C         2.66223391985820   -2.05892903265290   -1.04407683379967
C         3.71378111384092   -2.73374856726075   -1.59897690825679
C         4.95087217304501   -2.79732263466243   -0.94278994631859
C         5.09823173148996   -2.20884903918094    0.28005582831416
N         0.19640297121763    1.11578717570038    0.04414671092335
C         1.09728852086002    2.12601156449532    0.00950031686340
C         2.46692746003338    1.75827335894173   -0.45413042993544
C         3.56155523565491    2.07206106089987    0.34364694930279
C         4.83114831044334    1.69335465632431   -0.04514914525751
C         5.00742438038724    1.02629991854544   -1.25121793175712
C         6.39082863601903    0.60757346079265   -1.65940582269107
F         7.12325723807748    0.17372624970739   -0.62140681101096
F         7.08836864291106    1.62070624408829   -2.20890476225340
F         6.39419241215557   -0.38116280801157   -2.56563471099091
C         3.92898780434197    0.77654651831117   -2.08776686213056
C         2.65822835661903    1.14029631165550   -1.68433320313218
O         0.76758588073562    3.25878301698003    0.31120849768420
C        -1.15486053930644    1.44496802643163    0.44994948405538
C        -1.10434649298658    2.40818029028988    1.65854822278677
O        -1.84159454614685    3.48915183724986    1.45359150849722
O        -0.53648151468121    2.14655376630510    2.68275642321014
N        -1.74566296871037    0.17332892053337    0.78162783004759
C        -2.97152954273789   -0.01338361023243    1.33851805763909
C        -3.87145242265019    1.18228752444840    1.26486599672439
C        -4.29053519502321    1.79924539877770    2.43663065603874
C        -5.12773065221756    2.89763031963343    2.37868758416574
C        -5.55664377152769    3.36658935056711    1.14359852759105
C        -6.47134502391846    4.55826768322464    1.10073643093099
F        -6.53692797863793    5.13067802937049   -0.10885618112574
F        -6.09206895288603    5.52136188086572    1.95856919677997
F        -7.73643039721446    4.23967371143178    1.43643420105948
C        -5.17442456385545    2.73096402676547   -0.02946897654073
C        -4.32887644640838    1.63937958311762    0.03463543880562
O        -3.31355316849981   -1.06872839695677    1.82183305761711
H        -3.30400863839937   -4.52604036733629   -3.16699281674684
H        -3.64695994670109   -2.50294079411535   -4.53427081493537
H        -2.83213625760963   -0.32256793127407   -3.72030781513142
H        -1.72192104925160   -0.13582944740113   -1.57217970002142
H        -2.46741235234211   -5.60185517008614   -1.18099638352051
H        -1.33535232086128   -5.47365203627635    1.01022025219983
H        -0.59689893997467   -3.30682712382088    1.88523477545587
H        -0.49908582046767   -1.10186102037502    1.86381391881517
H         0.48921598024298   -0.69618872322992   -0.94494635545768
H         1.16429125782309    0.50979760143069    2.50169078243914
H         3.26153899680167    0.19210400068386    3.71896351844267
H         5.13409346996291   -1.02627672870228    2.66061839305038
H         1.71913398264617   -2.05176034524242   -1.56894422326891
H         3.59448387047024   -3.22626500145795   -2.55242968705001
H         5.77455594363940   -3.31825616133326   -1.40588155478269
H         6.03942717821357   -2.26311985386211    0.80692492135129
H         3.40460056633468    2.59043562004646    1.27620289731337
H         5.68257686516113    1.90440002411522    0.58299130391708
H         4.08308705901230    0.28508354676621   -3.03559390001383
H         1.81553223409871    0.94489849159855   -2.32935987591346
H        -1.69140947558642    1.96497045457284   -0.35950673074445
H        -1.74961570750294    4.11773854950730    2.18797823937754
H        -3.95249297816047    1.41961721418597    3.38852480250623
H        -5.44748571206831    3.39295077041194    3.28274267719330
H        -5.53098557351731    3.09306560323078   -0.98134849636479
H        -4.03747307991569    1.12845155808235   -0.87117537561272

          :  Hamiltonian                  GFN2-xTB          :
         :: total energy            -149.510243506313 Eh    ::
         :: gradient norm              0.000691381730 Eh/a0 ::
         :: HOMO-LUMO gap              2.740970723393 eV    ::
         :: SCC energy              -151.507966889086 Eh    ::
         :: -> dispersion             -0.124282558220 Eh    ::
         :: repulsion energy           1.993286286619 Eh    ::

    * Orbital Energies and Occupations

         #    Occupation            Energy/Eh            Energy/eV
      -------------------------------------------------------------
         1        2.0000           -0.8846705             -24.0731
       ...           ...                  ...                  ...
       119        2.0000           -0.4414435             -12.0123
       120        2.0000           -0.4369778             -11.8908
       121        2.0000           -0.4354971             -11.8505
       122        2.0000           -0.4344438             -11.8218
       123        2.0000           -0.4317104             -11.7474
       124        2.0000           -0.4275858             -11.6352
       125        2.0000           -0.4199216             -11.4266
       126        2.0000           -0.4197815             -11.4228
       127        2.0000           -0.4173621             -11.3570
       128        2.0000           -0.4149820             -11.2922
       129        2.0000           -0.4103620             -11.1665
       130        2.0000           -0.3977128             -10.8223
       131        2.0000           -0.3911978             -10.6450 (HOMO)
       132                         -0.2904690              -7.9041 (LUMO)
       133                         -0.2822968              -7.6817
       134                         -0.2812828              -7.6541
       135                         -0.2753735              -7.4933
       136                         -0.2682444              -7.2993
       137                         -0.2661274              -7.2417
       138                         -0.2630451              -7.1578
       139                         -0.2475541              -6.7363
       140                         -0.2431533              -6.6165
       141                         -0.2358311              -6.4173
       142                         -0.2294691              -6.2442
       ...                                ...                  ...
       234                          0.6789529              18.4752
      -------------------------------------------------------------
                  HL-Gap            0.1007288 Eh            2.7410 eV

     #   Z          covCN         q      C6AA      Î±(0)
     1   6 C        2.921    -0.032    28.791     8.799
     2   6 C        2.915    -0.029    28.734     8.790
     3   6 C        2.916    -0.031    28.768     8.795
     4   6 C        2.917    -0.041    29.024     8.834
     5   6 C        2.983     0.011    27.770     8.644
     6   6 C        2.988     0.017    27.629     8.622
     7   6 C        2.921    -0.033    28.819     8.803
     8   6 C        2.914    -0.026    28.641     8.776
     9   6 C        2.924    -0.027    28.669     8.781
    10   6 C        2.966     0.002    27.973     8.675
    11   6 C        3.826     0.048    19.748     6.323
    12   6 C        3.814     0.037    19.946     6.357
    13   6 C        2.968    -0.015    28.375     8.737
    14   6 C        2.923    -0.041    29.007     8.832
    15   6 C        2.914    -0.030    28.755     8.793
    16   6 C        2.921    -0.036    28.896     8.815
    17   6 C        2.989     0.012    27.740     8.640
    18   6 C        2.982     0.003    27.953     8.673
    19   6 C        2.917    -0.040    28.994     8.830
    20   6 C        2.917    -0.028    28.692     8.784
    21   6 C        2.915    -0.027    28.685     8.782
    22   6 C        2.921    -0.034    28.844     8.807
    23   7 N        2.764    -0.112    23.452     7.192
    24   6 C        2.772     0.274    22.363     7.745
    25   6 C        2.976     0.001    28.009     8.681
    26   6 C        2.924    -0.014    28.352     8.732
    27   6 C        2.921    -0.019    28.477     8.751
    28   6 C        2.978    -0.022    28.542     8.763
    29   6 C        3.336     0.485    17.290     6.585
    30   9 F        0.791    -0.205    11.289     3.969
    31   9 F        0.791    -0.206    11.299     3.971
    32   9 F        0.791    -0.205    11.287     3.969
    33   6 C        2.920    -0.020    28.505     8.755
    34   6 C        2.924    -0.022    28.557     8.764
    35   8 O        0.860    -0.421    22.112     6.305
    36   6 C        3.762     0.096    19.036     6.219
    37   6 C        2.688     0.366    20.801     7.464
    38   8 O        1.659    -0.360    20.081     6.049
    39   8 O        0.856    -0.394    21.571     6.227
    40   7 N        2.760    -0.115    23.497     7.199
    41   6 C        2.764     0.273    22.392     7.749
    42   6 C        2.977    -0.007    28.195     8.710
    43   6 C        2.924    -0.017    28.425     8.743
    44   6 C        2.921    -0.019    28.487     8.753
    45   6 C        2.978    -0.020    28.503     8.757
    46   6 C        3.336     0.486    17.287     6.584
    47   9 F        0.791    -0.203    11.270     3.966
    48   9 F        0.791    -0.207    11.309     3.972
    49   9 F        0.791    -0.207    11.310     3.973
    50   6 C        2.920    -0.019    28.484     8.752
    51   6 C        2.923    -0.022    28.564     8.765
    52   8 O        0.859    -0.403    21.739     6.251
    53   1 H        0.926     0.038     2.478     2.461
    54   1 H        0.926     0.035     2.511     2.478
    55   1 H        0.926     0.030     2.588     2.516
    56   1 H        0.926     0.024     2.668     2.554
    57   1 H        0.926     0.041     2.438     2.442
    58   1 H        0.926     0.042     2.423     2.434
    59   1 H        0.926     0.039     2.463     2.454
    60   1 H        0.923     0.063     2.160     2.298
    61   1 H        0.924     0.057     2.238     2.339
    62   1 H        0.926     0.058     2.220     2.330
    63   1 H        0.926     0.045     2.388     2.417
    64   1 H        0.926     0.044     2.398     2.422
    65   1 H        0.926     0.026     2.638     2.540
    66   1 H        0.926     0.039     2.462     2.454
    67   1 H        0.926     0.045     2.384     2.414
    68   1 H        0.926     0.046     2.377     2.411
    69   1 H        0.926     0.069     2.091     2.261
    70   1 H        0.926     0.068     2.110     2.271
    71   1 H        0.926     0.067     2.122     2.278
    72   1 H        0.926     0.053     2.277     2.360
    73   1 H        0.923     0.067     2.121     2.277
    74   1 H        0.804     0.350     0.589     1.205
    75   1 H        0.926     0.064     2.151     2.294
    76   1 H        0.926     0.066     2.125     2.279
    77   1 H        0.926     0.069     2.100     2.266
    78   1 H        0.926     0.054     2.272     2.357

Wiberg/Mayer (AO) data.
largest (>0.10) Wiberg bond orders for each atom

     #   Z sym  total        # sym  WBO       # sym  WBO       # sym  WBO
 ---------------------------------------------------------------------------
     1   6 C    3.991 --     2 C    1.557     6 C    1.280    53 H    0.968
                             4 C    0.118
     2   6 C    3.992 --     1 C    1.557     3 C    1.322    54 H    0.971
     3   6 C    3.992 --     4 C    1.554     2 C    1.322    55 H    0.971
     4   6 C    3.992 --     3 C    1.554     5 C    1.283    56 H    0.964
                             1 C    0.118
     5   6 C    3.989 --     4 C    1.283    10 C    1.254     6 C    1.252
     6   6 C    3.990 --     1 C    1.280     7 C    1.279     5 C    1.252
     7   6 C    3.990 --     8 C    1.553     6 C    1.279    57 H    0.968
                            10 C    0.115
     8   6 C    3.991 --     7 C    1.553     9 C    1.327    58 H    0.970
     9   6 C    3.989 --    10 C    1.523     8 C    1.327    59 H    0.967
    10   6 C    3.982 --     9 C    1.523     5 C    1.254    11 C    0.990
                             7 C    0.115
    11   6 C    3.958 --    10 C    0.990    12 C    0.954    60 H    0.950
                            40 N    0.950
    12   6 C    3.959 --    13 C    0.989    11 C    0.954    23 N    0.951
                            61 H    0.945
    13   6 C    3.982 --    14 C    1.516    18 C    1.256    12 C    0.989
                            16 C    0.114
    14   6 C    3.988 --    13 C    1.516    15 C    1.332    62 H    0.961
    15   6 C    3.991 --    16 C    1.547    14 C    1.332    63 H    0.970
    16   6 C    3.989 --    15 C    1.547    17 C    1.282    64 H    0.967
                            13 C    0.114
    17   6 C    3.990 --    16 C    1.282    22 C    1.278    18 C    1.250
    18   6 C    3.989 --    19 C    1.282    13 C    1.256    17 C    1.250
    19   6 C    3.992 --    20 C    1.554    18 C    1.282    65 H    0.960
                            22 C    0.118
    20   6 C    3.990 --    19 C    1.554    21 C    1.321    66 H    0.970
    21   6 C    3.991 --    22 C    1.558    20 C    1.321    67 H    0.970
    22   6 C    3.990 --    21 C    1.558    17 C    1.278    68 H    0.967
                            19 C    0.118
    23   7 N    3.465 --    24 C    1.226    36 C    0.978    12 C    0.951
                            35 O    0.190
    24   6 C    3.948 --    35 O    1.660    23 N    1.226    25 C    0.972
    25   6 C    3.988 --    34 C    1.401    26 C    1.397    24 C    0.972
                            28 C    0.103
    26   6 C    3.988 --    27 C    1.451    25 C    1.397    69 H    0.966
                            33 C    0.109
    27   6 C    3.988 --    26 C    1.451    28 C    1.406    70 H    0.966
                            34 C    0.109
    28   6 C    3.976 --    33 C    1.413    27 C    1.406    29 C    0.952
                            25 C    0.103
    29   6 C    3.827 --    28 C    0.952    32 F    0.950    30 F    0.948
                            31 F    0.941
    30   9 F    1.072 --    29 C    0.948
    31   9 F    1.071 --    29 C    0.941
    32   9 F    1.074 --    29 C    0.950
    33   6 C    3.988 --    34 C    1.446    28 C    1.413    71 H    0.966
                            26 C    0.109
    34   6 C    3.990 --    33 C    1.446    25 C    1.401    72 H    0.967
                            27 C    0.109
    35   8 O    2.041 --    24 C    1.660    23 N    0.190
    36   6 C    3.966 --    40 N    0.986    23 N    0.978    73 H    0.943
                            37 C    0.903
    37   6 C    3.922 --    39 O    1.760    38 O    1.162    36 C    0.903
    38   8 O    2.222 --    37 C    1.162    74 H    0.852    39 O    0.177
    39   8 O    2.055 --    37 C    1.760    38 O    0.177
    40   7 N    3.460 --    41 C    1.204    36 C    0.986    11 C    0.950
                            52 O    0.193
    41   6 C    3.951 --    52 O    1.706    40 N    1.204    42 C    0.958
    42   6 C    3.987 --    43 C    1.407    51 C    1.404    41 C    0.958
                            45 C    0.105
    43   6 C    3.989 --    44 C    1.446    42 C    1.407    75 H    0.967
                            50 C    0.110
    44   6 C    3.988 --    43 C    1.446    45 C    1.412    76 H    0.966
                            51 C    0.111
    45   6 C    3.975 --    50 C    1.413    44 C    1.412    46 C    0.951
                            42 C    0.105
    46   6 C    3.826 --    47 F    0.953    45 C    0.951    48 F    0.946
                            49 F    0.941
    47   9 F    1.076 --    46 C    0.953
    48   9 F    1.071 --    46 C    0.946
    49   9 F    1.071 --    46 C    0.941
    50   6 C    3.988 --    51 C    1.446    45 C    1.413    77 H    0.965
                            43 C    0.110
    51   6 C    3.990 --    50 C    1.446    42 C    1.404    78 H    0.967
                            44 C    0.111
    52   8 O    2.039 --    41 C    1.706    40 N    0.193
    53   1 H    0.998 --     1 C    0.968
    54   1 H    0.998 --     2 C    0.971
    55   1 H    0.999 --     3 C    0.971
    56   1 H    0.999 --     4 C    0.964
    57   1 H    0.997 --     7 C    0.968
    58   1 H    0.997 --     8 C    0.970
    59   1 H    0.998 --     9 C    0.967
    60   1 H    0.995 --    11 C    0.950
    61   1 H    0.996 --    12 C    0.945
    62   1 H    0.996 --    14 C    0.961
    63   1 H    0.997 --    15 C    0.970
    64   1 H    0.997 --    16 C    0.967
    65   1 H    0.999 --    19 C    0.960
    66   1 H    0.998 --    20 C    0.970
    67   1 H    0.997 --    21 C    0.970
    68   1 H    0.997 --    22 C    0.967
    69   1 H    0.995 --    26 C    0.966
    70   1 H    0.995 --    27 C    0.966
    71   1 H    0.995 --    33 C    0.966
    72   1 H    0.997 --    34 C    0.967
    73   1 H    0.994 --    36 C    0.943
    74   1 H    0.877 --    38 O    0.852
    75   1 H    0.996 --    43 C    0.967
    76   1 H    0.995 --    44 C    0.966
    77   1 H    0.995 --    50 C    0.965
    78   1 H    0.997 --    51 C    0.967
 ---------------------------------------------------------------------------

molecular dipole:
                 x           y           z       tot (Debye)
 q only:        0.616      -1.616      -0.630
   full:        0.584      -1.337      -0.664       4.074

           -------------------------------------------------
          | TOTAL ENERGY             -149.510243506313 Eh   |
          | GRADIENT NORM               0.000691381730 Eh/Î± |
          | HOMO-LUMO GAP               2.740970723393 eV   |
           -------------------------------------------------

 * finished run on 2022/03/16 at 22:12:10.680
