   * xtb version 6.3.3 (4ae9cef) compiled by 'conda@95abc7406d43' on 2020-10-14
          program call               : xtb acid_165.xyz --opt --chrg 0 --uhf 0 --gfn 2
          number of atoms            :                    72
          number of electrons        :                   202
          charge                     :                     0
          spin                       :                   0.0

   ID    Z sym.   atoms
    1    6 C      1-14, 16-24, 26, 27, 31-39
    2    7 N      15, 30
    3    8 O      25, 28, 29, 40
    4    1 H      41-72

          :  Hamiltonian                  GFN2-xTB          :
 * total energy  :  -111.2675028 Eh     change       -0.1270635E-08 Eh
 * total energy  :  -111.2799783 Eh     change       -0.1247545E-01 Eh
 * total energy  :  -111.2832709 Eh     change       -0.3292603E-02 Eh
 * total energy  :  -111.2841888 Eh     change       -0.9179008E-03 Eh
 * total energy  :  -111.2848021 Eh     change       -0.6133654E-03 Eh
 * total energy  :  -111.2851566 Eh     change       -0.3545014E-03 Eh
 * total energy  :  -111.2854148 Eh     change       -0.2581787E-03 Eh
 * total energy  :  -111.2856392 Eh     change       -0.2243891E-03 Eh
 * total energy  :  -111.2858551 Eh     change       -0.2158703E-03 Eh
 * total energy  :  -111.2860544 Eh     change       -0.1993213E-03 Eh
 * total energy  :  -111.2874852 Eh     change       -0.2307812E-04 Eh
 * total energy  :  -111.2875046 Eh     change       -0.1944137E-04 Eh
 * total energy  :  -111.2875181 Eh     change       -0.1348675E-04 Eh
 * total energy  :  -111.2875320 Eh     change       -0.1389222E-04 Eh
 * total energy  :  -111.2875481 Eh     change       -0.1610756E-04 Eh
 * total energy  :  -111.2875656 Eh     change       -0.1745690E-04 Eh
 * total energy  :  -111.2875777 Eh     change       -0.1213156E-04 Eh
 * total energy  :  -111.2875840 Eh     change       -0.6328017E-05 Eh
 * total energy  :  -111.2875888 Eh     change       -0.4743798E-05 Eh
   *** GEOMETRY OPTIMIZATION CONVERGED AFTER 41 ITERATIONS ***

 final structure:
================
72
 xtb: 6.3.3 (4ae9cef)
C         2.60710213089415   -2.03718526146630    0.99985070480862
C         3.37159810002189   -2.20914844686266    2.13963772630582
C         2.94947618580473   -1.67669416895226    3.34499559390866
C         1.75403324579721   -0.98068103148708    3.41024630104255
C         0.99092345197490   -0.80670322101029    2.27121677235655
C         1.41878950298486   -1.32331960417068    1.05424524464812
C         0.58872386580921   -1.11065238279120   -0.18581292074258
C        -0.79060827415743   -1.82051789915571   -0.09114766621284
C        -1.05510143535262   -2.71480335401075   -1.28208958494687
C        -0.15485853476993   -3.73781619057540   -1.55988915925036
C        -0.35452267911287   -4.57409031413026   -2.64220321308585
C        -1.46039264875864   -4.40142212361433   -3.45830382140741
C        -2.36845689399536   -3.39689108616011   -3.17658668915325
C        -2.16969121238437   -2.55876570010613   -2.09191305141502
N        -1.73662889740816   -0.72973637514832    0.03936368525993
C        -2.88984218042488   -0.85624082868321    0.75471795717759
C        -3.72203088697244    0.38177295036242    0.80974154184110
C        -3.40521290090534    1.41668901438312    1.68112165267620
C        -4.19634762636502    2.54944495392202    1.72656045578300
C        -5.31193949664919    2.67099844141113    0.90793185426156
C        -6.13222350198404    3.92823912695975    0.91183757289776
C        -5.59788592198370    4.90804463433698   -0.13509567776720
C        -5.62597304380211    1.62615451283343    0.04824870366422
C        -4.84434696230689    0.48778044716638    0.00006773948340
O        -3.19603645989366   -1.90771518330042    1.27421845853616
C        -1.18037283481574    0.45996578385960   -0.54580966871717
C        -1.56429863772653    0.55649526098685   -2.03582882577913
O        -0.55401409513169    0.24019955348087   -2.84118360390668
O        -2.65656146817805    0.86174565688675   -2.42299310750185
N         0.23894921919593    0.29080789334499   -0.36525874918866
C         1.05450636671905    1.37002390015985   -0.23262668568363
C         2.50081745085284    1.04357938226308   -0.07530383342771
C         3.16691952428314    1.39357606491963    1.09186100972144
C         4.49840158855561    1.06390983445854    1.25375136287845
C         5.19609390279719    0.40622597271073    0.24864357983831
C         6.65113934202091    0.07695708018498    0.41678054349754
C         7.52062351349035    1.23581351936873   -0.07548879037933
C         4.53547538314768    0.10755843703520   -0.93652492246146
C         3.19870168553727    0.41692857361568   -1.09994121336411
O         0.61266011331420    2.50173539085877   -0.24978117524682
H         2.94336910328181   -2.44598818045166    0.05803709559424
H         4.30095724069779   -2.75586503831591    2.08409394135893
H         3.54927693603400   -1.80534496961270    4.23341037642304
H         1.41684087791945   -0.57087620487268    4.35055828691758
H         0.06091581948807   -0.25901509548355    2.32153004291626
H         1.13212406534737   -1.47583383920927   -1.06518988319967
H        -0.85834515133266   -2.43107113821754    0.81845795195628
H         0.70014002088788   -3.88304431416964   -0.91499204803565
H         0.35166059392776   -5.36521815930183   -2.84718205993591
H        -1.61695859059962   -5.05360887185894   -4.30447023556770
H        -3.23993319452256   -3.26299323127363   -3.79993654047291
H        -2.89529420729338   -1.78947231276664   -1.87530211383823
H        -2.54507878177393    1.33243548420580    2.33093171232893
H        -3.94291905975434    3.35020659577228    2.40643537845546
H        -7.17385337432004    3.69177860355594    0.68551094430734
H        -6.09345883575076    4.39585660155497    1.89762603774081
H        -6.19368764914615    5.81778383048935   -0.14495944401884
H        -5.63127889214508    4.45784373827939   -1.12448454009438
H        -4.56535342142297    5.16981606599991    0.08449649772347
H        -6.49368278713128    1.70431718429054   -0.59044154084053
H        -5.09956398153342   -0.32056012986598   -0.66811458573621
H        -1.53440264527530    1.37788206457816   -0.05786145910456
H        -0.82365203452167    0.30978292656524   -3.77174330962428
H         2.63000844609036    1.90595895532869    1.87566296073288
H         5.00368658542542    1.31737590690186    2.17443927741420
H         6.86701032404547   -0.11332785582324    1.46993336100091
H         6.89590756884171   -0.82277841891912   -0.15132102200701
H         7.32766359879676    1.43260498359123   -1.12762509155424
H         8.57514813669376    1.00001327007461    0.04705720956912
H         7.29797841690433    2.13962390364690    0.48669453072470
H         5.07319938345680   -0.38175391122422   -1.73647667458207
H         2.69398650856082    0.18120634263487   -2.02602915749941

          :  Hamiltonian                  GFN2-xTB          :
         :: total energy            -111.287588768570 Eh    ::
         :: gradient norm              0.000330390166 Eh/a0 ::
         :: HOMO-LUMO gap              3.534406707128 eV    ::
         :: SCC energy              -113.039699202540 Eh    ::
         :: -> dispersion             -0.099083010346 Eh    ::
         :: repulsion energy           1.749548234928 Eh    ::

    * Orbital Energies and Occupations

         #    Occupation            Energy/Eh            Energy/eV
      -------------------------------------------------------------
         1        2.0000           -0.7687090             -20.9176
       ...           ...                  ...                  ...
        89        2.0000           -0.4210127             -11.4563
        90        2.0000           -0.4198774             -11.4254
        91        2.0000           -0.4187513             -11.3948
        92        2.0000           -0.4143327             -11.2746
        93        2.0000           -0.4128217             -11.2334
        94        2.0000           -0.4093727             -11.1396
        95        2.0000           -0.4068092             -11.0698
        96        2.0000           -0.4044330             -11.0052
        97        2.0000           -0.4010309             -10.9126
        98        2.0000           -0.3984995             -10.8437
        99        2.0000           -0.3967031             -10.7948
       100        2.0000           -0.3937434             -10.7143
       101        2.0000           -0.3889066             -10.5827 (HOMO)
       102                         -0.2590196              -7.0483 (LUMO)
       103                         -0.2466192              -6.7109
       104                         -0.2400046              -6.5309
       105                         -0.2361979              -6.4273
       106                         -0.2330447              -6.3415
       107                         -0.2313919              -6.2965
       108                         -0.2311376              -6.2896
       109                         -0.2288276              -6.2267
       110                         -0.2225835              -6.0568
       111                         -0.2104785              -5.7274
       112                         -0.2033180              -5.5326
       ...                                ...                  ...
       192                          0.6657788              18.1168
      -------------------------------------------------------------
                  HL-Gap            0.1298871 Eh            3.5344 eV

     #   Z          covCN         q      C6AA      Î±(0)
     1   6 C        2.924    -0.034    28.858     8.810
     2   6 C        2.920    -0.027    28.677     8.782
     3   6 C        2.921    -0.029    28.716     8.788
     4   6 C        2.920    -0.026    28.652     8.778
     5   6 C        2.924    -0.030    28.751     8.793
     6   6 C        2.973    -0.000    28.035     8.685
     7   6 C        3.818     0.034    19.982     6.362
     8   6 C        3.833     0.041    19.862     6.341
     9   6 C        2.971     0.004    27.930     8.669
    10   6 C        2.925    -0.037    28.931     8.821
    11   6 C        2.919    -0.027    28.688     8.783
    12   6 C        2.920    -0.030    28.757     8.794
    13   6 C        2.920    -0.027    28.679     8.782
    14   6 C        2.923    -0.030    28.745     8.792
    15   7 N        2.768    -0.115    23.512     7.202
    16   6 C        2.761     0.274    22.376     7.746
    17   6 C        2.978    -0.022    28.539     8.763
    18   6 C        2.921    -0.030    28.751     8.793
    19   6 C        2.925    -0.035    28.869     8.811
    20   6 C        2.972     0.019    27.584     8.615
    21   6 C        3.807    -0.059    21.623     6.620
    22   6 C        3.754    -0.099    22.452     6.757
    23   6 C        2.925    -0.031    28.785     8.799
    24   6 C        2.922    -0.019    28.474     8.751
    25   8 O        0.859    -0.419    22.073     6.299
    26   6 C        3.774     0.092    19.085     6.225
    27   6 C        2.688     0.356    20.961     7.493
    28   8 O        1.659    -0.357    20.040     6.043
    29   8 O        0.856    -0.387    21.420     6.205
    30   7 N        2.768    -0.111    23.429     7.189
    31   6 C        2.764     0.271    22.415     7.754
    32   6 C        2.978    -0.017    28.432     8.747
    33   6 C        2.922    -0.023    28.571     8.766
    34   6 C        2.925    -0.035    28.882     8.813
    35   6 C        2.971     0.017    27.623     8.621
    36   6 C        3.807    -0.058    21.617     6.619
    37   6 C        3.754    -0.099    22.448     6.756
    38   6 C        2.925    -0.037    28.908     8.817
    39   6 C        2.921    -0.031    28.768     8.796
    40   8 O        0.859    -0.434    22.380     6.343
    41   1 H        0.926     0.030     2.581     2.512
    42   1 H        0.926     0.038     2.481     2.463
    43   1 H        0.926     0.039     2.464     2.455
    44   1 H        0.926     0.041     2.439     2.442
    45   1 H        0.926     0.034     2.526     2.485
    46   1 H        0.924     0.055     2.259     2.350
    47   1 H        0.924     0.079     1.985     2.204
    48   1 H        0.926     0.031     2.574     2.509
    49   1 H        0.926     0.036     2.498     2.472
    50   1 H        0.926     0.036     2.496     2.471
    51   1 H        0.926     0.038     2.471     2.458
    52   1 H        0.926     0.035     2.512     2.478
    53   1 H        0.925     0.028     2.610     2.526
    54   1 H        0.926     0.038     2.470     2.458
    55   1 H        0.924     0.039     2.464     2.455
    56   1 H        0.924     0.038     2.472     2.459
    57   1 H        0.925     0.037     2.484     2.465
    58   1 H        0.925     0.040     2.453     2.449
    59   1 H        0.925     0.039     2.465     2.455
    60   1 H        0.926     0.041     2.437     2.441
    61   1 H        0.926     0.040     2.447     2.446
    62   1 H        0.923     0.094     1.841     2.122
    63   1 H        0.804     0.341     0.610     1.227
    64   1 H        0.926     0.041     2.442     2.444
    65   1 H        0.926     0.038     2.477     2.461
    66   1 H        0.924     0.039     2.469     2.457
    67   1 H        0.924     0.038     2.475     2.460
    68   1 H        0.925     0.038     2.475     2.460
    69   1 H        0.925     0.039     2.463     2.454
    70   1 H        0.925     0.039     2.465     2.455
    71   1 H        0.926     0.036     2.496     2.471
    72   1 H        0.926     0.033     2.539     2.492

Wiberg/Mayer (AO) data.
largest (>0.10) Wiberg bond orders for each atom

     #   Z sym  total        # sym  WBO       # sym  WBO       # sym  WBO
 ---------------------------------------------------------------------------
     1   6 C    3.990 --     2 C    1.442     6 C    1.415    41 H    0.968
                             4 C    0.110
     2   6 C    3.992 --     1 C    1.442     3 C    1.441    42 H    0.971
                             5 C    0.111
     3   6 C    3.990 --     2 C    1.441     4 C    1.434    43 H    0.971
                             6 C    0.109
     4   6 C    3.992 --     5 C    1.450     3 C    1.434    44 H    0.970
                             1 C    0.110
     5   6 C    3.992 --     4 C    1.450     6 C    1.407    45 H    0.969
                             2 C    0.111
     6   6 C    3.986 --     1 C    1.415     5 C    1.407     7 C    0.991
                             3 C    0.109
     7   6 C    3.967 --     6 C    0.991    30 N    0.964    46 H    0.953
                             8 C    0.949
     8   6 C    3.964 --     9 C    0.985    15 N    0.971     7 C    0.949
                            47 H    0.944
     9   6 C    3.986 --    14 C    1.423    10 C    1.403     8 C    0.985
                            12 C    0.110
    10   6 C    3.991 --    11 C    1.453     9 C    1.403    48 H    0.969
                            13 C    0.113
    11   6 C    3.991 --    10 C    1.453    12 C    1.431    49 H    0.971
                            14 C    0.110
    12   6 C    3.992 --    13 C    1.446    11 C    1.431    50 H    0.971
                             9 C    0.110
    13   6 C    3.992 --    12 C    1.446    14 C    1.435    51 H    0.971
                            10 C    0.113
    14   6 C    3.991 --    13 C    1.435     9 C    1.423    52 H    0.966
                            11 C    0.110
    15   7 N    3.465 --    16 C    1.191    26 C    0.984     8 C    0.971
                            25 O    0.187
    16   6 C    3.940 --    25 O    1.702    15 N    1.191    17 C    0.962
    17   6 C    3.987 --    24 C    1.404    18 C    1.400    16 C    0.962
                            20 C    0.107
    18   6 C    3.991 --    19 C    1.447    17 C    1.400    53 H    0.970
                            23 C    0.109
    19   6 C    3.991 --    18 C    1.447    20 C    1.409    54 H    0.968
                            24 C    0.109
    20   6 C    3.988 --    23 C    1.410    19 C    1.409    21 C    1.014
                            17 C    0.107
    21   6 C    3.997 --    20 C    1.014    22 C    1.000    56 H    0.974
                            55 H    0.974
    22   6 C    3.995 --    21 C    1.000    59 H    0.988    58 H    0.988
                            57 H    0.986
    23   6 C    3.991 --    24 C    1.447    20 C    1.410    60 H    0.968
                            18 C    0.109
    24   6 C    3.991 --    23 C    1.447    17 C    1.404    61 H    0.969
                            19 C    0.109
    25   8 O    2.022 --    16 C    1.702    15 N    0.187
    26   6 C    3.967 --    30 N    0.987    15 N    0.984    62 H    0.932
                            27 C    0.910
    27   6 C    3.917 --    29 O    1.781    28 O    1.157    26 C    0.910
    28   8 O    2.223 --    27 C    1.157    63 H    0.858    29 O    0.183
    29   8 O    2.061 --    27 C    1.781    28 O    0.183
    30   7 N    3.467 --    31 C    1.206    26 C    0.987     7 C    0.964
                            40 O    0.188
    31   6 C    3.943 --    40 O    1.683    30 N    1.206    32 C    0.969
    32   6 C    3.987 --    33 C    1.401    39 C    1.398    31 C    0.969
                            35 C    0.106
    33   6 C    3.990 --    34 C    1.450    32 C    1.401    64 H    0.969
                            38 C    0.107
    34   6 C    3.991 --    33 C    1.450    35 C    1.408    65 H    0.968
                            39 C    0.108
    35   6 C    3.988 --    34 C    1.408    38 C    1.407    36 C    1.014
                            32 C    0.106
    36   6 C    3.997 --    35 C    1.014    37 C    1.000    67 H    0.974
                            66 H    0.974
    37   6 C    3.995 --    36 C    1.000    68 H    0.988    70 H    0.988
                            69 H    0.986
    38   6 C    3.991 --    39 C    1.451    35 C    1.407    71 H    0.968
                            33 C    0.107
    39   6 C    3.991 --    38 C    1.451    32 C    1.398    72 H    0.969
                            34 C    0.108
    40   8 O    2.007 --    31 C    1.683    30 N    0.188
    41   1 H    0.999 --     1 C    0.968
    42   1 H    0.998 --     2 C    0.971
    43   1 H    0.998 --     3 C    0.971
    44   1 H    0.998 --     4 C    0.970
    45   1 H    0.999 --     5 C    0.969
    46   1 H    0.996 --     7 C    0.953
    47   1 H    0.994 --     8 C    0.944
    48   1 H    0.999 --    10 C    0.969
    49   1 H    0.998 --    11 C    0.971
    50   1 H    0.998 --    12 C    0.971
    51   1 H    0.998 --    13 C    0.971
    52   1 H    0.999 --    14 C    0.966
    53   1 H    0.999 --    18 C    0.970
    54   1 H    0.998 --    19 C    0.968
    55   1 H    0.998 --    21 C    0.974
    56   1 H    0.998 --    21 C    0.974
    57   1 H    0.998 --    22 C    0.986
    58   1 H    0.998 --    22 C    0.988
    59   1 H    0.998 --    22 C    0.988
    60   1 H    0.998 --    23 C    0.968
    61   1 H    0.998 --    24 C    0.969
    62   1 H    0.991 --    26 C    0.932
    63   1 H    0.883 --    28 O    0.858
    64   1 H    0.998 --    33 C    0.969
    65   1 H    0.998 --    34 C    0.968
    66   1 H    0.998 --    36 C    0.974
    67   1 H    0.998 --    36 C    0.974
    68   1 H    0.999 --    37 C    0.988
    69   1 H    0.998 --    37 C    0.986
    70   1 H    0.998 --    37 C    0.988
    71   1 H    0.998 --    38 C    0.968
    72   1 H    0.999 --    39 C    0.969
 ---------------------------------------------------------------------------

molecular dipole:
                 x           y           z       tot (Debye)
 q only:        1.680      -0.590      -0.524
   full:        1.776      -0.523      -0.699       5.031

           -------------------------------------------------
          | TOTAL ENERGY             -111.287588768570 Eh   |
          | GRADIENT NORM               0.000330390166 Eh/Î± |
          | HOMO-LUMO GAP               3.534406707128 eV   |
           -------------------------------------------------

 * finished run on 2022/03/16 at 21:59:41.558
