   * xtb version 6.3.3 (4ae9cef) compiled by 'conda@95abc7406d43' on 2020-10-14
          program call               : xtb acid_482.xyz --opt --chrg 0 --uhf 0 --gfn 2
          number of atoms            :                    78
          number of electrons        :                   226
          charge                     :                     0
          spin                       :                   0.0

   ID    Z sym.   atoms
    1    6 C      1-22, 24-31, 33, 34, 38-45
    2    7 N      23, 37
    3    8 O      32, 35, 36, 46
    4    1 H      47-78

          :  Hamiltonian                  GFN2-xTB          :
 * total energy  :  -124.0957053 Eh     change       -0.4117879E-08 Eh
 * total energy  :  -124.1127532 Eh     change       -0.1704794E-01 Eh
 * total energy  :  -124.1178245 Eh     change       -0.5071244E-02 Eh
 * total energy  :  -124.1199705 Eh     change       -0.2146041E-02 Eh
 * total energy  :  -124.1217035 Eh     change       -0.1732919E-02 Eh
 * total energy  :  -124.1229166 Eh     change       -0.1213120E-02 Eh
 * total energy  :  -124.1239421 Eh     change       -0.1025533E-02 Eh
 * total energy  :  -124.1249341 Eh     change       -0.9920309E-03 Eh
 * total energy  :  -124.1257852 Eh     change       -0.8510190E-03 Eh
 * total energy  :  -124.1264615 Eh     change       -0.6763896E-03 Eh
 * total energy  :  -124.1480471 Eh     change       -0.6594613E-04 Eh
 * total energy  :  -124.1480808 Eh     change       -0.3370833E-04 Eh
 * total energy  :  -124.1481266 Eh     change       -0.4576948E-04 Eh
 * total energy  :  -124.1481464 Eh     change       -0.1985112E-04 Eh
 * total energy  :  -124.1481907 Eh     change       -0.4426554E-04 Eh
 * total energy  :  -124.1482150 Eh     change       -0.2430702E-04 Eh
 * total energy  :  -124.1482259 Eh     change       -0.1087661E-04 Eh
 * total energy  :  -124.1482437 Eh     change       -0.1786229E-04 Eh
 * total energy  :  -124.1482486 Eh     change       -0.4900665E-05 Eh
   *** GEOMETRY OPTIMIZATION CONVERGED AFTER 101 ITERATIONS ***

 final structure:
================
78
 xtb: 6.3.3 (4ae9cef)
C        -1.72082956591084   -5.18774213205743    0.65784955548231
C        -0.52030240484938   -5.54354968856475    1.20148912408006
C         0.38180334648538   -4.54977910745766    1.60614616016270
C         0.07189826244351   -3.22651466364536    1.46411224407941
C        -1.15657946193370   -2.81832777627735    0.89864580270621
C        -2.06742730173799   -3.83080474222384    0.48596944064141
C        -3.29624349486991   -3.47104664043783   -0.10390293459440
C        -3.61167924224478   -2.15832918513172   -0.30676912856804
C        -2.71325749623305   -1.15736012905768    0.07955766992950
C        -1.52193982508411   -1.46175637629330    0.69108399809272
C        -0.59065974532472   -0.32998452121021    1.04506620464787
C         0.16339621851353    0.17889028861296   -0.21066146959230
C         1.59773445363492   -0.29116056335317   -0.17831835757486
C         2.53370095816234    0.44662900728547    0.50122079234925
C         3.86224217134520    0.01964981885204    0.60659366608664
C         4.24482549449456   -1.16238587335532    0.04265944238988
C         3.31216188700370   -1.96539824234328   -0.64458280324305
C         1.96226497281084   -1.53354365465176   -0.76542360082662
C         1.06017788261924   -2.37503903197920   -1.45369047441486
C         1.46490207013201   -3.56998806338328   -1.98003235241601
C         2.79630061916947   -3.99043441253838   -1.85890206970729
C         3.69874334572711   -3.19977517600134   -1.20747447836604
N         0.01257170578700    1.62176796360244   -0.15615458856412
C         0.30027102924427    2.52273882017463   -1.11242568281143
C         0.83126334443825    2.02840243461580   -2.43285925778791
C         2.32479085083505    1.80756186623293   -2.36950313161152
C         3.14862922024215    2.77580571104419   -1.80977906386992
C         4.51646760562829    2.58184225066341   -1.75350787789728
C         5.07511129136222    1.42236318186764   -2.26341599178734
C         4.26048256858746    0.46090794638766   -2.83480110202307
C         2.89131717868415    0.65213332596692   -2.88770725911282
O         0.14452166991537    3.72342119164211   -0.88743349074450
C        -0.70949760346520    2.04587115216989    1.03486900723233
C         0.25646813996971    2.71249594272526    2.06250083505378
O         0.75794975035781    3.85951633578333    1.65073017464368
O         0.49764325568569    2.21700005819675    3.12556545750905
N        -1.30758507401740    0.84208420115696    1.52943491013414
C        -2.12538384813059    0.72576645693501    2.61596502031481
C        -2.78574761607329    2.01452314799992    3.08154777205512
C        -3.61759051520878    2.62060641308212    1.98538271727366
C        -4.55971644348383    1.83887092783535    1.32479625420567
C        -5.31283134456019    2.36982784252074    0.29340030421133
C        -5.13845336779979    3.69039474218834   -0.08809050402098
C        -4.21309908203093    4.47965559870435    0.57243861493042
C        -3.45540233134010    3.94705956890468    1.60202689612914
O        -2.35868377164099   -0.35287996074577    3.11062245201500
H        -2.42850175483123   -5.94222591479524    0.34446724042479
H        -0.25987150950355   -6.58437293923502    1.32567753695324
H         1.33037750133534   -4.83667900567562    2.03560306172378
H         0.79134391618506   -2.49095684762045    1.78723780012304
H        -3.97915598776336   -4.25479923507005   -0.39874786276985
H        -4.54869027825412   -1.88005103002285   -0.76681268783762
H        -2.97360814428041   -0.12244947728857   -0.09575281536617
H         0.12278084859899   -0.64028311261879    1.81591141282178
H        -0.34218148066670   -0.18453853783105   -1.11195619206067
H         2.25383885596362    1.37817703975579    0.96975277625079
H         4.57045636902244    0.63297415374595    1.14150058852175
H         5.26573779548460   -1.50607452554200    0.12105719828021
H         0.02480847210307   -2.09189412628396   -1.56183423512427
H         0.75255874315321   -4.19901487889612   -2.49274780315123
H         3.09845990927504   -4.93671000341127   -2.28243468917346
H         4.72922015999327   -3.50922533801433   -1.10663759247159
H         0.62044801882911    2.81329721590471   -3.16511090263191
H         0.32961715606112    1.11100359987852   -2.74131981088921
H         2.71492352685435    3.68476175514299   -1.41928251249978
H         5.14705345291320    3.33899121589944   -1.31175247547108
H         6.14281405862618    1.27022528352054   -2.21755952490536
H         4.68811137496922   -0.44423054385577   -3.23965429156095
H         2.26237801555245   -0.10462546494842   -3.33496538268251
H        -1.46894746045370    2.79412149329333    0.75057739758267
H         0.49458846878584    4.06443342764907    0.70659130837852
H        -3.42148932348661    1.74653450147212    3.92871975074977
H        -2.02645634631603    2.71441272451081    3.43217705980343
H        -4.69687892160994    0.81108285841611    1.62898321487250
H        -6.03992640760128    1.75263208775821   -0.21383093482943
H        -5.72537572553384    4.10426094927631   -0.89440247440721
H        -4.07661651053857    5.51162585047897    0.28497396391357
H        -2.73654555014647    4.56961056993472    2.11733398058773

          :  Hamiltonian                  GFN2-xTB          :
         :: total energy            -124.148248622657 Eh    ::
         :: gradient norm              0.000991855549 Eh/a0 ::
         :: HOMO-LUMO gap              2.839542898746 eV    ::
         :: SCC energy              -126.179033954065 Eh    ::
         :: -> dispersion             -0.123174514451 Eh    ::
         :: repulsion energy           2.025208897919 Eh    ::

    * Orbital Energies and Occupations

         #    Occupation            Energy/Eh            Energy/eV
      -------------------------------------------------------------
         1        2.0000           -0.7539231             -20.5153
       ...           ...                  ...                  ...
       101        2.0000           -0.4250167             -11.5653
       102        2.0000           -0.4226656             -11.5013
       103        2.0000           -0.4186985             -11.3934
       104        2.0000           -0.4144037             -11.2765
       105        2.0000           -0.4124818             -11.2242
       106        2.0000           -0.4118234             -11.2063
       107        2.0000           -0.4102625             -11.1638
       108        2.0000           -0.4093541             -11.1391
       109        2.0000           -0.4050629             -11.0223
       110        2.0000           -0.3949168             -10.7462
       111        2.0000           -0.3938192             -10.7164
       112        2.0000           -0.3896421             -10.6027
       113        2.0000           -0.3799620             -10.3393 (HOMO)
       114                         -0.2756107              -7.4998 (LUMO)
       115                         -0.2654215              -7.2225
       116                         -0.2513942              -6.8408
       117                         -0.2479591              -6.7473
       118                         -0.2435324              -6.6269
       119                         -0.2345499              -6.3824
       120                         -0.2331284              -6.3437
       121                         -0.2324367              -6.3249
       122                         -0.2321093              -6.3160
       123                         -0.2306589              -6.2765
       124                         -0.2135337              -5.8105
       ...                                ...                  ...
       216                          0.6915109              18.8170
      -------------------------------------------------------------
                  HL-Gap            0.1043513 Eh            2.8395 eV

     #   Z          covCN         q      C6AA      Î±(0)
     1   6 C        2.921    -0.034    28.841     8.807
     2   6 C        2.915    -0.028    28.709     8.786
     3   6 C        2.917    -0.027    28.688     8.783
     4   6 C        2.917    -0.031    28.771     8.796
     5   6 C        2.983     0.015    27.681     8.630
     6   6 C        2.989     0.017    27.625     8.622
     7   6 C        2.921    -0.035    28.872     8.811
     8   6 C        2.914    -0.029    28.735     8.790
     9   6 C        2.923    -0.033    28.822     8.804
    10   6 C        2.968     0.007    27.862     8.658
    11   6 C        3.832     0.051    19.704     6.316
    12   6 C        3.817     0.040    19.890     6.347
    13   6 C        2.968    -0.009    28.244     8.717
    14   6 C        2.922    -0.031    28.771     8.796
    15   6 C        2.914    -0.027    28.674     8.781
    16   6 C        2.921    -0.034    28.849     8.808
    17   6 C        2.988     0.016    27.639     8.624
    18   6 C        2.984     0.008    27.825     8.653
    19   6 C        2.917    -0.036    28.886     8.813
    20   6 C        2.917    -0.028    28.692     8.784
    21   6 C        2.915    -0.028    28.703     8.785
    22   6 C        2.921    -0.033    28.816     8.803
    23   7 N        2.759    -0.108    23.362     7.179
    24   6 C        2.762     0.272    22.410     7.752
    25   6 C        3.811    -0.085    22.108     6.693
    26   6 C        2.973     0.014    27.688     8.631
    27   6 C        2.924    -0.038    28.942     8.822
    28   6 C        2.920    -0.028    28.690     8.784
    29   6 C        2.920    -0.031    28.764     8.795
    30   6 C        2.920    -0.027    28.687     8.783
    31   6 C        2.924    -0.036    28.901     8.816
    32   8 O        0.860    -0.468    23.086     6.442
    33   6 C        3.763     0.076    19.348     6.270
    34   6 C        2.684     0.350    21.057     7.510
    35   8 O        1.654    -0.375    20.370     6.093
    36   8 O        0.856    -0.369    21.078     6.155
    37   7 N        2.759    -0.121    23.626     7.219
    38   6 C        2.759     0.283    22.212     7.718
    39   6 C        3.811    -0.095    22.303     6.722
    40   6 C        2.971     0.011    27.771     8.644
    41   6 C        2.924    -0.038    28.943     8.822
    42   6 C        2.919    -0.029    28.724     8.789
    43   6 C        2.920    -0.032    28.810     8.802
    44   6 C        2.919    -0.029    28.732     8.790
    45   6 C        2.923    -0.042    29.046     8.838
    46   8 O        0.859    -0.413    21.938     6.280
    47   1 H        0.926     0.035     2.510     2.477
    48   1 H        0.926     0.034     2.530     2.487
    49   1 H        0.926     0.033     2.547     2.496
    50   1 H        0.926     0.029     2.602     2.522
    51   1 H        0.926     0.037     2.491     2.468
    52   1 H        0.926     0.034     2.526     2.485
    53   1 H        0.925     0.029     2.606     2.525
    54   1 H        0.924     0.062     2.181     2.309
    55   1 H        0.924     0.051     2.306     2.375
    56   1 H        0.926     0.032     2.556     2.500
    57   1 H        0.926     0.042     2.421     2.433
    58   1 H        0.926     0.040     2.444     2.445
    59   1 H        0.926     0.024     2.667     2.554
    60   1 H        0.926     0.034     2.529     2.487
    61   1 H        0.926     0.037     2.492     2.469
    62   1 H        0.926     0.038     2.476     2.461
    63   1 H        0.924     0.079     1.985     2.203
    64   1 H        0.925     0.050     2.316     2.380
    65   1 H        0.926     0.045     2.386     2.415
    66   1 H        0.926     0.040     2.455     2.450
    67   1 H        0.926     0.036     2.501     2.473
    68   1 H        0.926     0.034     2.533     2.489
    69   1 H        0.926     0.028     2.615     2.529
    70   1 H        0.923     0.071     2.076     2.253
    71   1 H        0.799     0.364     0.556     1.172
    72   1 H        0.924     0.079     1.994     2.208
    73   1 H        0.924     0.058     2.224     2.332
    74   1 H        0.926     0.041     2.441     2.443
    75   1 H        0.926     0.033     2.544     2.494
    76   1 H        0.926     0.033     2.545     2.495
    77   1 H        0.926     0.036     2.505     2.475
    78   1 H        0.925     0.030     2.583     2.513

Wiberg/Mayer (AO) data.
largest (>0.10) Wiberg bond orders for each atom

     #   Z sym  total        # sym  WBO       # sym  WBO       # sym  WBO
 ---------------------------------------------------------------------------
     1   6 C    3.991 --     2 C    1.558     6 C    1.278    47 H    0.968
                             4 C    0.119
     2   6 C    3.992 --     1 C    1.558     3 C    1.321    48 H    0.971
     3   6 C    3.992 --     4 C    1.556     2 C    1.321    49 H    0.971
     4   6 C    3.992 --     3 C    1.556     5 C    1.281    50 H    0.961
                             1 C    0.119
     5   6 C    3.988 --     4 C    1.281    10 C    1.255     6 C    1.251
     6   6 C    3.990 --     7 C    1.281     1 C    1.278     5 C    1.251
     7   6 C    3.990 --     8 C    1.550     6 C    1.281    51 H    0.968
                            10 C    0.115
     8   6 C    3.992 --     7 C    1.550     9 C    1.330    52 H    0.970
     9   6 C    3.990 --    10 C    1.519     8 C    1.330    53 H    0.967
    10   6 C    3.984 --     9 C    1.519     5 C    1.255    11 C    0.991
                             7 C    0.115
    11   6 C    3.964 --    10 C    0.991    37 N    0.959    54 H    0.948
                            12 C    0.945
    12   6 C    3.961 --    13 C    0.988    23 N    0.964    11 C    0.945
                            55 H    0.943
    13   6 C    3.983 --    14 C    1.524    18 C    1.250    12 C    0.988
                            16 C    0.114
    14   6 C    3.991 --    13 C    1.524    15 C    1.326    56 H    0.966
    15   6 C    3.991 --    16 C    1.552    14 C    1.326    57 H    0.970
    16   6 C    3.989 --    15 C    1.552    17 C    1.279    58 H    0.968
                            13 C    0.114
    17   6 C    3.990 --    22 C    1.280    16 C    1.279    18 C    1.252
    18   6 C    3.988 --    19 C    1.284    17 C    1.252    13 C    1.250
    19   6 C    3.992 --    20 C    1.553    18 C    1.284    59 H    0.961
                            22 C    0.118
    20   6 C    3.991 --    19 C    1.553    21 C    1.323    60 H    0.971
    21   6 C    3.992 --    22 C    1.556    20 C    1.323    61 H    0.970
    22   6 C    3.991 --    21 C    1.556    17 C    1.280    62 H    0.968
                            19 C    0.118
    23   7 N    3.503 --    24 C    1.274    33 C    0.965    12 C    0.964
                            32 O    0.180
    24   6 C    3.942 --    32 O    1.588    23 N    1.274    25 C    0.979
    25   6 C    3.992 --    26 C    0.982    24 C    0.979    64 H    0.962
                            63 H    0.954
    26   6 C    3.985 --    31 C    1.415    27 C    1.411    25 C    0.982
                            29 C    0.109
    27   6 C    3.991 --    28 C    1.446    26 C    1.411    65 H    0.968
                            30 C    0.111
    28   6 C    3.992 --    27 C    1.446    29 C    1.437    66 H    0.971
                            31 C    0.110
    29   6 C    3.991 --    30 C    1.440    28 C    1.437    67 H    0.971
                            26 C    0.109
    30   6 C    3.992 --    31 C    1.440    29 C    1.440    68 H    0.971
                            27 C    0.111
    31   6 C    3.991 --    30 C    1.440    26 C    1.415    69 H    0.968
                            28 C    0.110
    32   8 O    1.999 --    24 C    1.588    23 N    0.180
    33   6 C    3.958 --    37 N    1.002    23 N    0.965    70 H    0.929
                            34 C    0.888
    34   6 C    3.930 --    36 O    1.777    35 O    1.199    33 C    0.888
    35   8 O    2.231 --    34 C    1.199    71 H    0.764    36 O    0.183
    36   8 O    2.080 --    34 C    1.777    35 O    0.183
    37   7 N    3.439 --    38 C    1.187    33 C    1.002    11 C    0.959
                            46 O    0.179
    38   6 C    3.944 --    46 O    1.717    37 N    1.187    39 C    0.954
    39   6 C    3.993 --    40 C    1.001    73 H    0.958    72 H    0.957
                            38 C    0.954
    40   6 C    3.988 --    45 C    1.408    41 C    1.404    39 C    1.001
                            43 C    0.109
    41   6 C    3.992 --    42 C    1.451    40 C    1.404    74 H    0.968
                            44 C    0.111
    42   6 C    3.992 --    41 C    1.451    43 C    1.434    75 H    0.971
                            45 C    0.109
    43   6 C    3.991 --    44 C    1.442    42 C    1.434    76 H    0.971
                            40 C    0.109
    44   6 C    3.992 --    43 C    1.442    45 C    1.439    77 H    0.971
                            41 C    0.111
    45   6 C    3.991 --    44 C    1.439    40 C    1.408    78 H    0.968
                            42 C    0.109
    46   8 O    2.030 --    38 C    1.717    37 N    0.179
    47   1 H    0.998 --     1 C    0.968
    48   1 H    0.998 --     2 C    0.971
    49   1 H    0.998 --     3 C    0.971
    50   1 H    0.999 --     4 C    0.961
    51   1 H    0.998 --     7 C    0.968
    52   1 H    0.998 --     8 C    0.970
    53   1 H    0.999 --     9 C    0.967
    54   1 H    0.996 --    11 C    0.948
    55   1 H    0.997 --    12 C    0.943
    56   1 H    0.998 --    14 C    0.966
    57   1 H    0.997 --    15 C    0.970
    58   1 H    0.997 --    16 C    0.968
    59   1 H    0.999 --    19 C    0.961
    60   1 H    0.998 --    20 C    0.971
    61   1 H    0.998 --    21 C    0.970
    62   1 H    0.998 --    22 C    0.968
    63   1 H    0.993 --    25 C    0.954
    64   1 H    0.997 --    25 C    0.962
    65   1 H    0.998 --    27 C    0.968
    66   1 H    0.998 --    28 C    0.971
    67   1 H    0.998 --    29 C    0.971
    68   1 H    0.998 --    30 C    0.971
    69   1 H    0.999 --    31 C    0.968
    70   1 H    0.994 --    33 C    0.929
    71   1 H    0.867 --    35 O    0.764
    72   1 H    0.993 --    39 C    0.957
    73   1 H    0.996 --    39 C    0.958
    74   1 H    0.998 --    41 C    0.968
    75   1 H    0.999 --    42 C    0.971
    76   1 H    0.998 --    43 C    0.971
    77   1 H    0.998 --    44 C    0.971
    78   1 H    0.999 --    45 C    0.968
 ---------------------------------------------------------------------------

molecular dipole:
                 x           y           z       tot (Debye)
 q only:        0.502      -0.991      -2.271
   full:        0.363      -0.792      -2.546       6.840

           -------------------------------------------------
          | TOTAL ENERGY             -124.148248622657 Eh   |
          | GRADIENT NORM               0.000991855549 Eh/Î± |
          | HOMO-LUMO GAP               2.839542898746 eV   |
           -------------------------------------------------

 * finished run on 2022/03/17 at 01:44:09.975
