   * xtb version 6.3.3 (4ae9cef) compiled by 'conda@95abc7406d43' on 2020-10-14
          program call               : xtb acid_449.xyz --opt --chrg 0 --uhf 0 --gfn 2
          number of atoms            :                    58
          number of electrons        :                   202
          charge                     :                     0
          spin                       :                   0.0

   ID    Z sym.   atoms
    1    6 C      1-14, 16-20, 26, 27, 31-35
    2    7 N      15, 21, 30, 36
    3    8 O      22-25, 28, 29, 37-40
    4    1 H      41-58

          :  Hamiltonian                  GFN2-xTB          :
 * total energy  :  -117.0283566 Eh     change       -0.2662773E-08 Eh
 * total energy  :  -117.0434430 Eh     change       -0.1508637E-01 Eh
 * total energy  :  -117.0477967 Eh     change       -0.4353648E-02 Eh
 * total energy  :  -117.0485983 Eh     change       -0.8016293E-03 Eh
 * total energy  :  -117.0493319 Eh     change       -0.7335685E-03 Eh
 * total energy  :  -117.0496672 Eh     change       -0.3353482E-03 Eh
 * total energy  :  -117.0500996 Eh     change       -0.4323685E-03 Eh
 * total energy  :  -117.0505224 Eh     change       -0.4227916E-03 Eh
 * total energy  :  -117.0507975 Eh     change       -0.2751851E-03 Eh
 * total energy  :  -117.0509710 Eh     change       -0.1734960E-03 Eh
 * total energy  :  -117.0530730 Eh     change       -0.7010224E-05 Eh
 * total energy  :  -117.0530830 Eh     change       -0.1002349E-04 Eh
 * total energy  :  -117.0530939 Eh     change       -0.1083428E-04 Eh
 * total energy  :  -117.0530999 Eh     change       -0.6061670E-05 Eh
 * total energy  :  -117.0531081 Eh     change       -0.8190836E-05 Eh
 * total energy  :  -117.0531142 Eh     change       -0.6066043E-05 Eh
 * total energy  :  -117.0531215 Eh     change       -0.7308529E-05 Eh
 * total energy  :  -117.0531276 Eh     change       -0.6112301E-05 Eh
 * total energy  :  -117.0531319 Eh     change       -0.4321672E-05 Eh
   *** GEOMETRY OPTIMIZATION CONVERGED AFTER 54 ITERATIONS ***

 final structure:
================
58
 xtb: 6.3.3 (4ae9cef)
C         0.62288407242026   -4.26003326392375    0.30298102194114
C         0.74397110484182   -5.17732490770226    1.33187108529758
C         0.57047946312513   -4.77521132788997    2.64486103294234
C         0.27663230022906   -3.45169278781924    2.92619939653326
C         0.15527368102186   -2.53399765482196    1.89864103579811
C         0.32569147846232   -2.93318480577765    0.57857509859785
C         0.18448523084244   -1.93851275740978   -0.54875084282970
C        -1.24648601740077   -1.38549403822180   -0.66415903864107
C        -1.73553164608193   -1.13758891773047   -2.07302544633778
C        -0.87366266520553   -0.82381319402988   -3.11654445487521
C        -1.37776524090643   -0.54667532562544   -4.37638097400180
C        -2.74246560482415   -0.57455307212201   -4.60436221532800
C        -3.60636980875611   -0.87885694935511   -3.56566773155349
C        -3.10584187259580   -1.15695163773431   -2.30682831987488
N        -1.16228168143139   -0.11204306675330    0.04895765745545
C        -2.16461860963846    0.33371932820642    0.84477247538479
C        -1.95062273398521    1.63836784911025    1.51730100213509
C        -2.61899790734434    2.15733525559650    2.60669887436980
C        -2.08856346250706    3.43954406124951    2.82746338518649
C        -1.14022959425345    3.61361667437738    1.84695555435544
N        -0.30610095858594    4.71342212070188    1.51555278217687
O         0.39083170400494    4.59143794081701    0.52946418410966
O        -0.38202072972803    5.69473827218622    2.21731369984429
O        -1.05691446955725    2.53088432944195    1.06280689584450
O        -3.19460673431398   -0.28897292317063    1.00678290641568
C         0.15876152240029    0.41808023677729   -0.09001215389344
C         0.31447655722179    1.38631056633939   -1.29250870412881
O        -0.80203362485879    2.03617565591123   -1.55927757439459
O         1.34944262171620    1.52213931121254   -1.88199337997495
N         0.99053703370792   -0.74823617813544   -0.28363841214047
C         2.33579772358439   -0.77282872379673   -0.45727244304383
C         3.07050719555107    0.45011984301636   -0.04565016063194
C         4.33304045168983    0.86962230398859   -0.40607233502294
C         4.56864783074883    2.06863416273761    0.28704667605228
C         3.43380221914079    2.28747731757306    1.03294849044383
N         3.05519409551794    3.31152600634084    1.93049181679098
O         3.86186097552048    4.18342595010089    2.16071537451500
O         1.93934638416901    3.22813671711734    2.41171579887319
O         2.53743048066303    1.30599010790639    0.83591074709295
O         2.91897414473861   -1.74830436001904   -0.88235684877069
H         0.76667213166623   -4.57320422736771   -0.72019339738628
H         0.97855634510520   -6.20694668024554    1.10744204775118
H         0.66719556998371   -5.49004321310903    3.44811143682458
H         0.14229670184047   -3.13190894278969    3.94875892109595
H        -0.07317419411765   -1.50318278361403    2.12865002446215
H         0.51781679095359   -2.40905221214843   -1.47863754841944
H        -1.96584807978408   -2.01707652756837   -0.13346152617193
H         0.19555613039001   -0.79468083244207   -2.96546447660401
H        -0.69773989695505   -0.30761916650989   -5.18040582843039
H        -3.13109064811229   -0.35897302333090   -5.58832614861719
H        -4.67223006323957   -0.89956048460418   -3.73577866523795
H        -3.77733920335859   -1.38230681894076   -1.49203211109110
H        -3.38786127710371    1.66212775781819    3.16276434272734
H        -2.35286922938678    4.14614774506614    3.58664035182991
H         0.45239103160665    0.97665989237736    0.80558191946442
H        -0.66787805967040    2.68722506646795   -2.26822896218856
H         4.98642081740807    0.37104054089995   -1.09109415913208
H         5.43617122343006    2.69492479137341    0.25414882241406

          :  Hamiltonian                  GFN2-xTB          :
         :: total energy            -117.053131942437 Eh    ::
         :: gradient norm              0.000324950207 Eh/a0 ::
         :: HOMO-LUMO gap              2.025308937743 eV    ::
         :: SCC energy              -118.458851905012 Eh    ::
         :: -> dispersion             -0.083393403752 Eh    ::
         :: repulsion energy           1.403101292116 Eh    ::

    * Orbital Energies and Occupations

         #    Occupation            Energy/Eh            Energy/eV
      -------------------------------------------------------------
         1        2.0000           -0.8029783             -21.8502
       ...           ...                  ...                  ...
        89        2.0000           -0.4527784             -12.3207
        90        2.0000           -0.4488541             -12.2139
        91        2.0000           -0.4475586             -12.1787
        92        2.0000           -0.4419663             -12.0265
        93        2.0000           -0.4385659             -11.9340
        94        2.0000           -0.4375639             -11.9067
        95        2.0000           -0.4320880             -11.7577
        96        2.0000           -0.4269417             -11.6177
        97        2.0000           -0.4258684             -11.5885
        98        2.0000           -0.4240703             -11.5395
        99        2.0000           -0.4204443             -11.4409
       100        2.0000           -0.4173289             -11.3561
       101        2.0000           -0.4132319             -11.2446 (HOMO)
       102                         -0.3388031              -9.2193 (LUMO)
       103                         -0.3369898              -9.1700
       104                         -0.2817131              -7.6658
       105                         -0.2784183              -7.5761
       106                         -0.2746194              -7.4728
       107                         -0.2486883              -6.7672
       108                         -0.2424047              -6.5962
       109                         -0.2417581              -6.5786
       110                         -0.2385013              -6.4900
       111                         -0.2157129              -5.8698
       112                         -0.2134062              -5.8071
       ...                                ...                  ...
       178                          0.6652681              18.1029
      -------------------------------------------------------------
                  HL-Gap            0.0744287 Eh            2.0253 eV

     #   Z          covCN         q      C6AA      Î±(0)
     1   6 C        2.924    -0.030    28.740     8.791
     2   6 C        2.920    -0.025    28.618     8.773
     3   6 C        2.920    -0.027    28.673     8.781
     4   6 C        2.920    -0.026    28.664     8.780
     5   6 C        2.923    -0.032    28.786     8.799
     6   6 C        2.974     0.004    27.937     8.670
     7   6 C        3.826     0.035    19.967     6.358
     8   6 C        3.836     0.032    20.015     6.365
     9   6 C        2.973    -0.000    28.029     8.684
    10   6 C        2.922    -0.037    28.930     8.820
    11   6 C        2.920    -0.028    28.710     8.787
    12   6 C        2.920    -0.028    28.698     8.785
    13   6 C        2.919    -0.026    28.641     8.776
    14   6 C        2.925    -0.032    28.809     8.802
    15   7 N        2.768    -0.087    22.924     7.111
    16   6 C        2.755     0.265    22.521     7.771
    17   6 C        3.120     0.098    25.655     8.296
    18   6 C        3.029    -0.041    28.987     8.831
    19   6 C        3.005    -0.039    28.942     8.825
    20   6 C        3.084     0.122    25.237     8.235
    21   7 N        2.755     0.556    13.418     5.440
    22   8 O        0.933    -0.384    21.323     6.193
    23   8 O        0.932    -0.363    20.914     6.133
    24   8 O        1.729    -0.152    16.597     5.501
    25   8 O        0.859    -0.408    21.839     6.266
    26   6 C        3.765     0.080    19.295     6.261
    27   6 C        2.686     0.361    20.868     7.476
    28   8 O        1.659    -0.344    19.797     6.006
    29   8 O        0.856    -0.388    21.445     6.209
    30   7 N        2.766    -0.100    23.199     7.154
    31   6 C        2.756     0.270    22.431     7.756
    32   6 C        3.120     0.114    25.328     8.243
    33   6 C        3.028    -0.037    28.894     8.817
    34   6 C        3.005    -0.035    28.860     8.812
    35   6 C        3.081     0.118    25.327     8.250
    36   7 N        2.755     0.546    13.519     5.461
    37   8 O        0.932    -0.365    20.961     6.140
    38   8 O        0.933    -0.400    21.651     6.240
    39   8 O        1.729    -0.161    16.732     5.523
    40   8 O        0.859    -0.402    21.725     6.249
    41   1 H        0.926     0.043     2.413     2.429
    42   1 H        0.926     0.043     2.411     2.428
    43   1 H        0.926     0.041     2.438     2.442
    44   1 H        0.926     0.039     2.457     2.451
    45   1 H        0.926     0.025     2.655     2.548
    46   1 H        0.924     0.079     1.990     2.206
    47   1 H        0.924     0.086     1.920     2.167
    48   1 H        0.926     0.035     2.520     2.482
    49   1 H        0.926     0.040     2.444     2.445
    50   1 H        0.926     0.040     2.446     2.446
    51   1 H        0.926     0.043     2.413     2.429
    52   1 H        0.926     0.053     2.280     2.361
    53   1 H        0.927     0.089     1.885     2.147
    54   1 H        0.927     0.095     1.834     2.118
    55   1 H        0.924     0.106     1.730     2.057
    56   1 H        0.804     0.353     0.582     1.198
    57   1 H        0.927     0.092     1.864     2.135
    58   1 H        0.926     0.094     1.836     2.119

Wiberg/Mayer (AO) data.
largest (>0.10) Wiberg bond orders for each atom

     #   Z sym  total        # sym  WBO       # sym  WBO       # sym  WBO
 ---------------------------------------------------------------------------
     1   6 C    3.989 --     2 C    1.442     6 C    1.416    41 H    0.968
                             4 C    0.111
     2   6 C    3.991 --     1 C    1.442     3 C    1.441    42 H    0.970
                             5 C    0.112
     3   6 C    3.990 --     2 C    1.441     4 C    1.437    43 H    0.971
                             6 C    0.109
     4   6 C    3.992 --     5 C    1.447     3 C    1.437    44 H    0.971
                             1 C    0.111
     5   6 C    3.992 --     4 C    1.447     6 C    1.411    45 H    0.969
                             2 C    0.112
     6   6 C    3.983 --     1 C    1.416     5 C    1.411     7 C    0.984
                             3 C    0.109
     7   6 C    3.956 --     6 C    0.984     8 C    0.966    30 N    0.951
                            46 H    0.949
     8   6 C    3.954 --     9 C    0.981     7 C    0.966    47 H    0.952
                            15 N    0.945
     9   6 C    3.982 --    10 C    1.417    14 C    1.410     8 C    0.981
                            12 C    0.109
    10   6 C    3.991 --    11 C    1.439     9 C    1.417    48 H    0.965
                            13 C    0.111
    11   6 C    3.991 --    12 C    1.442    10 C    1.439    49 H    0.971
                            14 C    0.112
    12   6 C    3.990 --    11 C    1.442    13 C    1.436    50 H    0.971
                             9 C    0.109
    13   6 C    3.991 --    14 C    1.447    12 C    1.436    51 H    0.970
                            10 C    0.111
    14   6 C    3.989 --    13 C    1.447     9 C    1.410    52 H    0.967
                            11 C    0.112
    15   7 N    3.502 --    16 C    1.217    26 C    1.002     8 C    0.945
                            25 O    0.200
    16   6 C    3.962 --    25 O    1.659    15 N    1.217    17 C    0.999
    17   6 C    3.903 --    18 C    1.495    24 O    1.127    16 C    0.999
                            20 C    0.120
    18   6 C    3.979 --    17 C    1.495    19 C    1.358    53 H    0.968
    19   6 C    3.980 --    20 C    1.475    18 C    1.358    54 H    0.967
    20   6 C    3.898 --    19 C    1.475    24 O    1.122    21 N    0.999
                            17 C    0.120
    21   7 N    3.924 --    23 O    1.446    22 O    1.429    20 C    0.999
    22   8 O    1.922 --    21 N    1.429    23 O    0.362
    23   8 O    1.937 --    21 N    1.446    22 O    0.362
    24   8 O    2.476 --    17 C    1.127    20 C    1.122
    25   8 O    2.011 --    16 C    1.659    15 N    0.200
    26   6 C    3.967 --    15 N    1.002    30 N    0.983    55 H    0.915
                            27 C    0.901
    27   6 C    3.921 --    29 O    1.769    28 O    1.182    26 C    0.901
    28   8 O    2.242 --    27 C    1.182    56 H    0.849    29 O    0.184
    29   8 O    2.069 --    27 C    1.769    28 O    0.184
    30   7 N    3.478 --    31 C    1.215    26 C    0.983     7 C    0.951
                            40 O    0.200
    31   6 C    3.963 --    40 O    1.669    30 N    1.215    32 C    0.991
    32   6 C    3.907 --    33 C    1.493    39 O    1.134    31 C    0.991
                            35 C    0.118
    33   6 C    3.979 --    32 C    1.493    34 C    1.359    57 H    0.968
    34   6 C    3.980 --    35 C    1.468    33 C    1.359    58 H    0.967
    35   6 C    3.893 --    34 C    1.468    39 O    1.106    36 N    1.014
                            32 C    0.118
    36   7 N    3.920 --    37 O    1.441    38 O    1.410    35 C    1.014
    37   8 O    1.934 --    36 N    1.441    38 O    0.353
    38   8 O    1.903 --    36 N    1.410    37 O    0.353
    39   8 O    2.465 --    32 C    1.134    35 C    1.106
    40   8 O    2.017 --    31 C    1.669    30 N    0.200
    41   1 H    0.998 --     1 C    0.968
    42   1 H    0.998 --     2 C    0.970
    43   1 H    0.998 --     3 C    0.971
    44   1 H    0.998 --     4 C    0.971
    45   1 H    0.999 --     5 C    0.969
    46   1 H    0.993 --     7 C    0.949
    47   1 H    0.992 --     8 C    0.952
    48   1 H    0.999 --    10 C    0.965
    49   1 H    0.998 --    11 C    0.971
    50   1 H    0.998 --    12 C    0.971
    51   1 H    0.998 --    13 C    0.970
    52   1 H    0.997 --    14 C    0.967
    53   1 H    0.991 --    18 C    0.968
    54   1 H    0.991 --    19 C    0.967
    55   1 H    0.989 --    26 C    0.915
    56   1 H    0.875 --    28 O    0.849
    57   1 H    0.991 --    33 C    0.968
    58   1 H    0.991 --    34 C    0.967
 ---------------------------------------------------------------------------

molecular dipole:
                 x           y           z       tot (Debye)
 q only:       -1.245      -2.138      -0.903
   full:       -1.148      -1.657      -0.895       5.606

           -------------------------------------------------
          | TOTAL ENERGY             -117.053131942437 Eh   |
          | GRADIENT NORM               0.000324950207 Eh/Î± |
          | HOMO-LUMO GAP               2.025308937743 eV   |
           -------------------------------------------------

 * finished run on 2022/03/17 at 01:21:33.580
