   * xtb version 6.3.3 (4ae9cef) compiled by 'conda@95abc7406d43' on 2020-10-14
          program call               : xtb acid_133.xyz --opt --chrg 0 --uhf 0 --gfn 2
          number of atoms            :                    60
          number of electrons        :                   190
          charge                     :                     0
          spin                       :                   0.0

   ID    Z sym.   atoms
    1    6 C      1-14, 16-21, 23, 25, 26, 30-33, 35-37
    2    7 N      15, 29
    3   17 Cl     22, 34
    4    8 O      24, 27, 28, 38
    5    1 H      39-60

          :  Hamiltonian                  GFN2-xTB          :
 * total energy  :  -106.6771636 Eh     change       -0.3788074E-08 Eh
 * total energy  :  -106.6886231 Eh     change       -0.1145946E-01 Eh
 * total energy  :  -106.6925142 Eh     change       -0.3891115E-02 Eh
 * total energy  :  -106.6938623 Eh     change       -0.1348075E-02 Eh
 * total energy  :  -106.6946980 Eh     change       -0.8356987E-03 Eh
 * total energy  :  -106.6952832 Eh     change       -0.5852397E-03 Eh
 * total energy  :  -106.6959350 Eh     change       -0.6517866E-03 Eh
 * total energy  :  -106.6964968 Eh     change       -0.5618071E-03 Eh
 * total energy  :  -106.6971622 Eh     change       -0.6653644E-03 Eh
 * total energy  :  -106.6977254 Eh     change       -0.5632640E-03 Eh
 * total energy  :  -106.7150746 Eh     change       -0.5211653E-05 Eh
 * total energy  :  -106.7150807 Eh     change       -0.6188669E-05 Eh
 * total energy  :  -106.7150878 Eh     change       -0.7033715E-05 Eh
 * total energy  :  -106.7150943 Eh     change       -0.6530419E-05 Eh
 * total energy  :  -106.7151000 Eh     change       -0.5683582E-05 Eh
 * total energy  :  -106.7151053 Eh     change       -0.5298048E-05 Eh
 * total energy  :  -106.7151105 Eh     change       -0.5191174E-05 Eh
 * total energy  :  -106.7151155 Eh     change       -0.5060804E-05 Eh
 * total energy  :  -106.7151201 Eh     change       -0.4556690E-05 Eh
   *** GEOMETRY OPTIMIZATION CONVERGED AFTER 170 ITERATIONS ***

 final structure:
================
60
 xtb: 6.3.3 (4ae9cef)
C        -2.79935050478740   -2.30076421724554   -0.22129560988859
C        -3.76097334135107   -3.08299290377055   -0.83846457137350
C        -3.40503889039677   -4.27007133283666   -1.45328049927411
C        -2.08292069128162   -4.68202432706158   -1.43206438308129
C        -1.12113534566151   -3.89999445452791   -0.81935502055595
C        -1.46751793977385   -2.69180072937663   -0.22493090779762
C        -0.40001760163618   -1.85567436208128    0.44124743505150
C         0.84332354077335   -1.60630811505972   -0.45441509331099
C         2.13491258785508   -1.82863920586455    0.29002507586132
C         2.48714899101340   -0.98565037673904    1.33704006393832
C         3.66159229780669   -1.19300851030883    2.03593128947883
C         4.49512874659572   -2.24493964651837    1.69556434539980
C         4.15056106355985   -3.08592997594192    0.65201252510234
C         2.97537927417913   -2.87836008502578   -0.04816874027410
N         0.70433877029819   -0.20541228729304   -0.83679774956303
C         1.58342305587807    0.41597959630060   -1.66178013389099
C         1.25141089012376    1.86467155256272   -1.88147370066042
C         1.47256599844233    2.79309959573278   -0.86947400668354
C         1.13996934955113    4.12150124929310   -1.06740506588682
C         0.58426592587951    4.53377940455335   -2.26653081961399
C         0.38174076549579    3.60426033401452   -3.27449077624610
Cl       -0.30510590747630    4.10749275869502   -4.77488448240763
C         0.71527638288333    2.27084533586216   -3.09369272571522
O         2.53710244054571   -0.14493727089440   -2.14984951592970
C        -0.52634346280243    0.34802124329916   -0.33551087404308
C        -1.65319543399648    0.30692984098086   -1.39468524989152
O        -1.30235949856432   -0.36070628557303   -2.48325975610543
O        -2.72073352824187    0.83052665256791   -1.24031634003420
N        -0.85655336437727   -0.51196059069103    0.76934454101646
C        -1.00471027473706   -0.13874836981119    2.07830584406753
C        -1.14067992022838    1.32436484190660    2.33982906515185
C        -2.00819722257530    2.14418479713799    1.62527412118820
C        -2.05213905038647    3.49766457321778    1.91985566380338
Cl       -3.10247760008742    4.52090922731272    1.00827828743616
C        -1.26010524613601    4.04223691196776    2.91923388789756
C        -0.42149522988665    3.21276751265712    3.64412148088846
C        -0.36205113450578    1.86019639179488    3.36213016754982
O        -0.99792624237018   -0.96062328993352    2.96876762092642
H        -3.09362180853294   -1.38811769643796    0.27422244988846
H        -4.79185369946295   -2.76192277838565   -0.83229594564497
H        -4.15541926200420   -4.87869058157969   -1.93503638547358
H        -1.80009880903601   -5.61785883331510   -1.89055908729663
H        -0.09560370862024   -4.23742699302978   -0.78915541902424
H        -0.11133820706351   -2.34143792163406    1.38222042211379
H         0.82019094386569   -2.22761376716551   -1.35565020555096
H         1.84050705054056   -0.16167055579708    1.60631494650410
H         3.92759085466951   -0.53179170146132    2.84744302597269
H         5.41325717911713   -2.40531785819534    2.24066093864027
H         4.80079323435729   -3.90350797432614    0.37872906817545
H         2.71475041694678   -3.52886307429855   -0.86998579104679
H         1.91265977432750    2.47467324238489    0.06454789205606
H         1.30925743821744    4.84194710925602   -0.28189229990712
H         0.31408922317363    5.56611998435644   -2.42205776088119
H         0.56249398909386    1.55402052149401   -3.88529838580442
H        -0.41767843208979    1.39073847918500   -0.01453807497995
H        -2.02898288298265   -0.38656001425535   -3.12788701197708
H        -2.64978186982981    1.74226719411656    0.85643603831987
H        -1.30982158623748    5.09879409243334    3.12948407406890
H         0.18747844735940    3.62645984718952    4.43324789642725
H         0.28401806455532    1.20487479621694    3.92621422284415

          :  Hamiltonian                  GFN2-xTB          :
         :: total energy            -106.715120096390 Eh    ::
         :: gradient norm              0.000485330963 Eh/a0 ::
         :: HOMO-LUMO gap              3.391683097037 eV    ::
         :: SCC energy              -108.250865890069 Eh    ::
         :: -> dispersion             -0.088970090108 Eh    ::
         :: repulsion energy           1.532490813235 Eh    ::

    * Orbital Energies and Occupations

         #    Occupation            Energy/Eh            Energy/eV
      -------------------------------------------------------------
         1        2.0000           -1.0646758             -28.9713
       ...           ...                  ...                  ...
        83        2.0000           -0.4317589             -11.7488
        84        2.0000           -0.4306835             -11.7195
        85        2.0000           -0.4296757             -11.6921
        86        2.0000           -0.4253467             -11.5743
        87        2.0000           -0.4185084             -11.3882
        88        2.0000           -0.4163815             -11.3303
        89        2.0000           -0.4130409             -11.2394
        90        2.0000           -0.4129771             -11.2377
        91        2.0000           -0.4120522             -11.2125
        92        2.0000           -0.4110935             -11.1864
        93        2.0000           -0.4093677             -11.1395
        94        2.0000           -0.4051049             -11.0235
        95        2.0000           -0.4016038             -10.9282 (HOMO)
        96                         -0.2769617              -7.5365 (LUMO)
        97                         -0.2722231              -7.4076
        98                         -0.2599102              -7.0725
        99                         -0.2548386              -6.9345
       100                         -0.2538540              -6.9077
       101                         -0.2399175              -6.5285
       102                         -0.2361484              -6.4259
       103                         -0.2326811              -6.3316
       104                         -0.2308298              -6.2812
       105                         -0.2233871              -6.0787
       106                         -0.2163353              -5.8868
       ...                                ...                  ...
       184                          0.6575269              17.8922
      -------------------------------------------------------------
                  HL-Gap            0.1246421 Eh            3.3917 eV

     #   Z          covCN         q      C6AA      Î±(0)
     1   6 C        2.923    -0.034    28.845     8.807
     2   6 C        2.920    -0.027    28.687     8.783
     3   6 C        2.920    -0.030    28.759     8.794
     4   6 C        2.920    -0.027    28.678     8.782
     5   6 C        2.925    -0.037    28.917     8.819
     6   6 C        2.970     0.002    27.970     8.675
     7   6 C        3.841     0.035    19.964     6.356
     8   6 C        3.823     0.039    19.909     6.350
     9   6 C        2.974     0.009    27.814     8.651
    10   6 C        2.924    -0.028    28.706     8.786
    11   6 C        2.920    -0.026    28.650     8.778
    12   6 C        2.921    -0.027    28.682     8.783
    13   6 C        2.920    -0.025    28.617     8.772
    14   6 C        2.924    -0.028    28.696     8.785
    15   7 N        2.771    -0.113    23.454     7.193
    16   6 C        2.760     0.274    22.368     7.745
    17   6 C        2.981    -0.015    28.390     8.740
    18   6 C        2.921    -0.036    28.899     8.816
    19   6 C        2.921    -0.025    28.618     8.773
    20   6 C        2.955    -0.037    28.909     8.819
    21   6 C        2.889     0.102    25.735     8.317
    22  17 Cl       0.970    -0.163   104.266    15.622
    23   6 C        2.960    -0.037    28.918     8.820
    24   8 O        0.859    -0.406    21.802     6.260
    25   6 C        3.775     0.084    19.218     6.246
    26   6 C        2.688     0.353    21.014     7.502
    27   8 O        1.659    -0.351    19.924     6.026
    28   8 O        0.856    -0.385    21.391     6.201
    29   7 N        2.766    -0.112    23.451     7.192
    30   6 C        2.764     0.272    22.396     7.750
    31   6 C        2.976    -0.015    28.383     8.739
    32   6 C        2.958    -0.049    29.212     8.865
    33   6 C        2.888     0.101    25.755     8.320
    34  17 Cl       0.970    -0.165   104.319    15.626
    35   6 C        2.954    -0.037    28.912     8.819
    36   6 C        2.921    -0.025    28.623     8.773
    37   6 C        2.924    -0.025    28.638     8.776
    38   8 O        0.859    -0.407    21.822     6.263
    39   1 H        0.926     0.037     2.487     2.466
    40   1 H        0.926     0.040     2.450     2.448
    41   1 H        0.926     0.038     2.478     2.461
    42   1 H        0.926     0.039     2.463     2.454
    43   1 H        0.926     0.035     2.517     2.481
    44   1 H        0.924     0.088     1.894     2.152
    45   1 H        0.924     0.067     2.119     2.276
    46   1 H        0.925     0.020     2.734     2.586
    47   1 H        0.926     0.036     2.507     2.476
    48   1 H        0.926     0.038     2.473     2.459
    49   1 H        0.926     0.040     2.446     2.446
    50   1 H        0.926     0.037     2.484     2.465
    51   1 H        0.926     0.042     2.422     2.434
    52   1 H        0.926     0.054     2.269     2.355
    53   1 H        0.926     0.066     2.134     2.284
    54   1 H        0.926     0.065     2.145     2.290
    55   1 H        0.924     0.073     2.057     2.243
    56   1 H        0.804     0.347     0.595     1.212
    57   1 H        0.926     0.078     1.996     2.209
    58   1 H        0.926     0.064     2.151     2.293
    59   1 H        0.926     0.056     2.247     2.344
    60   1 H        0.926     0.062     2.177     2.307

Wiberg/Mayer (AO) data.
largest (>0.10) Wiberg bond orders for each atom

     #   Z sym  total        # sym  WBO       # sym  WBO       # sym  WBO
 ---------------------------------------------------------------------------
     1   6 C    3.991 --     2 C    1.438     6 C    1.418    39 H    0.967
                             4 C    0.110
     2   6 C    3.992 --     3 C    1.444     1 C    1.438    40 H    0.970
                             5 C    0.112
     3   6 C    3.992 --     2 C    1.444     4 C    1.433    41 H    0.971
                             6 C    0.109
     4   6 C    3.991 --     5 C    1.450     3 C    1.433    42 H    0.971
                             1 C    0.110
     5   6 C    3.991 --     4 C    1.450     6 C    1.406    43 H    0.967
                             2 C    0.112
     6   6 C    3.985 --     1 C    1.418     5 C    1.406     7 C    0.988
                             3 C    0.109
     7   6 C    3.958 --     6 C    0.988    29 N    0.965     8 C    0.951
                            44 H    0.939
     8   6 C    3.960 --     9 C    0.990    15 N    0.953    45 H    0.952
                             7 C    0.951
     9   6 C    3.986 --    14 C    1.416    10 C    1.409     8 C    0.990
                            12 C    0.110
    10   6 C    3.992 --    11 C    1.449     9 C    1.409    46 H    0.969
                            13 C    0.112
    11   6 C    3.992 --    10 C    1.449    12 C    1.436    47 H    0.971
                            14 C    0.111
    12   6 C    3.990 --    13 C    1.442    11 C    1.436    48 H    0.971
                             9 C    0.110
    13   6 C    3.992 --    12 C    1.442    14 C    1.441    49 H    0.970
                            10 C    0.112
    14   6 C    3.990 --    13 C    1.441     9 C    1.416    50 H    0.968
                            11 C    0.111
    15   7 N    3.469 --    16 C    1.210    25 C    0.988     8 C    0.953
                            24 O    0.195
    16   6 C    3.951 --    24 O    1.707    15 N    1.210    17 C    0.950
    17   6 C    3.987 --    23 C    1.417    18 C    1.398    16 C    0.950
                            20 C    0.108
    18   6 C    3.991 --    19 C    1.442    17 C    1.398    51 H    0.969
                            21 C    0.101
    19   6 C    3.990 --    18 C    1.442    20 C    1.437    52 H    0.968
                            23 C    0.108
    20   6 C    3.988 --    19 C    1.437    21 C    1.405    53 H    0.967
                            17 C    0.108
    21   6 C    3.922 --    20 C    1.405    23 C    1.401    22 Cl   0.983
                            18 C    0.101
    22  17 Cl   1.122 --    21 C    0.983
    23   6 C    3.988 --    17 C    1.417    21 C    1.401    54 H    0.966
                            19 C    0.108
    24   8 O    2.032 --    16 C    1.707    15 N    0.195
    25   6 C    3.974 --    29 N    0.990    15 N    0.988    55 H    0.930
                            26 C    0.906
    26   6 C    3.920 --    28 O    1.772    27 O    1.170    25 C    0.906
    27   8 O    2.235 --    26 C    1.170    56 H    0.853    28 O    0.185
    28   8 O    2.063 --    26 C    1.772    27 O    0.185
    29   7 N    3.456 --    30 C    1.179    25 C    0.990     7 C    0.965
                            38 O    0.184
    30   6 C    3.946 --    38 O    1.702    29 N    1.179    31 C    0.981
    31   6 C    3.987 --    32 C    1.396    37 C    1.394    30 C    0.981
                            35 C    0.104
    32   6 C    3.986 --    33 C    1.407    31 C    1.396    57 H    0.957
                            36 C    0.107
    33   6 C    3.921 --    32 C    1.407    35 C    1.400    34 Cl   0.982
    34  17 Cl   1.121 --    33 C    0.982
    35   6 C    3.987 --    36 C    1.438    33 C    1.400    58 H    0.967
                            31 C    0.104
    36   6 C    3.990 --    37 C    1.442    35 C    1.438    59 H    0.968
                            32 C    0.107
    37   6 C    3.988 --    36 C    1.442    31 C    1.394    60 H    0.967
    38   8 O    2.034 --    30 C    1.702    29 N    0.184
    39   1 H    0.999 --     1 C    0.967
    40   1 H    0.998 --     2 C    0.970
    41   1 H    0.998 --     3 C    0.971
    42   1 H    0.998 --     4 C    0.971
    43   1 H    0.999 --     5 C    0.967
    44   1 H    0.992 --     7 C    0.939
    45   1 H    0.995 --     8 C    0.952
    46   1 H    1.000 --    10 C    0.969
    47   1 H    0.998 --    11 C    0.971
    48   1 H    0.998 --    12 C    0.971
    49   1 H    0.998 --    13 C    0.970
    50   1 H    0.999 --    14 C    0.968
    51   1 H    0.998 --    18 C    0.969
    52   1 H    0.996 --    19 C    0.968
    53   1 H    0.995 --    20 C    0.967
    54   1 H    0.996 --    23 C    0.966
    55   1 H    0.994 --    25 C    0.930
    56   1 H    0.879 --    27 O    0.853
    57   1 H    0.994 --    32 C    0.957
    58   1 H    0.995 --    35 C    0.967
    59   1 H    0.996 --    36 C    0.968
    60   1 H    0.995 --    37 C    0.967
 ---------------------------------------------------------------------------

molecular dipole:
                 x           y           z       tot (Debye)
 q only:        0.406      -0.501       0.471
   full:        0.021      -0.019       0.017       0.082

           -------------------------------------------------
          | TOTAL ENERGY             -106.715120096390 Eh   |
          | GRADIENT NORM               0.000485330963 Eh/Î± |
          | HOMO-LUMO GAP               3.391683097037 eV   |
           -------------------------------------------------

 * finished run on 2022/03/16 at 21:43:44.913
