   * xtb version 6.3.3 (4ae9cef) compiled by 'conda@95abc7406d43' on 2020-10-14
          program call               : xtb acid_314.xyz --opt --chrg 0 --uhf 0 --gfn 2
          number of atoms            :                    54
          number of electrons        :                   170
          charge                     :                     0
          spin                       :                   0.0

   ID    Z sym.   atoms
    1    6 C      1-14, 16-18, 20, 21, 23, 24, 28-30, 32, 33
    2    7 N      15, 27
    3    8 O      19, 22, 25, 26, 31, 34
    4    1 H      35-54

          :  Hamiltonian                  GFN2-xTB          :
 * total energy  :   -96.1226444 Eh     change       -0.1076842E-08 Eh
 * total energy  :   -96.1339772 Eh     change       -0.1133283E-01 Eh
 * total energy  :   -96.1372910 Eh     change       -0.3313803E-02 Eh
 * total energy  :   -96.1381761 Eh     change       -0.8850774E-03 Eh
 * total energy  :   -96.1386033 Eh     change       -0.4272508E-03 Eh
 * total energy  :   -96.1388779 Eh     change       -0.2745712E-03 Eh
 * total energy  :   -96.1391637 Eh     change       -0.2858547E-03 Eh
 * total energy  :   -96.1394460 Eh     change       -0.2822498E-03 Eh
 * total energy  :   -96.1397359 Eh     change       -0.2899312E-03 Eh
 * total energy  :   -96.1399527 Eh     change       -0.2167717E-03 Eh
 * total energy  :   -96.1406777 Eh     change       -0.9559672E-05 Eh
 * total energy  :   -96.1406897 Eh     change       -0.1207460E-04 Eh
 * total energy  :   -96.1407056 Eh     change       -0.1582786E-04 Eh
 * total energy  :   -96.1407207 Eh     change       -0.1516338E-04 Eh
 * total energy  :   -96.1407300 Eh     change       -0.9306727E-05 Eh
 * total energy  :   -96.1407362 Eh     change       -0.6197830E-05 Eh
 * total energy  :   -96.1407430 Eh     change       -0.6776047E-05 Eh
 * total energy  :   -96.1407490 Eh     change       -0.5975215E-05 Eh
 * total energy  :   -96.1407526 Eh     change       -0.3587691E-05 Eh
   *** GEOMETRY OPTIMIZATION CONVERGED AFTER 38 ITERATIONS ***

 final structure:
================
54
 xtb: 6.3.3 (4ae9cef)
C         1.62783086606096    3.26099994300502   -1.18531180393065
C         1.87532046970064    3.97592859435870   -2.34382261582923
C         1.44893687076738    3.48662275874263   -3.56609859385076
C         0.77429397206203    2.27886780305632   -3.62681184453848
C         0.52554570086547    1.56473935478607   -2.46941217529247
C         0.95044761501985    2.05214148339035   -1.23963009915021
C         0.66867139903406    1.27323848814023    0.01950238270971
C        -0.84362804137165    1.17948983418960    0.33554778448032
C        -1.18003668441862    1.50327669434983    1.77225628607711
C        -0.73823280964682    2.70179997330895    2.32063086643660
C        -1.03573097906666    3.02563255200826    3.63148501787979
C        -1.78460606854027    2.15853412777089    4.40960138235581
C        -2.24633113063106    0.97448167782139    3.86296759862215
C        -1.95004465261260    0.64994667669951    2.54985470764751
N        -1.19021511598403   -0.18479365190448   -0.03347183955985
C        -2.25801372034404   -0.40821590369806   -0.86311647818693
C        -2.46625750859946   -1.78391780999501   -1.34566788102568
C        -3.02098708793751   -2.07736381751536   -2.56500447332400
O        -3.14699437954019   -3.39469289889864   -2.72494141954553
C        -2.69897171830274   -3.97714000073422   -1.59853322666491
C        -2.26329432360619   -3.04568834332673   -0.71074072563741
O        -3.00730659145027    0.49743487576440   -1.16859113838542
C        -0.02832345716404   -1.01718953127748    0.12465434416154
C         0.04301156253143   -1.57333306594313    1.56766576667575
O         0.80164711115298   -0.82721008997829    2.35603323923045
O        -0.52462750728205   -2.56730238018667    1.92853995387423
N         1.07077413079202   -0.12074938795653   -0.13914127035410
C         2.38753871410790   -0.45887740604790   -0.16452438842759
C         2.64568649591637   -1.92040680531736   -0.23010511277900
C         2.30446429905988   -2.80516227984457   -1.21397461222109
O         2.76062614912748   -4.03166642466018   -0.92703886930368
C         3.40082487243416   -3.95291737288756    0.24915404013070
C         3.37421626887020   -2.68056353679992    0.72658227662693
O         3.26828174021843    0.37203067659323   -0.14636497077223
H         1.97341345168831    3.63755372743809   -0.23393813853929
H         2.40695560312360    4.91441315665883   -2.29224665651976
H         1.64498676270236    4.04259234417044   -4.47083792368502
H         0.44148539726040    1.89169059099779   -4.57848906557715
H        -0.00169391442169    0.62245941414582   -2.52174943846923
H         1.22721510447630    1.70850438293370    0.85547020883576
H        -1.42096487576152    1.84868036058251   -0.31569726979421
H        -0.16882369281029    3.38911272475575    1.71234729123634
H        -0.68581164982783    3.95943233026813    4.04577473013895
H        -2.01613145275154    2.41033570115753    5.43370174418208
H        -2.84446489144843    0.29929690318823    4.45698917413653
H        -2.33076864082725   -0.26916212406412    2.12885099632604
H        -3.33238698982782   -1.43368524921008   -3.36328746146289
H        -2.74059856070536   -5.04675861117529   -1.54671971302281
H        -1.88098192589253   -3.22393387137599    0.27285934273401
H        -0.05580443568092   -1.86887878621438   -0.56416698044443
H         0.81319170086310   -1.17091611607153    3.26432375466087
H         1.78806798024288   -2.67442046915307   -2.14467367669912
H         3.83003230811769   -4.85447839587412    0.63803167154243
H         3.80856626025574   -2.30981282016783    1.63128530229030

          :  Hamiltonian                  GFN2-xTB          :
         :: total energy             -96.140752562008 Eh    ::
         :: gradient norm              0.000306949406 Eh/a0 ::
         :: HOMO-LUMO gap              3.372599847688 eV    ::
         :: SCC energy               -97.488791203896 Eh    ::
         :: -> dispersion             -0.074048676891 Eh    ::
         :: repulsion energy           1.345902762786 Eh    ::

    * Orbital Energies and Occupations

         #    Occupation            Energy/Eh            Energy/eV
      -------------------------------------------------------------
         1        2.0000           -0.7812153             -21.2579
       ...           ...                  ...                  ...
        73        2.0000           -0.4366252             -11.8812
        74        2.0000           -0.4334379             -11.7944
        75        2.0000           -0.4271693             -11.6239
        76        2.0000           -0.4207244             -11.4485
        77        2.0000           -0.4157391             -11.3128
        78        2.0000           -0.4144216             -11.2770
        79        2.0000           -0.4126984             -11.2301
        80        2.0000           -0.4117481             -11.2042
        81        2.0000           -0.4087761             -11.1234
        82        2.0000           -0.4076882             -11.0938
        83        2.0000           -0.4047053             -11.0126
        84        2.0000           -0.4023852             -10.9495
        85        2.0000           -0.3978067             -10.8249 (HOMO)
        86                         -0.2738659              -7.4523 (LUMO)
        87                         -0.2551327              -6.9425
        88                         -0.2417355              -6.5780
        89                         -0.2362823              -6.4296
        90                         -0.2333257              -6.3491
        91                         -0.2285025              -6.2179
        92                         -0.2266995              -6.1688
        93                         -0.2202362              -5.9929
        94                         -0.2183882              -5.9426
        95                         -0.1723256              -4.6892
        96                         -0.1536097              -4.1799
       ...                                ...                  ...
       156                          0.6811799              18.5358
      -------------------------------------------------------------
                  HL-Gap            0.1239408 Eh            3.3726 eV

     #   Z          covCN         q      C6AA      Î±(0)
     1   6 C        2.924    -0.028    28.709     8.787
     2   6 C        2.920    -0.025    28.639     8.776
     3   6 C        2.920    -0.028    28.701     8.785
     4   6 C        2.920    -0.027    28.666     8.780
     5   6 C        2.924    -0.029    28.735     8.791
     6   6 C        2.974     0.008    27.830     8.653
     7   6 C        3.825     0.040    19.890     6.346
     8   6 C        3.838     0.034    19.971     6.358
     9   6 C        2.971     0.005    27.901     8.664
    10   6 C        2.925    -0.036    28.905     8.817
    11   6 C        2.920    -0.027    28.675     8.781
    12   6 C        2.920    -0.031    28.772     8.796
    13   6 C        2.920    -0.029    28.719     8.788
    14   6 C        2.923    -0.033    28.827     8.805
    15   7 N        2.765    -0.111    23.432     7.189
    16   6 C        2.760     0.271    22.426     7.755
    17   6 C        3.074    -0.052    29.203     8.860
    18   6 C        3.080     0.083    26.071     8.371
    19   8 O        1.730    -0.156    16.658     5.511
    20   6 C        3.081     0.069    26.378     8.420
    21   6 C        3.012    -0.073    29.789     8.953
    22   8 O        0.860    -0.421    22.099     6.303
    23   6 C        3.768     0.085    19.204     6.245
    24   6 C        2.688     0.354    20.992     7.498
    25   8 O        1.659    -0.349    19.887     6.020
    26   8 O        0.856    -0.391    21.512     6.218
    27   7 N        2.769    -0.119    23.592     7.214
    28   6 C        2.758     0.274    22.366     7.745
    29   6 C        3.075    -0.051    29.180     8.857
    30   6 C        3.078     0.064    26.484     8.437
    31   8 O        1.731    -0.160    16.713     5.520
    32   6 C        3.076     0.069    26.371     8.419
    33   6 C        3.020    -0.057    29.392     8.893
    34   8 O        0.859    -0.410    21.881     6.272
    35   1 H        0.926     0.038     2.472     2.458
    36   1 H        0.926     0.039     2.463     2.454
    37   1 H        0.926     0.037     2.489     2.467
    38   1 H        0.926     0.036     2.506     2.476
    39   1 H        0.926     0.024     2.671     2.556
    40   1 H        0.924     0.068     2.104     2.268
    41   1 H        0.924     0.089     1.885     2.147
    42   1 H        0.926     0.036     2.509     2.477
    43   1 H        0.926     0.038     2.471     2.458
    44   1 H        0.926     0.036     2.496     2.471
    45   1 H        0.926     0.037     2.491     2.468
    46   1 H        0.926     0.032     2.553     2.499
    47   1 H        0.926     0.069     2.094     2.263
    48   1 H        0.926     0.059     2.206     2.323
    49   1 H        0.927     0.068     2.107     2.270
    50   1 H        0.924     0.073     2.050     2.239
    51   1 H        0.804     0.344     0.601     1.218
    52   1 H        0.926     0.051     2.309     2.376
    53   1 H        0.926     0.060     2.195     2.317
    54   1 H        0.927     0.052     2.294     2.369

Wiberg/Mayer (AO) data.
largest (>0.10) Wiberg bond orders for each atom

     #   Z sym  total        # sym  WBO       # sym  WBO       # sym  WBO
 ---------------------------------------------------------------------------
     1   6 C    3.990 --     2 C    1.441     6 C    1.416    35 H    0.968
                             4 C    0.111
     2   6 C    3.992 --     3 C    1.442     1 C    1.441    36 H    0.971
                             5 C    0.112
     3   6 C    3.990 --     2 C    1.442     4 C    1.436    37 H    0.971
                             6 C    0.110
     4   6 C    3.992 --     5 C    1.448     3 C    1.436    38 H    0.971
                             1 C    0.111
     5   6 C    3.992 --     4 C    1.448     6 C    1.410    39 H    0.969
                             2 C    0.112
     6   6 C    3.986 --     1 C    1.416     5 C    1.410     7 C    0.989
                             3 C    0.110
     7   6 C    3.961 --     6 C    0.989    27 N    0.954     8 C    0.954
                            40 H    0.952
     8   6 C    3.960 --     9 C    0.988    15 N    0.967     7 C    0.954
                            41 H    0.938
     9   6 C    3.985 --    14 C    1.419    10 C    1.405     8 C    0.988
                            12 C    0.110
    10   6 C    3.991 --    11 C    1.451     9 C    1.405    42 H    0.968
                            13 C    0.112
    11   6 C    3.991 --    10 C    1.451    12 C    1.433    43 H    0.971
                            14 C    0.110
    12   6 C    3.992 --    13 C    1.444    11 C    1.433    44 H    0.971
                             9 C    0.110
    13   6 C    3.992 --    12 C    1.444    14 C    1.438    45 H    0.971
                            10 C    0.112
    14   6 C    3.991 --    13 C    1.438     9 C    1.419    46 H    0.966
                            11 C    0.110
    15   7 N    3.454 --    16 C    1.173    23 C    0.991     8 C    0.967
                            22 O    0.179
    16   6 C    3.948 --    22 O    1.683    15 N    1.173    17 C    1.012
    17   6 C    3.977 --    18 C    1.537    21 C    1.247    16 C    1.012
    18   6 C    3.913 --    17 C    1.537    19 O    1.171    47 H    0.964
                            20 C    0.141
    19   8 O    2.475 --    18 C    1.171    20 C    1.131
    20   6 C    3.906 --    21 C    1.624    19 O    1.131    48 H    0.966
                            18 C    0.141
    21   6 C    3.981 --    20 C    1.624    17 C    1.247    49 H    0.964
    22   8 O    2.020 --    16 C    1.683    15 N    0.179
    23   6 C    3.974 --    15 N    0.991    27 N    0.985    50 H    0.939
                            24 C    0.906
    24   6 C    3.917 --    26 O    1.767    25 O    1.172    23 C    0.906
    25   8 O    2.238 --    24 C    1.172    51 H    0.855    26 O    0.184
    26   8 O    2.061 --    24 C    1.767    25 O    0.184
    27   7 N    3.456 --    28 C    1.200    23 C    0.985     7 C    0.954
                            34 O    0.190
    28   6 C    3.951 --    34 O    1.701    27 N    1.200    29 C    0.974
    29   6 C    3.979 --    30 C    1.562    33 C    1.261    28 C    0.974
    30   6 C    3.910 --    29 C    1.562    31 O    1.149    52 H    0.966
                            32 C    0.149
    31   8 O    2.469 --    30 C    1.149    32 C    1.141
    32   6 C    3.908 --    33 C    1.613    31 O    1.141    53 H    0.965
                            30 C    0.149
    33   6 C    3.982 --    32 C    1.613    29 C    1.261    54 H    0.974
    34   8 O    2.029 --    28 C    1.701    27 N    0.190
    35   1 H    0.999 --     1 C    0.968
    36   1 H    0.998 --     2 C    0.971
    37   1 H    0.998 --     3 C    0.971
    38   1 H    0.998 --     4 C    0.971
    39   1 H    0.999 --     5 C    0.969
    40   1 H    0.995 --     7 C    0.952
    41   1 H    0.992 --     8 C    0.938
    42   1 H    0.999 --    10 C    0.968
    43   1 H    0.998 --    11 C    0.971
    44   1 H    0.998 --    12 C    0.971
    45   1 H    0.998 --    13 C    0.971
    46   1 H    0.999 --    14 C    0.966
    47   1 H    0.995 --    18 C    0.964
    48   1 H    0.996 --    20 C    0.966
    49   1 H    0.995 --    21 C    0.964
    50   1 H    0.994 --    23 C    0.939
    51   1 H    0.881 --    25 O    0.855
    52   1 H    0.997 --    30 C    0.966
    53   1 H    0.995 --    32 C    0.965
    54   1 H    0.997 --    33 C    0.974
 ---------------------------------------------------------------------------

molecular dipole:
                 x           y           z       tot (Debye)
 q only:        0.254      -0.283       0.764
   full:        0.275      -0.708       0.808       2.818

           -------------------------------------------------
          | TOTAL ENERGY              -96.140752562008 Eh   |
          | GRADIENT NORM               0.000306949406 Eh/Î± |
          | HOMO-LUMO GAP               3.372599847688 eV   |
           -------------------------------------------------

 * finished run on 2022/03/16 at 23:42:13.400
