   * xtb version 6.3.3 (4ae9cef) compiled by 'conda@95abc7406d43' on 2020-10-14
          program call               : xtb acid_182.xyz --opt --chrg 0 --uhf 0 --gfn 2
          number of atoms            :                    64
          number of electrons        :                   210
          charge                     :                     0
          spin                       :                   0.0

   ID    Z sym.   atoms
    1    6 C      1, 3-16, 18, 20-25, 29, 30, 34-39
    2    8 O      2, 17, 27, 28, 31, 32, 41, 42
    3    7 N      19, 26, 33, 40
    4    1 H      43-64

          :  Hamiltonian                  GFN2-xTB          :
 * total energy  :  -119.6200506 Eh     change       -0.2783395E-08 Eh
 * total energy  :  -119.6338199 Eh     change       -0.1376931E-01 Eh
 * total energy  :  -119.6385491 Eh     change       -0.4729260E-02 Eh
 * total energy  :  -119.6386551 Eh     change       -0.1059666E-03 Eh
 * total energy  :  -119.6407634 Eh     change       -0.2108264E-02 Eh
 * total energy  :  -119.6413629 Eh     change       -0.5995404E-03 Eh
 * total energy  :  -119.6420348 Eh     change       -0.6719063E-03 Eh
 * total energy  :  -119.6420757 Eh     change       -0.4086347E-04 Eh
 * total energy  :  -119.6430581 Eh     change       -0.9824660E-03 Eh
 * total energy  :  -119.6434254 Eh     change       -0.3672581E-03 Eh
 * total energy  :  -119.6509170 Eh     change       -0.1510287E-05 Eh
 * total energy  :  -119.6509127 Eh     change        0.4304751E-05 Eh
 * total energy  :  -119.6509017 Eh     change        0.1091322E-04 Eh
 * total energy  :  -119.6508900 Eh     change        0.1169531E-04 Eh
 * total energy  :  -119.6509030 Eh     change       -0.1291628E-04 Eh
 * total energy  :  -119.6508743 Eh     change        0.2863286E-04 Eh
 * total energy  :  -119.6509136 Eh     change       -0.3928182E-04 Eh
 * total energy  :  -119.6509239 Eh     change       -0.1028057E-04 Eh
 * total energy  :  -119.6509284 Eh     change       -0.4467674E-05 Eh
   *** GEOMETRY OPTIMIZATION CONVERGED AFTER 98 ITERATIONS ***

 final structure:
================
64
 xtb: 6.3.3 (4ae9cef)
C        -2.20525936085988   -1.50130572950966   -0.68383972055560
O        -2.18853951026922   -1.80598241401384    0.63950653133714
C        -3.03660044285343   -2.82758279970466    1.11194660836489
C        -2.99729594080170   -2.13714942356086   -1.63244290002507
C        -2.94559684793557   -1.74579402497065   -2.96000132493997
C        -2.10514623400891   -0.72519953345721   -3.36147322860895
C        -1.31489955254462   -0.08549383902302   -2.42076726486790
C        -1.36332662079414   -0.45273724202025   -1.08826127308536
C        -0.51049290583621    0.23165179334829   -0.05109097245750
C         0.89685632554712   -0.40322736490195   -0.00928649806634
C         1.06070879830336   -1.30146796538760    1.18769909556944
C         1.32973044097885   -0.79467909878021    2.44570654580910
C         1.45425396221654   -1.63723076700680    3.53721677401363
C         1.29778113580144   -2.99860908427506    3.36535549744091
C         1.01016050939608   -3.52244734239267    2.11607839743787
C         0.88457150433909   -2.68206365283886    1.01731379129945
O         0.58087730238848   -3.10040808924616   -0.24388644802768
C         0.43846652726366   -4.47889451204239   -0.48152146533320
N         1.81669014905687    0.72771521756124   -0.03818702349438
C         3.15218075222186    0.49859435650644   -0.02408879809233
C         4.05529583727053    1.66276782196830   -0.17478908584018
C         5.32524572068073    1.79263261061825    0.33783900714850
C         5.81288047454921    3.02762200141330   -0.11897412398760
C         4.80940052242997    3.56173282387221   -0.89791927345056
C         4.78580305130725    4.77360852062287   -1.60541274107536
N         4.80263316166739    5.77209540540713   -2.16871060770477
O         3.74707798600775    2.73022826520341   -0.92973456621262
O         3.61302778700267   -0.61827575096233    0.11218306860557
C         1.12621985069343    1.98768119606248   -0.11612396654089
C         1.23041574455364    2.77020676540062    1.21608326884639
O         2.25501719520710    3.61229506245386    1.22449135548957
O         0.48645631434170    2.60520534116639    2.13985087377370
N        -0.25525303889188    1.63194626784140   -0.33430113534651
C        -1.12715168103501    2.65854696998630   -0.48884173294828
C        -2.56464960852391    2.34591720705223   -0.56416091806339
C        -3.56005249171357    3.11042601197417   -1.13296031060147
C        -4.75299225055513    2.38982147684445   -0.97133977605838
C        -4.40447773982839    1.23655278281179   -0.29926016920026
C        -5.18272040167789    0.13786340045690    0.09188172941750
N        -5.81279292242434   -0.77228928628908    0.39334315188315
O        -3.08087722586191    1.22239723598836   -0.04948615741497
O        -0.72751530619597    3.80494360581601   -0.61076317586605
H        -4.09058328893685   -2.57512829740628    0.96029485753641
H        -2.83050799779669   -2.90259321018992    2.17851276083341
H        -2.81414307559468   -3.78570507896554    0.63215325264572
H        -3.66712989265938   -2.93093899488455   -1.34436508506593
H        -3.57202212846241   -2.24780676927947   -3.68189321055122
H        -2.06403360168615   -0.42492206102348   -4.39686525106226
H        -0.66076326637692    0.71991529323859   -2.72238811088914
H        -0.98688329511021    0.12803597771930    0.93175665193542
H         1.07125735621730   -1.00615357174490   -0.90904654800289
H         1.44002722544965    0.27128810505213    2.57589853620645
H         1.67042227154068   -1.23036010505107    4.51287466366073
H         1.39506750850943   -3.66700800131280    4.20802337695399
H         0.88767944337897   -4.58886666113644    2.01113902195381
H         1.36291868942363   -5.02270483708694   -0.26393419101469
H        -0.38190563094729   -4.90682480965217    0.10430760436773
H         0.20693432962684   -4.56984977793831   -1.54202970869417
H         5.82353013265264    1.08153807774240    0.96335335205528
H         6.76645466682868    3.47164598349605    0.08177947036568
H         1.49078488773184    2.63433032730921   -0.92550314730600
H         2.27874008935058    4.12423981576496    2.05062143322074
H        -3.42662569361264    4.06043275930527   -1.60721197736751
H        -5.73533070017433    2.66582261603176   -1.29634679035954

          :  Hamiltonian                  GFN2-xTB          :
         :: total energy            -119.650928355923 Eh    ::
         :: gradient norm              0.000495281906 Eh/a0 ::
         :: HOMO-LUMO gap              2.253116170003 eV    ::
         :: SCC energy              -121.313371187061 Eh    ::
         :: -> dispersion             -0.093419112041 Eh    ::
         :: repulsion energy           1.659489667082 Eh    ::

    * Orbital Energies and Occupations

         #    Occupation            Energy/Eh            Energy/eV
      -------------------------------------------------------------
         1        2.0000           -0.7774485             -21.1555
       ...           ...                  ...                  ...
        93        2.0000           -0.4423843             -12.0379
        94        2.0000           -0.4377205             -11.9110
        95        2.0000           -0.4313709             -11.7382
        96        2.0000           -0.4285949             -11.6627
        97        2.0000           -0.4256650             -11.5829
        98        2.0000           -0.4223243             -11.4920
        99        2.0000           -0.4180310             -11.3752
       100        2.0000           -0.4175607             -11.3624
       101        2.0000           -0.4123122             -11.2196
       102        2.0000           -0.4064308             -11.0595
       103        2.0000           -0.4021171             -10.9422
       104        2.0000           -0.3909337             -10.6378
       105        2.0000           -0.3821041             -10.3976 (HOMO)
       106                         -0.2993036              -8.1445 (LUMO)
       107                         -0.2942925              -8.0081
       108                         -0.2681841              -7.2977
       109                         -0.2475049              -6.7350
       110                         -0.2435957              -6.6286
       111                         -0.2404086              -6.5419
       112                         -0.2393025              -6.5118
       113                         -0.2329170              -6.3380
       114                         -0.2291209              -6.2347
       115                         -0.2265975              -6.1660
       116                         -0.2178647              -5.9284
       ...                                ...                  ...
       190                          1.1654132              31.7125
      -------------------------------------------------------------
                  HL-Gap            0.0828005 Eh            2.2531 eV

     #   Z          covCN         q      C6AA      Î±(0)
     1   6 C        2.868     0.145    24.835     8.169
     2   8 O        1.705    -0.270    18.479     5.804
     3   6 C        3.644     0.034    20.333     6.482
     4   6 C        2.917    -0.066    29.640     8.928
     5   6 C        2.921    -0.032    28.802     8.801
     6   6 C        2.917    -0.042    29.055     8.839
     7   6 C        2.923    -0.038    28.943     8.822
     8   6 C        2.974    -0.017    28.435     8.747
     9   6 C        3.816     0.040    19.890     6.347
    10   6 C        3.828     0.047    19.765     6.326
    11   6 C        2.973    -0.007    28.201     8.711
    12   6 C        2.923    -0.029    28.719     8.788
    13   6 C        2.918    -0.038    28.956     8.824
    14   6 C        2.921    -0.030    28.759     8.794
    15   6 C        2.918    -0.064    29.581     8.919
    16   6 C        2.869     0.147    24.795     8.162
    17   8 O        1.705    -0.272    18.518     5.810
    18   6 C        3.644     0.040    20.239     6.467
    19   7 N        2.758    -0.101    23.219     7.157
    20   6 C        2.759     0.261    22.595     7.784
    21   6 C        3.115     0.094    25.765     8.315
    22   6 C        3.020    -0.045    29.105     8.849
    23   6 C        3.012    -0.047    29.141     8.855
    24   6 C        3.119     0.128    25.041     8.196
    25   6 C        1.894     0.112    28.357     8.600
    26   7 N        0.911    -0.196    25.266     7.270
    27   8 O        1.728    -0.170    16.865     5.545
    28   8 O        0.860    -0.413    21.932     6.279
    29   6 C        3.769     0.092    19.097     6.228
    30   6 C        2.689     0.362    20.860     7.475
    31   8 O        1.659    -0.359    20.066     6.047
    32   8 O        0.856    -0.379    21.259     6.182
    33   7 N        2.764    -0.096    23.108     7.140
    34   6 C        2.769     0.264    22.553     7.778
    35   6 C        3.119     0.102    25.585     8.285
    36   6 C        3.021    -0.044    29.074     8.845
    37   6 C        3.012    -0.046    29.117     8.851
    38   6 C        3.124     0.124    25.107     8.205
    39   6 C        1.894     0.116    28.251     8.584
    40   7 N        0.911    -0.210    25.579     7.315
    41   8 O        1.729    -0.164    16.767     5.529
    42   8 O        0.860    -0.435    22.398     6.345
    43   1 H        0.924     0.057     2.232     2.336
    44   1 H        0.925     0.064     2.148     2.292
    45   1 H        0.924     0.041     2.439     2.442
    46   1 H        0.926     0.046     2.365     2.405
    47   1 H        0.926     0.041     2.429     2.437
    48   1 H        0.926     0.040     2.449     2.447
    49   1 H        0.926     0.036     2.499     2.472
    50   1 H        0.924     0.082     1.959     2.189
    51   1 H        0.924     0.081     1.966     2.193
    52   1 H        0.926     0.038     2.479     2.462
    53   1 H        0.926     0.040     2.449     2.447
    54   1 H        0.926     0.040     2.453     2.449
    55   1 H        0.926     0.040     2.443     2.444
    56   1 H        0.924     0.046     2.368     2.406
    57   1 H        0.924     0.038     2.472     2.459
    58   1 H        0.925     0.061     2.187     2.312
    59   1 H        0.927     0.069     2.096     2.264
    60   1 H        0.926     0.061     2.190     2.314
    61   1 H        0.923     0.098     1.807     2.102
    62   1 H        0.804     0.346     0.599     1.215
    63   1 H        0.927     0.074     2.038     2.233
    64   1 H        0.926     0.062     2.172     2.305

Wiberg/Mayer (AO) data.
largest (>0.10) Wiberg bond orders for each atom

     #   Z sym  total        # sym  WBO       # sym  WBO       # sym  WBO
 ---------------------------------------------------------------------------
     1   6 C    3.936 --     4 C    1.379     8 C    1.315     2 O    1.072
     2   8 O    2.242 --     1 C    1.072     3 C    0.977
     3   6 C    3.939 --    44 H    0.979     2 O    0.977    45 H    0.976
                            43 H    0.972
     4   6 C    3.987 --     5 C    1.435     1 C    1.379    46 H    0.965
                             7 C    0.101
     5   6 C    3.990 --     6 C    1.444     4 C    1.435    47 H    0.971
                             8 C    0.105
     6   6 C    3.991 --     5 C    1.444     7 C    1.422    48 H    0.971
     7   6 C    3.990 --     8 C    1.442     6 C    1.422    49 H    0.968
                             4 C    0.101
     8   6 C    3.982 --     7 C    1.442     1 C    1.315     9 C    0.989
                             5 C    0.105
     9   6 C    3.958 --     8 C    0.989    33 N    0.962    10 C    0.950
                            50 H    0.945
    10   6 C    3.956 --    11 C    0.990    19 N    0.953     9 C    0.950
                            51 H    0.947
    11   6 C    3.981 --    12 C    1.441    16 C    1.322    10 C    0.990
                            14 C    0.106
    12   6 C    3.990 --    11 C    1.441    13 C    1.423    52 H    0.967
                            15 C    0.102
    13   6 C    3.991 --    14 C    1.445    12 C    1.423    53 H    0.971
    14   6 C    3.990 --    13 C    1.445    15 C    1.434    54 H    0.971
                            11 C    0.106
    15   6 C    3.987 --    14 C    1.434    16 C    1.383    55 H    0.965
                            12 C    0.102
    16   6 C    3.934 --    15 C    1.383    11 C    1.322    17 O    1.060
    17   8 O    2.232 --    16 C    1.060    18 C    0.983
    18   6 C    3.945 --    17 O    0.983    58 H    0.980    56 H    0.976
                            57 H    0.976
    19   7 N    3.485 --    20 C    1.217    29 C    0.985    10 C    0.953
                            28 O    0.198
    20   6 C    3.959 --    28 O    1.659    19 N    1.217    21 C    0.994
    21   6 C    3.913 --    22 C    1.507    27 O    1.133    20 C    0.994
                            24 C    0.125
    22   6 C    3.984 --    21 C    1.507    23 C    1.350    59 H    0.971
    23   6 C    3.985 --    24 C    1.469    22 C    1.350    60 H    0.973
    24   6 C    3.909 --    23 C    1.469    25 C    1.109    27 O    1.099
                            21 C    0.125
    25   6 C    3.955 --    26 N    2.797    24 C    1.109
    26   7 N    3.003 --    25 C    2.797
    27   8 O    2.458 --    21 C    1.133    24 C    1.099
    28   8 O    2.013 --    20 C    1.659    19 N    0.198
    29   6 C    3.962 --    33 N    0.986    19 N    0.985    61 H    0.937
                            30 C    0.901
    30   6 C    3.917 --    32 O    1.788    31 O    1.162    29 C    0.901
    31   8 O    2.225 --    30 C    1.162    62 H    0.854    32 O    0.183
    32   8 O    2.071 --    30 C    1.788    31 O    0.183
    33   7 N    3.483 --    34 C    1.219    29 C    0.986     9 C    0.962
                            42 O    0.194
    34   6 C    3.959 --    42 O    1.637    33 N    1.219    35 C    1.011
    35   6 C    3.914 --    36 C    1.492    41 O    1.137    34 C    1.011
                            38 C    0.122
    36   6 C    3.983 --    35 C    1.492    37 C    1.361    63 H    0.970
    37   6 C    3.985 --    38 C    1.458    36 C    1.361    64 H    0.973
    38   6 C    3.908 --    37 C    1.458    39 C    1.112    41 O    1.102
                            35 C    0.122
    39   6 C    3.954 --    40 N    2.787    38 C    1.112
    40   7 N    2.998 --    39 C    2.787
    41   8 O    2.467 --    35 C    1.137    38 C    1.102
    42   8 O    1.986 --    34 C    1.637    33 N    0.194
    43   1 H    0.997 --     3 C    0.972
    44   1 H    0.995 --     3 C    0.979
    45   1 H    0.998 --     3 C    0.976
    46   1 H    0.997 --     4 C    0.965
    47   1 H    0.998 --     5 C    0.971
    48   1 H    0.998 --     6 C    0.971
    49   1 H    0.998 --     7 C    0.968
    50   1 H    0.993 --     9 C    0.945
    51   1 H    0.993 --    10 C    0.947
    52   1 H    0.998 --    12 C    0.967
    53   1 H    0.998 --    13 C    0.971
    54   1 H    0.998 --    14 C    0.971
    55   1 H    0.998 --    15 C    0.965
    56   1 H    0.998 --    18 C    0.976
    57   1 H    0.998 --    18 C    0.976
    58   1 H    0.996 --    18 C    0.980
    59   1 H    0.994 --    22 C    0.971
    60   1 H    0.996 --    23 C    0.973
    61   1 H    0.990 --    29 C    0.937
    62   1 H    0.880 --    31 O    0.854
    63   1 H    0.993 --    36 C    0.970
    64   1 H    0.996 --    37 C    0.973
 ---------------------------------------------------------------------------

molecular dipole:
                 x           y           z       tot (Debye)
 q only:       -0.453      -1.475       0.211
   full:       -0.301      -1.491       0.390       3.990

           -------------------------------------------------
          | TOTAL ENERGY             -119.650928355923 Eh   |
          | GRADIENT NORM               0.000495281906 Eh/Î± |
          | HOMO-LUMO GAP               2.253116170003 eV   |
           -------------------------------------------------

 * finished run on 2022/03/16 at 22:12:50.040
