   * xtb version 6.3.3 (4ae9cef) compiled by 'conda@95abc7406d43' on 2020-10-14
          program call               : xtb acid_5.xyz --opt --chrg 0 --uhf 0 --gfn 2
          number of atoms            :                    72
          number of electrons        :                   214
          charge                     :                     0
          spin                       :                   0.0

   ID    Z sym.   atoms
    1    6 C      1-14, 16-26, 28, 29, 33-43
    2    7 N      15, 32
    3    8 O      27, 30, 31, 44
    4    1 H      45-72

          :  Hamiltonian                  GFN2-xTB          :
 * total energy  :  -117.7642644 Eh     change       -0.3621480E-08 Eh
 * total energy  :  -117.7794986 Eh     change       -0.1523417E-01 Eh
 * total energy  :  -117.7843154 Eh     change       -0.4816819E-02 Eh
 * total energy  :  -117.7858307 Eh     change       -0.1515283E-02 Eh
 * total energy  :  -117.7869590 Eh     change       -0.1128311E-02 Eh
 * total energy  :  -117.7876397 Eh     change       -0.6807272E-03 Eh
 * total energy  :  -117.7882289 Eh     change       -0.5891159E-03 Eh
 * total energy  :  -117.7887721 Eh     change       -0.5432794E-03 Eh
 * total energy  :  -117.7891395 Eh     change       -0.3673240E-03 Eh
 * total energy  :  -117.7895715 Eh     change       -0.4320083E-03 Eh
 * total energy  :  -117.8030427 Eh     change       -0.1097056E-04 Eh
 * total energy  :  -117.8030534 Eh     change       -0.1071684E-04 Eh
 * total energy  :  -117.8030612 Eh     change       -0.7791815E-05 Eh
 * total energy  :  -117.8030680 Eh     change       -0.6813303E-05 Eh
 * total energy  :  -117.8030754 Eh     change       -0.7367275E-05 Eh
 * total energy  :  -117.8030832 Eh     change       -0.7788185E-05 Eh
 * total energy  :  -117.8030904 Eh     change       -0.7251583E-05 Eh
 * total energy  :  -117.8030968 Eh     change       -0.6320887E-05 Eh
 * total energy  :  -117.8031016 Eh     change       -0.4817238E-05 Eh
   *** GEOMETRY OPTIMIZATION CONVERGED AFTER 143 ITERATIONS ***

 final structure:
================
72
 xtb: 6.3.3 (4ae9cef)
C         2.22567124149822   -3.16025722980645    1.56276354221725
C         3.12172654708678   -4.02158451109034    2.16728602292340
C         3.35873940935264   -5.27164242313839    1.62104257615657
C         2.69795327382045   -5.65448856019391    0.46702641539262
C         1.80747542136738   -4.78932330254315   -0.14364025040976
C         1.56927706484096   -3.53489919468425    0.39730653405744
C         0.56670064559464   -2.61504913269758   -0.24044117721562
C        -0.73223128167634   -2.52262890440119    0.59173188077519
C        -1.77651353342736   -3.49664245524936    0.11934266360469
C        -2.43564229634672   -3.29514827256501   -1.08662274877469
C        -3.37786697585875   -4.20845858795460   -1.52302363474527
C        -3.65970024777774   -5.33409991858062   -0.76763396747922
C        -2.99501441332568   -5.54425333895083    0.42793302570057
C        -2.05819478636793   -4.62786939091071    0.87108075401454
N        -1.13137554135642   -1.12874930986824    0.43831339889074
C        -2.33600400756576   -0.64318392625187    0.84401702975754
C        -2.51291483717433    0.80058369238804    0.47366517755241
C        -3.34484786515110    1.11409161304776   -0.61838328483976
C        -3.44617427996715    2.40460086875111   -1.05580532971637
C        -2.71287772748559    3.43970190068158   -0.43782535104143
C        -2.74688266747535    4.76983554297987   -0.90609145419376
C        -2.00546781277911    5.74328381426194   -0.29745526927253
C        -1.20172864526562    5.43500584219805    0.81164870685423
C        -1.15899718006183    4.15993920254834    1.29943028301000
C        -1.90586621796331    3.13125795810240    0.68861858170818
C        -1.84190590554260    1.79704466155522    1.13526923416911
O        -3.16243992396041   -1.31829189308751    1.41301834874631
C        -0.10170950400121   -0.33332177602711   -0.18169841257871
C        -0.53915623297110    0.14918680970184   -1.58098157027928
O        -0.31808819714263    1.45168576344290   -1.73538269610743
O        -0.99276512353231   -0.55889584075587   -2.43526889006480
N         1.02199710428767   -1.23089983385437   -0.28944311825536
C         2.26402018036655   -0.86740317682922   -0.72723079093696
C         2.48037306691579    0.61475242426646   -0.71339434181326
C         2.42524466644668    1.32504623796082    0.45940416670176
C         2.53307661592871    2.72912635677445    0.46054242887975
C         2.42937718703453    3.48596504747102    1.64648517166680
C         2.48667341707644    4.85039367894484    1.60963750684883
C         2.65880780576089    5.51944404928092    0.38756388031057
C         2.77642239513538    4.81342415074536   -0.77650575254158
C         2.71664372990283    3.40450589522492   -0.77431464517400
C         2.83460952129262    2.64317168253983   -1.95576805993770
C         2.72218307993923    1.28207766155872   -1.92862423014257
O         3.09896603689295   -1.67163702944224   -1.07342222779734
H         2.04361135552858   -2.18406685749540    1.98980924229240
H         3.63678024973518   -3.71724440110258    3.06662181568859
H         4.05936237032934   -5.94413062273517    2.09334152984483
H         2.87979569699372   -6.62826918147763    0.03716471219940
H         1.29536615163858   -5.08682033429730   -1.04686616210562
H         0.33146534638676   -2.96245891492786   -1.25576748595406
H        -0.51188457939085   -2.71307557522015    1.65148822838376
H        -2.21405647571795   -2.42161201973500   -1.68215081933002
H        -3.89340503198180   -4.04092875346914   -2.45728898505554
H        -4.39721777527298   -6.04518175649489   -1.10970695254615
H        -3.21012421328613   -6.42100770547223    1.02072975329290
H        -1.54346265036770   -4.79009191617719    1.80709375452546
H        -3.88978186541967    0.31714770152019   -1.10202335678236
H        -4.08169673465849    2.64765089223543   -1.89551015324848
H        -3.36752754252921    5.00364820202319   -1.75959117118583
H        -2.03247970863827    6.75840044324833   -0.66544505858530
H        -0.61821303521093    6.21561483940309    1.27654576490650
H        -0.54227809714329    3.91830249049776    2.15275154446177
H        -1.23824794233301    1.56859553627462    2.00337899842530
H         0.15015682715524    0.55632818560143    0.40727413676729
H        -0.58168460303719    1.75215931607501   -2.62108653609595
H         2.29156703564196    0.81221934954412    1.40278752555080
H         2.29979243446702    2.96524707201146    2.58499571053732
H         2.40112376671043    5.42482041037739    2.52050862184645
H         2.70240255780010    6.59860423888360    0.37695531975658
H         2.91571988938438    5.32523419959133   -1.71793475996758
H         3.00841181217088    3.15847053758531   -2.88957971038343
H         2.80492855474950    0.69704677815647   -2.83266263388716

          :  Hamiltonian                  GFN2-xTB          :
         :: total energy            -117.803101568072 Eh    ::
         :: gradient norm              0.000389845957 Eh/a0 ::
         :: HOMO-LUMO gap              2.990413915310 eV    ::
         :: SCC energy              -119.746867121364 Eh    ::
         :: -> dispersion             -0.107844535276 Eh    ::
         :: repulsion energy           1.939885616760 Eh    ::

    * Orbital Energies and Occupations

         #    Occupation            Energy/Eh            Energy/eV
      -------------------------------------------------------------
         1        2.0000           -0.7788472             -21.1935
       ...           ...                  ...                  ...
        95        2.0000           -0.4192048             -11.4071
        96        2.0000           -0.4164146             -11.3312
        97        2.0000           -0.4149617             -11.2917
        98        2.0000           -0.4101517             -11.1608
        99        2.0000           -0.4092302             -11.1357
       100        2.0000           -0.4059130             -11.0455
       101        2.0000           -0.4054328             -11.0324
       102        2.0000           -0.4013335             -10.9208
       103        2.0000           -0.3993650             -10.8673
       104        2.0000           -0.3949692             -10.7477
       105        2.0000           -0.3933367             -10.7032
       106        2.0000           -0.3908369             -10.6352
       107        2.0000           -0.3892691             -10.5926 (HOMO)
       108                         -0.2793734              -7.6021 (LUMO)
       109                         -0.2775209              -7.5517
       110                         -0.2683236              -7.3015
       111                         -0.2489022              -6.7730
       112                         -0.2452000              -6.6722
       113                         -0.2299429              -6.2571
       114                         -0.2242771              -6.1029
       115                         -0.2220245              -6.0416
       116                         -0.2211545              -6.0179
       117                         -0.2195042              -5.9730
       118                         -0.2158030              -5.8723
       ...                                ...                  ...
       204                          0.6851014              18.6426
      -------------------------------------------------------------
                  HL-Gap            0.1098957 Eh            2.9904 eV

     #   Z          covCN         q      C6AA      Î±(0)
     1   6 C        2.924    -0.027    28.677     8.782
     2   6 C        2.920    -0.026    28.649     8.777
     3   6 C        2.921    -0.028    28.695     8.784
     4   6 C        2.920    -0.025    28.618     8.773
     5   6 C        2.924    -0.028    28.711     8.787
     6   6 C        2.974     0.015    27.673     8.629
     7   6 C        3.828     0.046    19.776     6.328
     8   6 C        3.823     0.046    19.786     6.330
     9   6 C        2.974     0.012    27.749     8.641
    10   6 C        2.923    -0.032    28.795     8.800
    11   6 C        2.920    -0.026    28.646     8.777
    12   6 C        2.920    -0.028    28.710     8.787
    13   6 C        2.920    -0.026    28.649     8.777
    14   6 C        2.924    -0.029    28.735     8.791
    15   7 N        2.768    -0.116    23.526     7.204
    16   6 C        2.760     0.272    22.407     7.752
    17   6 C        2.976    -0.023    28.566     8.767
    18   6 C        2.918    -0.027    28.680     8.782
    19   6 C        2.918    -0.035    28.880     8.812
    20   6 C        2.987     0.014    27.694     8.632
    21   6 C        2.918    -0.035    28.874     8.812
    22   6 C        2.916    -0.028    28.704     8.786
    23   6 C        2.916    -0.027    28.687     8.783
    24   6 C        2.918    -0.033    28.823     8.804
    25   6 C        2.987     0.016    27.638     8.624
    26   6 C        2.921    -0.036    28.903     8.816
    27   8 O        0.858    -0.408    21.851     6.267
    28   6 C        3.762     0.086    19.190     6.245
    29   6 C        2.688     0.349    21.078     7.514
    30   8 O        1.659    -0.370    20.285     6.080
    31   8 O        0.856    -0.380    21.284     6.185
    32   7 N        2.767    -0.119    23.592     7.214
    33   6 C        2.760     0.271    22.415     7.753
    34   6 C        2.974    -0.020    28.504     8.757
    35   6 C        2.922    -0.036    28.901     8.816
    36   6 C        2.987     0.016    27.653     8.626
    37   6 C        2.918    -0.033    28.827     8.804
    38   6 C        2.916    -0.027    28.678     8.782
    39   6 C        2.916    -0.028    28.690     8.783
    40   6 C        2.918    -0.033    28.829     8.805
    41   6 C        2.987     0.016    27.650     8.626
    42   6 C        2.918    -0.033    28.815     8.803
    43   6 C        2.918    -0.025    28.623     8.773
    44   8 O        0.858    -0.406    21.807     6.261
    45   1 H        0.926     0.027     2.632     2.537
    46   1 H        0.926     0.036     2.502     2.474
    47   1 H        0.926     0.037     2.490     2.468
    48   1 H        0.926     0.039     2.466     2.456
    49   1 H        0.926     0.036     2.504     2.475
    50   1 H        0.923     0.057     2.232     2.336
    51   1 H        0.923     0.053     2.278     2.360
    52   1 H        0.926     0.048     2.339     2.392
    53   1 H        0.926     0.036     2.500     2.473
    54   1 H        0.926     0.035     2.516     2.481
    55   1 H        0.926     0.036     2.500     2.472
    56   1 H        0.926     0.032     2.561     2.502
    57   1 H        0.926     0.045     2.389     2.417
    58   1 H        0.926     0.040     2.445     2.445
    59   1 H        0.926     0.035     2.511     2.478
    60   1 H        0.926     0.035     2.510     2.477
    61   1 H        0.926     0.035     2.519     2.482
    62   1 H        0.926     0.034     2.525     2.485
    63   1 H        0.925     0.032     2.555     2.499
    64   1 H        0.924     0.069     2.096     2.264
    65   1 H        0.804     0.344     0.602     1.219
    66   1 H        0.925     0.032     2.555     2.499
    67   1 H        0.926     0.033     2.539     2.492
    68   1 H        0.926     0.035     2.515     2.480
    69   1 H        0.926     0.035     2.516     2.481
    70   1 H        0.926     0.035     2.510     2.477
    71   1 H        0.926     0.040     2.449     2.447
    72   1 H        0.926     0.042     2.422     2.434

Wiberg/Mayer (AO) data.
largest (>0.10) Wiberg bond orders for each atom

     #   Z sym  total        # sym  WBO       # sym  WBO       # sym  WBO
 ---------------------------------------------------------------------------
     1   6 C    3.992 --     2 C    1.449     6 C    1.408    45 H    0.969
                             4 C    0.112
     2   6 C    3.992 --     1 C    1.449     3 C    1.435    46 H    0.971
                             5 C    0.110
     3   6 C    3.991 --     4 C    1.442     2 C    1.435    47 H    0.971
                             6 C    0.109
     4   6 C    3.992 --     3 C    1.442     5 C    1.442    48 H    0.971
                             1 C    0.112
     5   6 C    3.990 --     4 C    1.442     6 C    1.415    49 H    0.968
                             2 C    0.110
     6   6 C    3.985 --     5 C    1.415     1 C    1.408     7 C    0.993
                             3 C    0.109
     7   6 C    3.961 --     6 C    0.993    32 N    0.953    50 H    0.952
                             8 C    0.950
     8   6 C    3.960 --     9 C    0.991    51 H    0.953    15 N    0.952
                             7 C    0.950
     9   6 C    3.985 --    14 C    1.415    10 C    1.410     8 C    0.991
                            12 C    0.109
    10   6 C    3.990 --    11 C    1.447     9 C    1.410    52 H    0.963
                            13 C    0.112
    11   6 C    3.992 --    10 C    1.447    12 C    1.437    53 H    0.971
                            14 C    0.111
    12   6 C    3.991 --    13 C    1.440    11 C    1.437    54 H    0.971
                             9 C    0.109
    13   6 C    3.992 --    14 C    1.442    12 C    1.440    55 H    0.971
                            10 C    0.112
    14   6 C    3.990 --    13 C    1.442     9 C    1.415    56 H    0.969
                            11 C    0.111
    15   7 N    3.459 --    16 C    1.202    28 C    0.988     8 C    0.952
                            27 O    0.194
    16   6 C    3.946 --    27 O    1.710    15 N    1.202    17 C    0.952
    17   6 C    3.987 --    26 C    1.516    18 C    1.290    16 C    0.952
    18   6 C    3.990 --    19 C    1.556    17 C    1.290    57 H    0.969
    19   6 C    3.991 --    18 C    1.556    20 C    1.280    58 H    0.967
                            26 C    0.116
    20   6 C    3.990 --    21 C    1.280    19 C    1.280    25 C    1.249
    21   6 C    3.992 --    22 C    1.558    20 C    1.280    59 H    0.968
                            24 C    0.118
    22   6 C    3.990 --    21 C    1.558    23 C    1.319    60 H    0.971
    23   6 C    3.992 --    24 C    1.559    22 C    1.319    61 H    0.971
    24   6 C    3.990 --    23 C    1.559    25 C    1.277    62 H    0.967
                            21 C    0.118
    25   6 C    3.990 --    26 C    1.284    24 C    1.277    20 C    1.249
    26   6 C    3.991 --    17 C    1.516    25 C    1.284    63 H    0.965
                            19 C    0.116
    27   8 O    2.034 --    16 C    1.710    15 N    0.194
    28   6 C    3.971 --    15 N    0.988    32 N    0.984    64 H    0.938
                            29 C    0.905
    29   6 C    3.915 --    31 O    1.779    30 O    1.152    28 C    0.905
    30   8 O    2.216 --    29 C    1.152    65 H    0.854    31 O    0.182
    31   8 O    2.067 --    29 C    1.779    30 O    0.182
    32   7 N    3.449 --    33 C    1.187    28 C    0.984     7 C    0.953
                            44 O    0.187
    33   6 C    3.944 --    44 O    1.713    32 N    1.187    34 C    0.961
    34   6 C    3.987 --    35 C    1.510    43 C    1.293    33 C    0.961
    35   6 C    3.991 --    34 C    1.510    36 C    1.286    66 H    0.965
                            42 C    0.116
    36   6 C    3.990 --    35 C    1.286    37 C    1.276    41 C    1.248
    37   6 C    3.990 --    38 C    1.559    36 C    1.276    67 H    0.968
                            40 C    0.118
    38   6 C    3.992 --    37 C    1.559    39 C    1.319    68 H    0.971
    39   6 C    3.990 --    40 C    1.558    38 C    1.319    69 H    0.971
    40   6 C    3.992 --    39 C    1.558    41 C    1.280    70 H    0.968
                            37 C    0.118
    41   6 C    3.990 --    40 C    1.280    42 C    1.280    36 C    1.248
    42   6 C    3.991 --    43 C    1.557    41 C    1.280    71 H    0.967
                            35 C    0.116
    43   6 C    3.990 --    42 C    1.557    34 C    1.293    72 H    0.969
    44   8 O    2.036 --    33 C    1.713    32 N    0.187
    45   1 H    0.999 --     1 C    0.969
    46   1 H    0.998 --     2 C    0.971
    47   1 H    0.998 --     3 C    0.971
    48   1 H    0.998 --     4 C    0.971
    49   1 H    0.999 --     5 C    0.968
    50   1 H    0.996 --     7 C    0.952
    51   1 H    0.996 --     8 C    0.953
    52   1 H    0.998 --    10 C    0.963
    53   1 H    0.998 --    11 C    0.971
    54   1 H    0.998 --    12 C    0.971
    55   1 H    0.998 --    13 C    0.971
    56   1 H    0.999 --    14 C    0.969
    57   1 H    0.998 --    18 C    0.969
    58   1 H    0.997 --    19 C    0.967
    59   1 H    0.998 --    21 C    0.968
    60   1 H    0.998 --    22 C    0.971
    61   1 H    0.998 --    23 C    0.971
    62   1 H    0.998 --    24 C    0.967
    63   1 H    0.998 --    26 C    0.965
    64   1 H    0.995 --    28 C    0.938
    65   1 H    0.881 --    30 O    0.854
    66   1 H    0.998 --    35 C    0.965
    67   1 H    0.998 --    37 C    0.968
    68   1 H    0.998 --    38 C    0.971
    69   1 H    0.998 --    39 C    0.971
    70   1 H    0.998 --    40 C    0.968
    71   1 H    0.997 --    42 C    0.967
    72   1 H    0.998 --    43 C    0.969
 ---------------------------------------------------------------------------

molecular dipole:
                 x           y           z       tot (Debye)
 q only:        0.232       1.507      -0.089
   full:        0.249       1.976      -0.240       5.098

           -------------------------------------------------
          | TOTAL ENERGY             -117.803101568072 Eh   |
          | GRADIENT NORM               0.000389845957 Eh/Î± |
          | HOMO-LUMO GAP               2.990413915310 eV   |
           -------------------------------------------------

 * finished run on 2022/03/17 at 01:46:27.854
