   * xtb version 6.3.3 (4ae9cef) compiled by 'conda@95abc7406d43' on 2020-10-14
          program call               : xtb acid_237.xyz --opt --chrg 0 --uhf 0 --gfn 2
          number of atoms            :                    60
          number of electrons        :                   190
          charge                     :                     0
          spin                       :                   0.0

   ID    Z sym.   atoms
    1    6 C      1-14, 16-20, 22, 23, 25, 26, 30-34, 36, 37
    2    7 N      15, 29
    3   17 Cl     21, 35
    4    8 O      24, 27, 28, 38
    5    1 H      39-60

          :  Hamiltonian                  GFN2-xTB          :
 * total energy  :  -106.6772896 Eh     change       -0.5943733E-08 Eh
 * total energy  :  -106.6889590 Eh     change       -0.1166936E-01 Eh
 * total energy  :  -106.6922307 Eh     change       -0.3271759E-02 Eh
 * total energy  :  -106.6938795 Eh     change       -0.1648744E-02 Eh
 * total energy  :  -106.6950588 Eh     change       -0.1179350E-02 Eh
 * total energy  :  -106.6958608 Eh     change       -0.8019221E-03 Eh
 * total energy  :  -106.6965965 Eh     change       -0.7357014E-03 Eh
 * total energy  :  -106.6971953 Eh     change       -0.5988696E-03 Eh
 * total energy  :  -106.6979122 Eh     change       -0.7168517E-03 Eh
 * total energy  :  -106.6986494 Eh     change       -0.7372535E-03 Eh
 * total energy  :  -106.7034317 Eh     change       -0.7399533E-05 Eh
 * total energy  :  -106.7034397 Eh     change       -0.7969182E-05 Eh
 * total energy  :  -106.7034458 Eh     change       -0.6102744E-05 Eh
 * total energy  :  -106.7034588 Eh     change       -0.1299626E-04 Eh
 * total energy  :  -106.7034685 Eh     change       -0.9699265E-05 Eh
 * total energy  :  -106.7034804 Eh     change       -0.1192538E-04 Eh
 * total energy  :  -106.7034912 Eh     change       -0.1078896E-04 Eh
 * total energy  :  -106.7034980 Eh     change       -0.6736454E-05 Eh
 * total energy  :  -106.7035030 Eh     change       -0.4996801E-05 Eh
   *** GEOMETRY OPTIMIZATION CONVERGED AFTER 54 ITERATIONS ***

 final structure:
================
60
 xtb: 6.3.3 (4ae9cef)
C         1.05860054593234   -3.94501215618978    1.01405178150091
C         1.51690743785320   -4.70439998118803    2.07584215055983
C         1.78863529990068   -4.10330517330126    3.29247970128492
C         1.59468566764919   -2.74090715185244    3.44647976204311
C         1.13005238404100   -1.97998287144113    2.38923957997245
C         0.86678257518172   -2.57987623752118    1.16400938760444
C         0.33478395561753   -1.76190821516677    0.01728098668647
C        -1.11439275278867   -1.30411149236933    0.26377620695186
C        -2.10537280155368   -2.14991201859212   -0.48930923605945
C        -2.83587333827860   -3.12343482813779    0.17545015921120
C        -3.71979172747014   -3.92809618509964   -0.52114592162660
C        -3.88260910994868   -3.76389758032702   -1.88582717680568
C        -3.15318481868622   -2.79565105854476   -2.55452824018664
C        -2.26361344769065   -1.99668383925680   -1.86031916414794
N        -1.12814303092287    0.08404297329674   -0.18569820842129
C        -2.27158070605942    0.81898406918565   -0.05824258333050
C        -2.13291933776310    2.25657099521210   -0.45155641476045
C        -1.78692700572810    2.61634331955682   -1.75025155677504
C        -1.67553194022054    3.94990562311509   -2.10031635434009
C        -1.91018094199201    4.92683836792380   -1.14300071653673
Cl       -1.74611587670395    6.58990710038089   -1.57242099399143
C        -2.28166320003403    4.58167654752164    0.14776240704330
C        -2.40262373477151    3.24654922735187    0.48606664041755
O        -3.31248463778992    0.33234984413029    0.31757057116025
C         0.20211614365751    0.63226084653571   -0.30943275941775
C         0.46220998080194    1.66224313311903    0.82581180388362
O         0.73679431327409    2.91348639577537    0.45115072486435
O         0.39452990840698    1.35050143092308    1.97664456496787
N         1.06607766094297   -0.51308521845264   -0.16743707314669
C         2.42442568510230   -0.48380628778939   -0.21247454462905
C         2.99584370136803    0.90143800765230   -0.29214388831156
C         3.01268218806681    1.61038466737752   -1.48779443714064
C         3.54548334461197    2.88671574236811   -1.53534093925614
C         4.06477450782640    3.45096364135944   -0.37925781974210
Cl        4.70915658395286    5.04999474527232   -0.43332769041012
C         4.07664003532922    2.74374190632777    0.81325827355110
C         3.54736702032305    1.46703496041725    0.85148875809169
O         3.10157181905224   -1.48420585078386   -0.17430005538260
H         0.85198291479100   -4.41298174036308    0.06257221451434
H         1.66710477426488   -5.76635326790180    1.95028825807793
H         2.15286364616979   -4.69510496561891    4.11918639986193
H         1.80482395005897   -2.26794970125026    4.39433978733474
H         0.97716874653601   -0.91737854365631    2.51448246456833
H         0.39708968007453   -2.34879978071502   -0.90962239817864
H        -1.34591414983473   -1.33640192350142    1.33638424909914
H        -2.71273508526389   -3.24726623951854    1.24103072760643
H        -4.28698251951628   -4.68167998394495    0.00430793289181
H        -4.57790931068464   -4.38715664253381   -2.42797804762706
H        -3.27726644098680   -2.66303401047314   -3.61925372248204
H        -1.69383808131634   -1.24194059556176   -2.38435021730780
H        -1.63189975070512    1.85262500196697   -2.49901069629328
H        -1.41737774148995    4.23410857274197   -3.10847892761712
H        -2.47789451933336    5.35077004508678    0.87720749570765
H        -2.69901304987475    2.96261014136902    1.48365457697633
H         0.34063324662896    1.11339408860040   -1.29486259704961
H         0.77901690648766    3.04932982441249   -0.50560866054157
H         2.62636663999736    1.15767851165033   -2.39008957515999
H         3.56600918029220    3.43981257626849   -2.46128002304350
H         4.49580510521717    3.18839946470438    1.70126763663691
H         3.55485650799961    0.90366376946108    1.77157143665082

          :  Hamiltonian                  GFN2-xTB          :
         :: total energy            -106.703502951390 Eh    ::
         :: gradient norm              0.000468468169 Eh/a0 ::
         :: HOMO-LUMO gap              3.173356025101 eV    ::
         :: SCC energy              -108.239221330138 Eh    ::
         :: -> dispersion             -0.088920780316 Eh    ::
         :: repulsion energy           1.533442085987 Eh    ::

    * Orbital Energies and Occupations

         #    Occupation            Energy/Eh            Energy/eV
      -------------------------------------------------------------
         1        2.0000           -1.0710023             -29.1435
       ...           ...                  ...                  ...
        83        2.0000           -0.4327683             -11.7762
        84        2.0000           -0.4324586             -11.7678
        85        2.0000           -0.4255151             -11.5789
        86        2.0000           -0.4238655             -11.5340
        87        2.0000           -0.4209051             -11.4534
        88        2.0000           -0.4177717             -11.3681
        89        2.0000           -0.4176009             -11.3635
        90        2.0000           -0.4156419             -11.3102
        91        2.0000           -0.4143504             -11.2750
        92        2.0000           -0.4110115             -11.1842
        93        2.0000           -0.4072643             -11.0822
        94        2.0000           -0.4047350             -11.0134
        95        2.0000           -0.3992247             -10.8635 (HOMO)
        96                         -0.2826060              -7.6901 (LUMO)
        97                         -0.2728124              -7.4236
        98                         -0.2639364              -7.1821
        99                         -0.2625667              -7.1448
       100                         -0.2613078              -7.1105
       101                         -0.2374686              -6.4618
       102                         -0.2330814              -6.3425
       103                         -0.2321322              -6.3166
       104                         -0.2264837              -6.1629
       105                         -0.2257727              -6.1436
       106                         -0.2247966              -6.1170
       ...                                ...                  ...
       184                          0.6636031              18.0576
      -------------------------------------------------------------
                  HL-Gap            0.1166187 Eh            3.1734 eV

     #   Z          covCN         q      C6AA      Î±(0)
     1   6 C        2.924    -0.029    28.717     8.788
     2   6 C        2.920    -0.025    28.635     8.775
     3   6 C        2.920    -0.028    28.692     8.784
     4   6 C        2.920    -0.025    28.638     8.776
     5   6 C        2.923    -0.034    28.838     8.806
     6   6 C        2.975     0.011    27.778     8.645
     7   6 C        3.820     0.046    19.796     6.332
     8   6 C        3.826     0.045    19.798     6.331
     9   6 C        2.974     0.012    27.734     8.638
    10   6 C        2.924    -0.028    28.697     8.785
    11   6 C        2.920    -0.024    28.604     8.770
    12   6 C        2.921    -0.028    28.691     8.784
    13   6 C        2.920    -0.027    28.669     8.780
    14   6 C        2.924    -0.030    28.755     8.794
    15   7 N        2.764    -0.118    23.567     7.210
    16   6 C        2.764     0.272    22.404     7.752
    17   6 C        2.974    -0.025    28.634     8.777
    18   6 C        2.923    -0.037    28.915     8.818
    19   6 C        2.955    -0.044    29.102     8.848
    20   6 C        2.888     0.101    25.757     8.321
    21  17 Cl       0.968    -0.160   104.158    15.614
    22   6 C        2.954    -0.033    28.815     8.804
    23   6 C        2.925    -0.016    28.417     8.742
    24   8 O        0.859    -0.397    21.628     6.235
    25   6 C        3.747     0.080    19.308     6.268
    26   6 C        2.686     0.344    21.162     7.528
    27   8 O        1.659    -0.357    20.031     6.042
    28   8 O        0.856    -0.338    20.490     6.069
    29   7 N        2.765    -0.113    23.466     7.195
    30   6 C        2.762     0.272    22.402     7.751
    31   6 C        2.976    -0.026    28.639     8.778
    32   6 C        2.923    -0.037    28.911     8.818
    33   6 C        2.956    -0.044    29.093     8.847
    34   6 C        2.888     0.102    25.735     8.317
    35  17 Cl       0.969    -0.159   104.148    15.613
    36   6 C        2.954    -0.031    28.781     8.799
    37   6 C        2.925    -0.018    28.453     8.748
    38   8 O        0.859    -0.400    21.686     6.244
    39   1 H        0.926     0.033     2.538     2.491
    40   1 H        0.926     0.038     2.473     2.459
    41   1 H        0.926     0.037     2.486     2.466
    42   1 H        0.926     0.039     2.465     2.455
    43   1 H        0.926     0.048     2.343     2.394
    44   1 H        0.923     0.056     2.252     2.347
    45   1 H        0.924     0.064     2.149     2.292
    46   1 H        0.926     0.039     2.461     2.453
    47   1 H        0.926     0.041     2.432     2.439
    48   1 H        0.926     0.039     2.464     2.455
    49   1 H        0.926     0.037     2.495     2.470
    50   1 H        0.926     0.024     2.673     2.557
    51   1 H        0.926     0.044     2.397     2.421
    52   1 H        0.926     0.063     2.165     2.301
    53   1 H        0.926     0.072     2.068     2.249
    54   1 H        0.926     0.068     2.110     2.271
    55   1 H        0.922     0.035     2.512     2.479
    56   1 H        0.805     0.327     0.644     1.261
    57   1 H        0.926     0.043     2.406     2.426
    58   1 H        0.926     0.063     2.167     2.302
    59   1 H        0.926     0.072     2.066     2.248
    60   1 H        0.926     0.064     2.148     2.292

Wiberg/Mayer (AO) data.
largest (>0.10) Wiberg bond orders for each atom

     #   Z sym  total        # sym  WBO       # sym  WBO       # sym  WBO
 ---------------------------------------------------------------------------
     1   6 C    3.990 --     2 C    1.441     6 C    1.416    39 H    0.968
                             4 C    0.111
     2   6 C    3.992 --     1 C    1.441     3 C    1.441    40 H    0.971
                             5 C    0.112
     3   6 C    3.991 --     2 C    1.441     4 C    1.436    41 H    0.971
                             6 C    0.109
     4   6 C    3.992 --     5 C    1.447     3 C    1.436    42 H    0.971
                             1 C    0.111
     5   6 C    3.990 --     4 C    1.447     6 C    1.410    43 H    0.964
                             2 C    0.112
     6   6 C    3.984 --     1 C    1.416     5 C    1.410     7 C    0.989
                             3 C    0.109
     7   6 C    3.958 --     6 C    0.989     8 C    0.955    44 H    0.953
                            29 N    0.949
     8   6 C    3.958 --     9 C    0.990     7 C    0.955    45 H    0.952
                            15 N    0.951
     9   6 C    3.985 --    10 C    1.414    14 C    1.411     8 C    0.990
                            12 C    0.109
    10   6 C    3.990 --    11 C    1.443     9 C    1.414    46 H    0.968
                            13 C    0.111
    11   6 C    3.992 --    10 C    1.443    12 C    1.440    47 H    0.970
                            14 C    0.111
    12   6 C    3.991 --    11 C    1.440    13 C    1.437    48 H    0.971
                             9 C    0.109
    13   6 C    3.992 --    14 C    1.447    12 C    1.437    49 H    0.971
                            10 C    0.111
    14   6 C    3.992 --    13 C    1.447     9 C    1.411    50 H    0.969
                            11 C    0.111
    15   7 N    3.445 --    16 C    1.188    25 C    0.987     8 C    0.951
                            24 O    0.189
    16   6 C    3.949 --    24 O    1.716    15 N    1.188    17 C    0.963
    17   6 C    3.987 --    23 C    1.401    18 C    1.396    16 C    0.963
    18   6 C    3.990 --    19 C    1.448    17 C    1.396    51 H    0.967
                            22 C    0.107
    19   6 C    3.988 --    18 C    1.448    20 C    1.395    52 H    0.966
                            23 C    0.107
    20   6 C    3.922 --    22 C    1.402    19 C    1.395    21 Cl   0.987
    21  17 Cl   1.128 --    20 C    0.987
    22   6 C    3.987 --    23 C    1.445    20 C    1.402    53 H    0.965
                            18 C    0.107
    23   6 C    3.988 --    22 C    1.445    17 C    1.401    54 H    0.966
                            19 C    0.107
    24   8 O    2.045 --    16 C    1.716    15 N    0.189
    25   6 C    3.974 --    29 N    0.990    15 N    0.987    55 H    0.942
                            26 C    0.897
    26   6 C    3.921 --    28 O    1.806    27 O    1.140    25 C    0.897
    27   8 O    2.225 --    26 C    1.140    56 H    0.862    28 O    0.169
    28   8 O    2.099 --    26 C    1.806    27 O    0.169
    29   7 N    3.462 --    30 C    1.204    25 C    0.990     7 C    0.949
                            38 O    0.196
    30   6 C    3.949 --    38 O    1.712    29 N    1.204    31 C    0.952
    31   6 C    3.987 --    32 C    1.402    37 C    1.400    30 C    0.952
    32   6 C    3.990 --    33 C    1.444    31 C    1.402    57 H    0.968
                            36 C    0.108
    33   6 C    3.988 --    32 C    1.444    34 C    1.397    58 H    0.966
                            37 C    0.108
    34   6 C    3.922 --    36 C    1.401    33 C    1.397    35 Cl   0.987
    35  17 Cl   1.128 --    34 C    0.987
    36   6 C    3.988 --    37 C    1.445    34 C    1.401    59 H    0.965
                            32 C    0.108
    37   6 C    3.989 --    36 C    1.445    31 C    1.400    60 H    0.967
                            33 C    0.108
    38   8 O    2.044 --    30 C    1.712    29 N    0.196
    39   1 H    0.999 --     1 C    0.968
    40   1 H    0.998 --     2 C    0.971
    41   1 H    0.998 --     3 C    0.971
    42   1 H    0.998 --     4 C    0.971
    43   1 H    0.998 --     5 C    0.964
    44   1 H    0.996 --     7 C    0.953
    45   1 H    0.995 --     8 C    0.952
    46   1 H    0.998 --    10 C    0.968
    47   1 H    0.998 --    11 C    0.970
    48   1 H    0.998 --    12 C    0.971
    49   1 H    0.998 --    13 C    0.971
    50   1 H    0.999 --    14 C    0.969
    51   1 H    0.998 --    18 C    0.967
    52   1 H    0.995 --    19 C    0.966
    53   1 H    0.994 --    22 C    0.965
    54   1 H    0.995 --    23 C    0.966
    55   1 H    0.998 --    25 C    0.942
    56   1 H    0.893 --    27 O    0.862
    57   1 H    0.998 --    32 C    0.968
    58   1 H    0.995 --    33 C    0.966
    59   1 H    0.994 --    36 C    0.965
    60   1 H    0.996 --    37 C    0.967
 ---------------------------------------------------------------------------

molecular dipole:
                 x           y           z       tot (Debye)
 q only:       -0.285      -0.776      -0.832
   full:       -0.087       0.085      -1.318       3.364

           -------------------------------------------------
          | TOTAL ENERGY             -106.703502951390 Eh   |
          | GRADIENT NORM               0.000468468169 Eh/Î± |
          | HOMO-LUMO GAP               3.173356025101 eV   |
           -------------------------------------------------

 * finished run on 2022/03/16 at 22:49:12.737
