   * xtb version 6.3.3 (4ae9cef) compiled by 'conda@95abc7406d43' on 2020-10-14
          program call               : xtb acid_203.xyz --opt --chrg 0 --uhf 0 --gfn 2
          number of atoms            :                    60
          number of electrons        :                   230
          charge                     :                     0
          spin                       :                   0.0

   ID    Z sym.   atoms
    1    6 C      1, 2, 6-15, 19-22, 24-28, 32, 33, 37-41
    2    9 F      3-5, 16-18
    3    7 N      23, 36
    4   17 Cl     29, 42
    5    8 O      30, 31, 34, 35, 43, 44
    6    1 H      45-60

          :  Hamiltonian                  GFN2-xTB          :
 * total energy  :  -135.8990463 Eh     change       -0.1066010E-07 Eh
 * total energy  :  -135.9170355 Eh     change       -0.1798921E-01 Eh
 * total energy  :  -135.9232075 Eh     change       -0.6172061E-02 Eh
 * total energy  :  -135.9250846 Eh     change       -0.1877050E-02 Eh
 * total energy  :  -135.9261374 Eh     change       -0.1052789E-02 Eh
 * total energy  :  -135.9266294 Eh     change       -0.4920672E-03 Eh
 * total energy  :  -135.9269443 Eh     change       -0.3148642E-03 Eh
 * total energy  :  -135.9272179 Eh     change       -0.2735866E-03 Eh
 * total energy  :  -135.9274645 Eh     change       -0.2465745E-03 Eh
 * total energy  :  -135.9276906 Eh     change       -0.2261550E-03 Eh
 * total energy  :  -135.9285251 Eh     change       -0.1459506E-04 Eh
 * total energy  :  -135.9285340 Eh     change       -0.8928663E-05 Eh
 * total energy  :  -135.9285372 Eh     change       -0.3212548E-05 Eh
 * total energy  :  -135.9285348 Eh     change        0.2475645E-05 Eh
 * total energy  :  -135.9285412 Eh     change       -0.6392796E-05 Eh
 * total energy  :  -135.9285472 Eh     change       -0.6011395E-05 Eh
 * total energy  :  -135.9285396 Eh     change        0.7590719E-05 Eh
 * total energy  :  -135.9285491 Eh     change       -0.9509651E-05 Eh
 * total energy  :  -135.9285535 Eh     change       -0.4453962E-05 Eh
   *** GEOMETRY OPTIMIZATION CONVERGED AFTER 29 ITERATIONS ***

 final structure:
================
60
 xtb: 6.3.3 (4ae9cef)
C         2.64056950905999   -1.59111213381565    0.30594341131487
C         2.51247999505121   -2.23204716864457   -1.05145012046419
F         2.62273359430743   -1.36018429830938   -2.07094212953060
F         3.44319829012547   -3.16683975713637   -1.27030859718347
F         1.32444666253937   -2.84415209236570   -1.22066017640340
C         3.66261851547246   -2.02973546773981    1.14231677414625
C         3.80604717577157   -1.50197642758212    2.41121557548972
C         2.91164594501584   -0.54547727465741    2.86043144600995
C         1.89728122139172   -0.10877941227518    2.03090163218251
C         1.75414697817622   -0.60002583807022    0.73544827571506
C         0.62914392489877   -0.06294439238329   -0.11952951079274
C        -0.73737560027420   -0.55039729825214    0.42249431032774
C        -1.26151480198289   -1.80240450176436   -0.24219949416773
C        -1.82202130261399   -1.88814783586662   -1.51882301953174
C        -2.05911794746652   -0.70253712540991   -2.42054522361383
F        -3.20995682175932   -0.07840104841782   -2.14999458953483
F        -1.07741625413625    0.21662957132640   -2.38021236015157
F        -2.13225872311909   -1.06807124174552   -3.71388247470468
C        -2.26408277734915   -3.11448988786145   -2.00583313401118
C        -2.13067860369947   -4.26711362486309   -1.25847041898898
C        -1.55605067777812   -4.19785402040486   -0.00316321812455
C        -1.13434285147799   -2.97982947867428    0.49021167263568
N        -1.59789654117272    0.61999541522145    0.34785849954501
C        -2.92060042214093    0.48207835429673    0.66087284447096
C        -3.73033973376073    1.69606883940122    0.78896934173257
C        -5.09331063137707    1.79753867891109    0.68574178032488
C        -5.41637829202704    3.15517967627825    0.89007647160121
C        -4.22400295078884    3.77988463086053    1.11506909493743
Cl       -3.85822335767654    5.39993584917799    1.44722653344654
O        -3.19694120735968    2.91738172961070    1.06551498878383
O        -3.40669348494516   -0.62054111501508    0.82962135212999
C        -0.84092284182405    1.83576301917228    0.23754330558172
C        -1.41226042546616    2.78774327593818   -0.87838578749904
O        -0.83532614140993    3.96775847940181   -0.92950777425874
O        -2.32616764069263    2.46840185789038   -1.57405526861425
N         0.52172847263405    1.38932397240119   -0.02803888147705
C         1.54960819200014    2.25407813635492    0.06306683144107
C         2.89474566386365    1.70751585797189   -0.24906536272017
C         3.42734333235820    1.30635277155693   -1.44041721372942
C         4.77802241551565    0.97197095386227   -1.18032799626142
C         4.95924784065805    1.20872657478333    0.14943353560347
Cl        6.30421819999944    0.97801974207649    1.15420465887110
O         3.83661491083673    1.67004569644901    0.72322648317866
O         1.38242269313772    3.43347313487298    0.34715262320597
H         4.34804162144557   -2.78555118783070    0.79273949444097
H         4.61033774986725   -1.83972126857209    3.04479643307634
H         3.00676490992416   -0.13383557414592    3.85299270386010
H         1.21403349612325    0.64868645729476    2.38513962668622
H         0.75471218917068   -0.34843548194337   -1.16564869835455
H        -0.61579760332553   -0.80251765264772    1.48868834079808
H        -2.71412143560497   -3.15991541466781   -2.98529302901487
H        -2.47751587890235   -5.20826821996308   -1.65473727326935
H        -1.44331805574980   -5.08773124514065    0.59652698363400
H        -0.69879933344970   -2.93519815380001    1.47754181737557
H        -5.76212825987778    0.99036258040564    0.47332767672604
H        -6.38433550412137    3.60930531181570    0.87087193021608
H        -0.84715980375006    2.41534758646353    1.18087361183192
H        -0.03384771209567    4.04262061156770   -0.34934433841764
H         2.92617079178413    1.25256055910431   -2.38413601374230
H         5.50258232804891    0.61148731549420   -1.87857995676320

          :  Hamiltonian                  GFN2-xTB          :
         :: total energy            -135.928553549004 Eh    ::
         :: gradient norm              0.000696933840 Eh/a0 ::
         :: HOMO-LUMO gap              2.951648202085 eV    ::
         :: SCC energy              -137.301769683114 Eh    ::
         :: -> dispersion             -0.097278459556 Eh    ::
         :: repulsion energy           1.369992755913 Eh    ::

    * Orbital Energies and Occupations

         #    Occupation            Energy/Eh            Energy/eV
      -------------------------------------------------------------
         1        2.0000           -1.0885514             -29.6210
       ...           ...                  ...                  ...
       103        2.0000           -0.4605240             -12.5315
       104        2.0000           -0.4565428             -12.4232
       105        2.0000           -0.4553586             -12.3909
       106        2.0000           -0.4516572             -12.2902
       107        2.0000           -0.4496155             -12.2347
       108        2.0000           -0.4456686             -12.1273
       109        2.0000           -0.4399581             -11.9719
       110        2.0000           -0.4383888             -11.9292
       111        2.0000           -0.4354144             -11.8482
       112        2.0000           -0.4194368             -11.4135
       113        2.0000           -0.4154162             -11.3041
       114        2.0000           -0.4124768             -11.2241
       115        2.0000           -0.4024584             -10.9515 (HOMO)
       116                         -0.2939874              -7.9998 (LUMO)
       117                         -0.2846854              -7.7467
       118                         -0.2811253              -7.6498
       119                         -0.2771628              -7.5420
       120                         -0.2648293              -7.2064
       121                         -0.2559977              -6.9661
       122                         -0.2487790              -6.7696
       123                         -0.2469927              -6.7210
       124                         -0.2103010              -5.7226
       125                         -0.2031542              -5.5281
       126                         -0.1696558              -4.6166
       ...                                ...                  ...
       202                          0.6843475              18.6220
      -------------------------------------------------------------
                  HL-Gap            0.1084711 Eh            2.9516 eV

     #   Z          covCN         q      C6AA      Î±(0)
     1   6 C        2.975    -0.035    28.869     8.813
     2   6 C        3.335     0.484    17.329     6.595
     3   9 F        0.791    -0.209    11.333     3.977
     4   9 F        0.792    -0.196    11.192     3.952
     5   9 F        0.791    -0.213    11.370     3.983
     6   6 C        2.923    -0.023    28.571     8.766
     7   6 C        2.920    -0.020    28.496     8.754
     8   6 C        2.918    -0.014    28.372     8.735
     9   6 C        2.927    -0.027    28.664     8.780
    10   6 C        2.970     0.004    27.922     8.668
    11   6 C        3.811     0.033    20.013     6.368
    12   6 C        3.831     0.052    19.684     6.313
    13   6 C        2.965     0.025    27.443     8.593
    14   6 C        2.975    -0.020    28.506     8.758
    15   6 C        3.337     0.489    17.231     6.572
    16   9 F        0.791    -0.192    11.157     3.946
    17   9 F        0.791    -0.215    11.396     3.988
    18   9 F        0.793    -0.207    11.307     3.972
    19   6 C        2.928    -0.018    28.463     8.749
    20   6 C        2.920    -0.019    28.484     8.752
    21   6 C        2.919    -0.015    28.389     8.737
    22   6 C        2.932    -0.023    28.591     8.769
    23   7 N        2.756    -0.106    23.316     7.172
    24   6 C        2.761     0.272    22.411     7.753
    25   6 C        3.110     0.088    25.899     8.337
    26   6 C        3.033    -0.036    28.873     8.814
    27   6 C        3.018    -0.068    29.678     8.936
    28   6 C        3.046     0.207    23.580     7.964
    29  17 Cl       0.921    -0.105   102.427    15.483
    30   8 O        1.741    -0.196    17.261     5.610
    31   8 O        0.860    -0.419    22.056     6.297
    32   6 C        3.749     0.077    19.364     6.276
    33   6 C        2.681     0.360    20.888     7.479
    34   8 O        1.656    -0.359    20.077     6.049
    35   8 O        0.856    -0.344    20.597     6.085
    36   7 N        2.761    -0.097    23.145     7.145
    37   6 C        2.759     0.269    22.456     7.760
    38   6 C        3.124     0.080    26.030     8.355
    39   6 C        3.028    -0.058    29.420     8.897
    40   6 C        3.024    -0.073    29.793     8.953
    41   6 C        3.049     0.196    23.796     8.000
    42  17 Cl       0.921    -0.112   102.632    15.499
    43   8 O        1.742    -0.171    16.882     5.548
    44   8 O        0.859    -0.428    22.254     6.325
    45   1 H        0.926     0.073     2.050     2.239
    46   1 H        0.926     0.066     2.129     2.282
    47   1 H        0.926     0.065     2.137     2.286
    48   1 H        0.926     0.053     2.278     2.360
    49   1 H        0.924     0.080     1.978     2.199
    50   1 H        0.923     0.057     2.230     2.335
    51   1 H        0.926     0.071     2.070     2.250
    52   1 H        0.926     0.061     2.187     2.313
    53   1 H        0.926     0.059     2.216     2.328
    54   1 H        0.926     0.046     2.374     2.409
    55   1 H        0.927     0.086     1.914     2.163
    56   1 H        0.927     0.077     2.011     2.217
    57   1 H        0.922     0.069     2.096     2.264
    58   1 H        0.801     0.365     0.554     1.169
    59   1 H        0.927     0.077     2.007     2.215
    60   1 H        0.927     0.079     1.994     2.208

Wiberg/Mayer (AO) data.
largest (>0.10) Wiberg bond orders for each atom

     #   Z sym  total        # sym  WBO       # sym  WBO       # sym  WBO
 ---------------------------------------------------------------------------
     1   6 C    3.970 --     6 C    1.411    10 C    1.386     2 C    0.949
                             8 C    0.104
     2   6 C    3.824 --     4 F    0.959     1 C    0.949     3 F    0.940
                             5 F    0.939
     3   9 F    1.071 --     2 C    0.940
     4   9 F    1.083 --     2 C    0.959
     5   9 F    1.067 --     2 C    0.939
     6   6 C    3.986 --     7 C    1.445     1 C    1.411    45 H    0.965
                             9 C    0.108
     7   6 C    3.987 --     6 C    1.445     8 C    1.429    46 H    0.968
                            10 C    0.108
     8   6 C    3.988 --     9 C    1.451     7 C    1.429    47 H    0.968
                             1 C    0.104
     9   6 C    3.990 --     8 C    1.451    10 C    1.405    48 H    0.966
                             6 C    0.108
    10   6 C    3.986 --     9 C    1.405     1 C    1.386    11 C    0.993
                             7 C    0.108
    11   6 C    3.963 --    10 C    0.993    36 N    0.960    49 H    0.951
                            12 C    0.948
    12   6 C    3.968 --    13 C    0.993    23 N    0.964    11 C    0.948
                            50 H    0.948
    13   6 C    3.985 --    22 C    1.405    14 C    1.389    12 C    0.993
                            20 C    0.108
    14   6 C    3.973 --    19 C    1.412    13 C    1.389    15 C    0.949
                            21 C    0.106
    15   6 C    3.826 --    16 F    0.957    14 C    0.949    18 F    0.945
                            17 F    0.938
    16   9 F    1.091 --    15 C    0.957
    17   9 F    1.065 --    15 C    0.938
    18   9 F    1.068 --    15 C    0.945
    19   6 C    3.987 --    20 C    1.445    14 C    1.412    51 H    0.965
                            22 C    0.109
    20   6 C    3.988 --    19 C    1.445    21 C    1.432    52 H    0.968
                            13 C    0.108
    21   6 C    3.990 --    22 C    1.450    20 C    1.432    53 H    0.968
                            14 C    0.106
    22   6 C    3.989 --    21 C    1.450    13 C    1.405    54 H    0.966
                            19 C    0.109
    23   7 N    3.452 --    24 C    1.181    32 C    1.000    12 C    0.964
                            31 O    0.182
    24   6 C    3.960 --    31 O    1.655    23 N    1.181    25 C    1.029
    25   6 C    3.893 --    26 C    1.533    30 O    1.070    24 C    1.029
                            28 C    0.125
    26   6 C    3.982 --    25 C    1.533    27 C    1.310    55 H    0.968
    27   6 C    3.974 --    28 C    1.528    26 C    1.310    56 H    0.970
    28   6 C    3.866 --    27 C    1.528    30 O    1.125    29 Cl   1.017
                            25 C    0.125
    29  17 Cl   1.174 --    28 C    1.017
    30   8 O    2.423 --    28 C    1.125    25 C    1.070
    31   8 O    2.008 --    24 C    1.655    23 N    0.182
    32   6 C    3.948 --    23 N    1.000    36 N    0.965    57 H    0.934
                            33 C    0.876
    33   6 C    3.935 --    35 O    1.800    34 O    1.202    32 C    0.876
    34   8 O    2.243 --    33 C    1.202    58 H    0.777    35 O    0.184
    35   8 O    2.108 --    33 C    1.800    34 O    0.184
    36   7 N    3.509 --    37 C    1.270    32 C    0.965    11 C    0.960
                            44 O    0.198
    37   6 C    3.957 --    44 O    1.612    36 N    1.270    38 C    0.970
    38   6 C    3.897 --    39 C    1.565    43 O    1.093    37 C    0.970
                            41 C    0.131
    39   6 C    3.980 --    38 C    1.565    40 C    1.289    59 H    0.970
    40   6 C    3.974 --    41 C    1.546    39 C    1.289    60 H    0.969
    41   6 C    3.862 --    40 C    1.546    43 O    1.124    42 Cl   1.010
                            38 C    0.131
    42  17 Cl   1.166 --    41 C    1.010
    43   8 O    2.441 --    41 C    1.124    38 C    1.093
    44   8 O    2.030 --    37 C    1.612    36 N    0.198
    45   1 H    0.994 --     6 C    0.965
    46   1 H    0.995 --     7 C    0.968
    47   1 H    0.995 --     8 C    0.968
    48   1 H    0.997 --     9 C    0.966
    49   1 H    0.993 --    11 C    0.951
    50   1 H    0.996 --    12 C    0.948
    51   1 H    0.995 --    19 C    0.965
    52   1 H    0.995 --    20 C    0.968
    53   1 H    0.996 --    21 C    0.968
    54   1 H    0.998 --    22 C    0.966
    55   1 H    0.993 --    26 C    0.968
    56   1 H    0.994 --    27 C    0.970
    57   1 H    0.995 --    32 C    0.934
    58   1 H    0.866 --    34 O    0.777
    59   1 H    0.994 --    39 C    0.970
    60   1 H    0.993 --    40 C    0.969
 ---------------------------------------------------------------------------

molecular dipole:
                 x           y           z       tot (Debye)
 q only:        1.141      -1.906       1.953
   full:        1.714      -1.570       2.254       8.230

           -------------------------------------------------
          | TOTAL ENERGY             -135.928553549004 Eh   |
          | GRADIENT NORM               0.000696933840 Eh/Î± |
          | HOMO-LUMO GAP               2.951648202085 eV   |
           -------------------------------------------------

 * finished run on 2022/03/16 at 22:28:08.773
