   * xtb version 6.3.3 (4ae9cef) compiled by 'conda@95abc7406d43' on 2020-10-14
          program call               : xtb acid_430.xyz --opt --chrg 0 --uhf 0 --gfn 2
          number of atoms            :                    68
          number of electrons        :                   242
          charge                     :                     0
          spin                       :                   0.0

   ID    Z sym.   atoms
    1    6 C      1, 3-16, 18, 20-23, 28, 29, 31, 32, 36-39, 44, 45
    2    8 O      2, 17, 27, 30, 33, 34, 43, 46
    3    7 N      19, 35
    4    9 F      24-26, 40-42
    5    1 H      47-68

          :  Hamiltonian                  GFN2-xTB          :
 * total energy  :  -142.2608511 Eh     change       -0.1826351E-08 Eh
 * total energy  :  -142.2764585 Eh     change       -0.1560738E-01 Eh
 * total energy  :  -142.2815361 Eh     change       -0.5077624E-02 Eh
 * total energy  :  -142.2828311 Eh     change       -0.1294944E-02 Eh
 * total energy  :  -142.2839188 Eh     change       -0.1087766E-02 Eh
 * total energy  :  -142.2847396 Eh     change       -0.8207727E-03 Eh
 * total energy  :  -142.2855214 Eh     change       -0.7818288E-03 Eh
 * total energy  :  -142.2863165 Eh     change       -0.7951010E-03 Eh
 * total energy  :  -142.2871098 Eh     change       -0.7932733E-03 Eh
 * total energy  :  -142.2877847 Eh     change       -0.6748611E-03 Eh
 * total energy  :  -142.2967402 Eh     change       -0.2541830E-04 Eh
 * total energy  :  -142.2967502 Eh     change       -0.9987379E-05 Eh
 * total energy  :  -142.2967649 Eh     change       -0.1465414E-04 Eh
 * total energy  :  -142.2967731 Eh     change       -0.8236980E-05 Eh
 * total energy  :  -142.2967792 Eh     change       -0.6108840E-05 Eh
 * total energy  :  -142.2967865 Eh     change       -0.7327987E-05 Eh
 * total energy  :  -142.2967933 Eh     change       -0.6787421E-05 Eh
 * total energy  :  -142.2967983 Eh     change       -0.5015705E-05 Eh
 * total energy  :  -142.2968018 Eh     change       -0.3411260E-05 Eh
   *** GEOMETRY OPTIMIZATION CONVERGED AFTER 133 ITERATIONS ***

 final structure:
================
68
 xtb: 6.3.3 (4ae9cef)
C        -1.56021568315756    3.05393943919652    0.28917885925843
O        -1.12498772686115    3.22907125307425   -0.99134204233710
C        -1.23156906286351    4.50414616696526   -1.57326121685558
C        -2.10876149652276    4.05604993520619    1.07873024704492
C        -2.50447531962559    3.78142249694506    2.37737422487009
C        -2.35479016101307    2.51357534012066    2.90390569565820
C        -1.80532864981072    1.51084637849002    2.12288044736477
C        -1.41822763182925    1.76398127655974    0.82007226744854
C        -0.77047843629478    0.70926679548261   -0.03240461782050
C         0.73353453454810    0.59196071779249    0.27421183154059
C         1.55280998200245    1.41864760746267   -0.67789091919351
C         1.88188606764789    0.96237767081383   -1.94045784900744
C         2.60458565255961    1.75699620204317   -2.81409861388853
C         2.98954472348299    3.02350408827039   -2.42087094729307
C         2.65644108181814    3.50252254541374   -1.16468000679668
C         1.93465753354280    2.70870519438140   -0.28289172039872
O         1.54406695094632    3.09638627573673    0.96445535139113
C         1.91089757330839    4.37414842498005    1.42131830698180
N         0.99390566859104   -0.83990358968658    0.19734953417781
C         2.23885216294621   -1.34182908616745    0.38630934646825
C         2.30501507795347   -2.83536240933152    0.41520507559187
C         2.76834626077802   -3.66834881827528   -0.56986923261992
C         3.21089946612539   -3.35644209037017   -1.95830736932674
F         2.33831583455974   -2.52782413148771   -2.57607186532486
F         3.29851139092130   -4.44684696328255   -2.72229335487798
F         4.39927452450864   -2.74304739787694   -2.01759760991571
O         2.73926861858062   -4.94994589608186   -0.16722955947329
C         2.26970323455185   -4.95466892167406    1.08184653808961
C         1.98574406855592   -3.69117685353221    1.50253390085062
O         3.21829634661173   -0.64798141840135    0.52605887542698
C        -0.22015429127915   -1.61604918524273    0.13854041536802
C        -0.27646860909687   -2.42836420814176   -1.17648561890364
O        -0.40170466472539   -1.64302573249723   -2.23080673836308
O        -0.20344671767623   -3.62602560054652   -1.22063559255740
N        -1.27708942722048   -0.63816213097576    0.20205117945746
C        -2.59369029113424   -0.92424648955490    0.04614962339397
C        -2.92336690198513   -2.38431627043551    0.05048126601036
C        -2.86731804944001   -3.31288058984759    1.05866529898978
C        -2.41552609177803   -3.20938722156964    2.47505250071990
F        -3.29622554444778   -3.71220370607646    3.34320291186167
F        -2.18594365098342   -1.93861489414266    2.83074139006826
F        -1.25373967143198   -3.86485940912730    2.69448919620473
O        -3.31951598204815   -4.50815471025970    0.63338432423577
C        -3.67580644509052   -4.36009592226739   -0.64426095993221
C        -3.46854718641959   -3.08145882859563   -1.06108818824165
O        -3.44789521297362   -0.08441723839905   -0.11216711477263
H        -0.80414969219224    4.40572117335002   -2.57005974355291
H        -0.66298945442899    5.25253116280513   -1.01173846351445
H        -2.27478964018283    4.82551434593562   -1.65416938663030
H        -2.23492478060747    5.05515884734769    0.69235300748542
H        -2.93138450002799    4.57195587096970    2.97670434115389
H        -2.66152529721597    2.30245981249865    3.91641292260641
H        -1.68680284952687    0.51748276446580    2.52696907527038
H        -0.91740494016176    0.96863368041955   -1.08835226596483
H         0.93875199346884    0.93255099187284    1.29687223625380
H         1.57619731435668   -0.02725625835248   -2.24231859545454
H         2.86465433512155    1.38564053597201   -3.79302260858251
H         3.55431086446123    3.65302356912325   -3.09251210141850
H         2.96846302508093    4.49583472473531   -0.88294972574119
H         2.99806488769540    4.48411938880316    1.48219638235200
H         1.48109027764403    4.46093468144995    2.41809451783879
H         1.50046839492532    5.16400913028354    0.78368869392353
H         2.17930600513698   -5.90437780674158    1.56993320960133
H         1.60683134161242   -3.39766132332608    2.45915885007255
H        -0.27083905369638   -2.33621688442512    0.96866323059853
H        -0.36018996564455   -2.14569600233208   -3.06168908446171
H        -4.06050181536129   -5.22346887484542   -1.14938502772427
H        -3.67191829927687   -2.66280462513792   -2.02433093464636

          :  Hamiltonian                  GFN2-xTB          :
         :: total energy            -142.296801753381 Eh    ::
         :: gradient norm              0.000293935780 Eh/a0 ::
         :: HOMO-LUMO gap              2.500354748188 eV    ::
         :: SCC energy              -143.803611408309 Eh    ::
         :: -> dispersion             -0.099919535532 Eh    ::
         :: repulsion energy           1.502995189257 Eh    ::

    * Orbital Energies and Occupations

         #    Occupation            Energy/Eh            Energy/eV
      -------------------------------------------------------------
         1        2.0000           -0.9018225             -24.5398
       ...           ...                  ...                  ...
       109        2.0000           -0.4426564             -12.0453
       110        2.0000           -0.4393894             -11.9564
       111        2.0000           -0.4358718             -11.8607
       112        2.0000           -0.4287366             -11.6665
       113        2.0000           -0.4282249             -11.6526
       114        2.0000           -0.4259301             -11.5901
       115        2.0000           -0.4185555             -11.3895
       116        2.0000           -0.4140944             -11.2681
       117        2.0000           -0.4124853             -11.2243
       118        2.0000           -0.4031733             -10.9709
       119        2.0000           -0.4013506             -10.9213
       120        2.0000           -0.3853948             -10.4871
       121        2.0000           -0.3774453             -10.2708 (HOMO)
       122                         -0.2855589              -7.7705 (LUMO)
       123                         -0.2726239              -7.4185
       124                         -0.2611561              -7.1064
       125                         -0.2414331              -6.5697
       126                         -0.2353959              -6.4054
       127                         -0.2314057              -6.2969
       128                         -0.2244211              -6.1068
       129                         -0.2168374              -5.9004
       130                         -0.2148992              -5.8477
       131                         -0.2042705              -5.5585
       132                         -0.2024422              -5.5087
       ...                                ...                  ...
       206                          0.6674496              18.1622
      -------------------------------------------------------------
                  HL-Gap            0.0918863 Eh            2.5004 eV

     #   Z          covCN         q      C6AA      Î±(0)
     1   6 C        2.869     0.146    24.828     8.168
     2   8 O        1.705    -0.274    18.543     5.814
     3   6 C        3.644     0.040    20.247     6.468
     4   6 C        2.918    -0.064    29.593     8.921
     5   6 C        2.921    -0.031    28.767     8.795
     6   6 C        2.918    -0.038    28.944     8.822
     7   6 C        2.923    -0.030    28.757     8.794
     8   6 C        2.974    -0.005    28.153     8.703
     9   6 C        3.828     0.044    19.813     6.333
    10   6 C        3.825     0.045    19.806     6.333
    11   6 C        2.974    -0.006    28.172     8.706
    12   6 C        2.923    -0.030    28.756     8.794
    13   6 C        2.918    -0.038    28.949     8.823
    14   6 C        2.921    -0.031    28.762     8.795
    15   6 C        2.918    -0.064    29.591     8.920
    16   6 C        2.869     0.146    24.820     8.167
    17   8 O        1.705    -0.274    18.539     5.813
    18   6 C        3.644     0.039    20.248     6.468
    19   7 N        2.764    -0.102    23.243     7.160
    20   6 C        2.757     0.273    22.391     7.749
    21   6 C        3.072    -0.040    28.903     8.815
    22   6 C        3.148     0.079    25.982     8.338
    23   6 C        3.330     0.489    17.323     6.605
    24   9 F        0.791    -0.215    11.396     3.988
    25   9 F        0.792    -0.185    11.078     3.932
    26   9 F        0.791    -0.189    11.125     3.940
    27   8 O        1.729    -0.136    16.359     5.461
    28   6 C        3.084     0.085    26.021     8.362
    29   6 C        3.023    -0.058    29.404     8.895
    30   8 O        0.859    -0.392    21.518     6.219
    31   6 C        3.756     0.083    19.248     6.255
    32   6 C        2.688     0.347    21.103     7.518
    33   8 O        1.660    -0.339    19.706     5.993
    34   8 O        0.856    -0.399    21.663     6.240
    35   7 N        2.762    -0.103    23.254     7.162
    36   6 C        2.759     0.274    22.359     7.743
    37   6 C        3.068    -0.039    28.892     8.814
    38   6 C        3.141     0.070    26.198     8.376
    39   6 C        3.330     0.488    17.348     6.610
    40   9 F        0.791    -0.183    11.064     3.929
    41   9 F        0.792    -0.198    11.219     3.957
    42   9 F        0.791    -0.207    11.306     3.972
    43   8 O        1.730    -0.141    16.426     5.472
    44   6 C        3.074     0.085    26.022     8.364
    45   6 C        3.024    -0.053    29.290     8.877
    46   8 O        0.859    -0.389    21.452     6.210
    47   1 H        0.925     0.062     2.172     2.305
    48   1 H        0.924     0.038     2.480     2.463
    49   1 H        0.924     0.045     2.377     2.411
    50   1 H        0.926     0.040     2.455     2.450
    51   1 H        0.926     0.040     2.455     2.450
    52   1 H        0.926     0.042     2.423     2.434
    53   1 H        0.926     0.047     2.361     2.403
    54   1 H        0.924     0.081     1.967     2.194
    55   1 H        0.924     0.080     1.975     2.198
    56   1 H        0.926     0.044     2.393     2.419
    57   1 H        0.926     0.041     2.432     2.439
    58   1 H        0.926     0.040     2.454     2.450
    59   1 H        0.926     0.040     2.453     2.449
    60   1 H        0.924     0.046     2.365     2.405
    61   1 H        0.925     0.063     2.168     2.302
    62   1 H        0.924     0.037     2.488     2.466
    63   1 H        0.926     0.086     1.921     2.168
    64   1 H        0.927     0.072     2.066     2.248
    65   1 H        0.923     0.066     2.136     2.285
    66   1 H        0.804     0.353     0.582     1.198
    67   1 H        0.926     0.086     1.919     2.166
    68   1 H        0.927     0.072     2.062     2.246

Wiberg/Mayer (AO) data.
largest (>0.10) Wiberg bond orders for each atom

     #   Z sym  total        # sym  WBO       # sym  WBO       # sym  WBO
 ---------------------------------------------------------------------------
     1   6 C    3.934 --     4 C    1.384     8 C    1.322     2 O    1.059
     2   8 O    2.230 --     1 C    1.059     3 C    0.984
     3   6 C    3.945 --     2 O    0.984    47 H    0.979    49 H    0.976
                            48 H    0.976
     4   6 C    3.987 --     5 C    1.432     1 C    1.384    50 H    0.966
                             7 C    0.102
     5   6 C    3.991 --     6 C    1.446     4 C    1.432    51 H    0.971
                             8 C    0.106
     6   6 C    3.991 --     5 C    1.446     7 C    1.423    52 H    0.970
     7   6 C    3.989 --     8 C    1.441     6 C    1.423    53 H    0.967
                             4 C    0.102
     8   6 C    3.981 --     7 C    1.441     1 C    1.322     9 C    0.992
                             5 C    0.106
     9   6 C    3.953 --     8 C    0.992    10 C    0.952    35 N    0.948
                            54 H    0.946
    10   6 C    3.954 --    11 C    0.992     9 C    0.952    19 N    0.949
                            55 H    0.946
    11   6 C    3.982 --    12 C    1.441    16 C    1.322    10 C    0.992
                            14 C    0.106
    12   6 C    3.990 --    11 C    1.441    13 C    1.423    56 H    0.966
                            15 C    0.102
    13   6 C    3.991 --    14 C    1.446    12 C    1.423    57 H    0.971
    14   6 C    3.990 --    13 C    1.446    15 C    1.432    58 H    0.971
                            11 C    0.106
    15   6 C    3.987 --    14 C    1.432    16 C    1.384    59 H    0.966
                            12 C    0.102
    16   6 C    3.934 --    15 C    1.384    11 C    1.322    17 O    1.059
    17   8 O    2.231 --    16 C    1.059    18 C    0.983
    18   6 C    3.945 --    17 O    0.983    61 H    0.979    60 H    0.976
                            62 H    0.976
    19   7 N    3.476 --    20 C    1.216    31 C    0.985    10 C    0.949
                            30 O    0.201
    20   6 C    3.957 --    30 O    1.707    19 N    1.216    21 C    0.957
    21   6 C    3.979 --    22 C    1.527    29 C    1.275    20 C    0.957
    22   6 C    3.901 --    21 C    1.527    27 O    1.130    23 C    0.959
                            28 C    0.146
    23   6 C    3.847 --    25 F    0.966    22 C    0.959    26 F    0.955
                            24 F    0.929
    24   9 F    1.059 --    23 C    0.929
    25   9 F    1.091 --    23 C    0.966
    26   9 F    1.089 --    23 C    0.955
    27   8 O    2.486 --    28 C    1.158    22 C    1.130
    28   6 C    3.903 --    29 C    1.596    27 O    1.158    63 H    0.961
                            22 C    0.146
    29   6 C    3.980 --    28 C    1.596    21 C    1.275    64 H    0.971
    30   8 O    2.050 --    20 C    1.707    19 N    0.201
    31   6 C    3.973 --    35 N    0.990    19 N    0.985    65 H    0.944
                            32 C    0.904
    32   6 C    3.922 --    34 O    1.764    33 O    1.183    31 C    0.904
    33   8 O    2.249 --    32 C    1.183    66 H    0.849    34 O    0.188
    34   8 O    2.049 --    32 C    1.764    33 O    0.188
    35   7 N    3.470 --    36 C    1.214    31 C    0.990     9 C    0.948
                            46 O    0.199
    36   6 C    3.958 --    46 O    1.708    35 N    1.214    37 C    0.959
    37   6 C    3.979 --    38 C    1.522    45 C    1.274    36 C    0.959
    38   6 C    3.896 --    37 C    1.522    43 O    1.125    39 C    0.959
                            44 C    0.145
    39   6 C    3.847 --    40 F    0.963    38 C    0.959    41 F    0.953
                            42 F    0.933
    40   9 F    1.095 --    39 C    0.963
    41   9 F    1.077 --    39 C    0.953
    42   9 F    1.069 --    39 C    0.933
    43   8 O    2.482 --    44 C    1.157    38 C    1.125
    44   6 C    3.904 --    45 C    1.599    43 O    1.157    67 H    0.961
                            38 C    0.145
    45   6 C    3.980 --    44 C    1.599    37 C    1.274    68 H    0.971
    46   8 O    2.052 --    36 C    1.708    35 N    0.199
    47   1 H    0.996 --     3 C    0.979
    48   1 H    0.999 --     3 C    0.976
    49   1 H    0.998 --     3 C    0.976
    50   1 H    0.998 --     4 C    0.966
    51   1 H    0.998 --     5 C    0.971
    52   1 H    0.998 --     6 C    0.970
    53   1 H    0.997 --     7 C    0.967
    54   1 H    0.993 --     9 C    0.946
    55   1 H    0.993 --    10 C    0.946
    56   1 H    0.997 --    12 C    0.966
    57   1 H    0.998 --    13 C    0.971
    58   1 H    0.998 --    14 C    0.971
    59   1 H    0.998 --    15 C    0.966
    60   1 H    0.998 --    18 C    0.976
    61   1 H    0.996 --    18 C    0.979
    62   1 H    0.999 --    18 C    0.976
    63   1 H    0.991 --    28 C    0.961
    64   1 H    0.994 --    29 C    0.971
    65   1 H    0.995 --    31 C    0.944
    66   1 H    0.876 --    33 O    0.849
    67   1 H    0.992 --    44 C    0.961
    68   1 H    0.994 --    45 C    0.971
 ---------------------------------------------------------------------------

molecular dipole:
                 x           y           z       tot (Debye)
 q only:       -0.860       1.209      -0.500
   full:       -0.896       0.889      -0.614       3.568

           -------------------------------------------------
          | TOTAL ENERGY             -142.296801753381 Eh   |
          | GRADIENT NORM               0.000293935780 Eh/Î± |
          | HOMO-LUMO GAP               2.500354748188 eV   |
           -------------------------------------------------

 * finished run on 2022/03/17 at 01:08:26.722
