   * xtb version 6.3.3 (4ae9cef) compiled by 'conda@95abc7406d43' on 2020-10-14
          program call               : xtb acid_200.xyz --opt --chrg 0 --uhf 0 --gfn 2
          number of atoms            :                    80
          number of electrons        :                   226
          charge                     :                     0
          spin                       :                   0.0

   ID    Z sym.   atoms
    1    6 C      1, 3-16, 18, 20-28, 30, 31, 35-43
    2    8 O      2, 17, 29, 32, 33, 44
    3    7 N      19, 34
    4    1 H      45-80

          :  Hamiltonian                  GFN2-xTB          :
 * total energy  :  -125.7224014 Eh     change       -0.1459370E-08 Eh
 * total energy  :  -125.7364470 Eh     change       -0.1404562E-01 Eh
 * total energy  :  -125.7401621 Eh     change       -0.3715077E-02 Eh
 * total energy  :  -125.7413396 Eh     change       -0.1177480E-02 Eh
 * total energy  :  -125.7421728 Eh     change       -0.8332177E-03 Eh
 * total energy  :  -125.7428046 Eh     change       -0.6318212E-03 Eh
 * total energy  :  -125.7432827 Eh     change       -0.4780698E-03 Eh
 * total energy  :  -125.7436916 Eh     change       -0.4089458E-03 Eh
 * total energy  :  -125.7440388 Eh     change       -0.3472022E-03 Eh
 * total energy  :  -125.7442822 Eh     change       -0.2433157E-03 Eh
 * total energy  :  -125.7629643 Eh     change       -0.1171745E-04 Eh
 * total energy  :  -125.7629592 Eh     change        0.5124870E-05 Eh
 * total energy  :  -125.7629705 Eh     change       -0.1130967E-04 Eh
 * total energy  :  -125.7629794 Eh     change       -0.8952494E-05 Eh
 * total energy  :  -125.7629897 Eh     change       -0.1021947E-04 Eh
 * total energy  :  -125.7630027 Eh     change       -0.1301279E-04 Eh
 * total energy  :  -125.7630150 Eh     change       -0.1228175E-04 Eh
 * total energy  :  -125.7630246 Eh     change       -0.9618898E-05 Eh
 * total energy  :  -125.7630280 Eh     change       -0.3449059E-05 Eh
   *** GEOMETRY OPTIMIZATION CONVERGED AFTER 68 ITERATIONS ***

 final structure:
================
80
 xtb: 6.3.3 (4ae9cef)
C         1.01626296238754   -3.47963295152481    1.51368003380008
O        -0.04217102395729   -3.77676182165826    0.70147002916689
C        -0.55444261361684   -5.08601534861800    0.71093745270158
C         1.57935790082841   -4.35753341817912    2.42890101569535
C         2.64728902169634   -3.94998699452266    3.21328681334625
C         3.15755050756459   -2.67313375074712    3.09185403646624
C         2.59980615308237   -1.79221304128055    2.17782315127427
C         1.53483222422652   -2.18073379347814    1.38810904781997
C         0.89106332746200   -1.27577075110495    0.36669470407577
C        -0.44785489756055   -0.68012898746074    0.86922729097043
C        -1.60485809584648   -1.15684331416809    0.03113450441423
C        -2.53049961914374   -2.04057885695449    0.55563465733050
C        -3.56307054016954   -2.53765826554010   -0.21969512409269
C        -3.66735428602015   -2.14907395546650   -1.54057351817363
C        -2.75567489156294   -1.26025435243471   -2.08472135320263
C        -1.72043807444985   -0.75539118569253   -1.30887134056736
O        -0.78890672675495    0.13465636086947   -1.75519890097154
C        -0.87471856670191    0.59878896458952   -3.08053628797275
N        -0.24641465944043    0.76028484320652    0.80809816896226
C        -1.20503611083031    1.70241664400003    0.80553611289023
C        -2.60073359577430    1.27579924849310    1.07790865830397
C        -2.94076626161398    0.64950151778975    2.27091861399080
C        -4.26030348731032    0.31557069523671    2.51190223600951
C        -5.23706697510783    0.60775285305969    1.57644576553204
C        -4.91603779131323    1.26570302894594    0.39617859505065
C        -5.97454343199739    1.58937637317470   -0.61818934094357
C        -6.09611312834766    0.46582993448054   -1.64844732615347
C        -3.59079823147011    1.60065346988276    0.16065135987391
O        -0.92407495788244    2.88856073525747    0.61570045883005
C         1.10802530459304    1.10837447765950    0.39406983366973
C         1.85969162886091    1.83628801366297    1.54905223994650
O         1.36721937615354    3.02195567925712    1.83320680235717
O         2.81422305498948    1.37182781240550    2.10531139539978
N         1.69378236857892   -0.13176924395622   -0.02355454392480
C         2.51924103932493   -0.26847086847335   -1.10613984329710
C         3.14767869084840    0.99182154632219   -1.59721896040571
C         3.99784648478996    1.73692655428482   -0.79123056361310
C         4.58534068066930    2.90144063694795   -1.26743973955408
C         5.53574181177503    3.67271432543044   -0.39882665002813
C         6.95855274209746    3.13555606350082   -0.56592115015245
C         4.31308563130801    3.30838304670452   -2.56763459517058
C         3.48879934836690    2.55498493294411   -3.38533465182985
C         2.91373565111394    1.39110107809013   -2.90858959489606
O         2.71773833019733   -1.34909768149668   -1.61997647382134
H        -1.35041326132899   -5.09051303786907   -0.03242495091591
H         0.20860105732913   -5.81927375332987    0.43272972334032
H        -0.97267644886076   -5.34887137481643    1.68827716104864
H         1.19852634747330   -5.36091734595476    2.53716612297414
H         3.07651289869835   -4.64428884774504    3.92051895987712
H         3.98898168005996   -2.35685714621830    3.70209357225180
H         2.99618754891922   -0.79462692044999    2.08152955626568
H         0.71990090574929   -1.88285588107865   -0.53273521771851
H        -0.60837676105593   -0.98197768420149    1.91103211194508
H        -2.43568589330049   -2.34564116263684    1.58638087063214
H        -4.27676943627728   -3.22617691973374    0.20523228768304
H        -4.46192224198023   -2.53489144755682   -2.16157475783239
H        -2.85416906631065   -0.97581383165246   -3.12041544575631
H        -0.07443653675490    1.32973539518686   -3.18828760896799
H        -0.72467958415571   -0.21232644310084   -3.79955417870644
H        -1.83478961779833    1.08786831569142   -3.27369725307984
H        -2.18293072998740    0.44579154015370    3.01247657233949
H        -4.52991668506108   -0.16978969462465    3.43811872373893
H        -6.26521767709313    0.34031018305735    1.77318989060425
H        -5.72119574806745    2.52044885915378   -1.12873832630216
H        -6.93522192089503    1.72491627495578   -0.11800767829109
H        -6.86229975081306    0.70491435148464   -2.38220435260229
H        -6.35938439812284   -0.46887565415708   -1.15892938120104
H        -5.14942823342057    0.32212979287256   -2.16310158053571
H        -3.31674353486847    2.12393327963627   -0.74388753503912
H         1.06106722137458    1.82552788969020   -0.44563173838384
H         0.52565018968713    3.21514583560685    1.32347707959166
H         4.21515809567077    1.40188548729750    0.21109869165246
H         5.23519741029680    3.57826044483355    0.64605034360765
H         5.51376833605650    4.73003253501816   -0.67047718933109
H         7.28110037452011    3.23101911131795   -1.60063876258383
H         7.64983002311186    3.68721565800378    0.06665482421626
H         6.99820473079218    2.08427757352060   -0.29089577729523
H         4.75845200183586    4.21769459328341   -2.94544271991827
H         3.29775799596681    2.87361160590583   -4.39984075652838
H         2.28637843458268    0.78375516500083   -3.54383529989834

          :  Hamiltonian                  GFN2-xTB          :
         :: total energy            -125.763028024307 Eh    ::
         :: gradient norm              0.000402414814 Eh/a0 ::
         :: HOMO-LUMO gap              3.182410857141 eV    ::
         :: SCC energy              -127.604162002062 Eh    ::
         :: -> dispersion             -0.112751408472 Eh    ::
         :: repulsion energy           1.836669700569 Eh    ::

    * Orbital Energies and Occupations

         #    Occupation            Energy/Eh            Energy/eV
      -------------------------------------------------------------
         1        2.0000           -0.7443049             -20.2536
       ...           ...                  ...                  ...
       101        2.0000           -0.4196372             -11.4189
       102        2.0000           -0.4185823             -11.3902
       103        2.0000           -0.4177811             -11.3684
       104        2.0000           -0.4135798             -11.2541
       105        2.0000           -0.4092734             -11.1369
       106        2.0000           -0.4071041             -11.0779
       107        2.0000           -0.4043775             -11.0037
       108        2.0000           -0.3999169             -10.8823
       109        2.0000           -0.3975889             -10.8189
       110        2.0000           -0.3941082             -10.7242
       111        2.0000           -0.3881422             -10.5619
       112        2.0000           -0.3838164             -10.4442
       113        2.0000           -0.3773231             -10.2675 (HOMO)
       114                         -0.2603716              -7.0851 (LUMO)
       115                         -0.2435070              -6.6262
       116                         -0.2413373              -6.5671
       117                         -0.2381701              -6.4809
       118                         -0.2373251              -6.4579
       119                         -0.2283509              -6.2137
       120                         -0.2226825              -6.0595
       121                         -0.2208135              -6.0086
       122                         -0.2155724              -5.8660
       123                         -0.2111385              -5.7454
       124                         -0.1965806              -5.3492
       ...                                ...                  ...
       212                          0.6748418              18.3634
      -------------------------------------------------------------
                  HL-Gap            0.1169514 Eh            3.1824 eV

     #   Z          covCN         q      C6AA      Î±(0)
     1   6 C        2.869     0.135    25.052     8.205
     2   8 O        1.705    -0.281    18.669     5.834
     3   6 C        3.643     0.039    20.258     6.471
     4   6 C        2.917    -0.067    29.668     8.932
     5   6 C        2.920    -0.033    28.815     8.803
     6   6 C        2.919    -0.039    28.961     8.825
     7   6 C        2.922    -0.038    28.933     8.821
     8   6 C        2.971    -0.019    28.475     8.753
     9   6 C        3.830     0.048    19.744     6.322
    10   6 C        3.813     0.046    19.800     6.333
    11   6 C        2.972    -0.019    28.472     8.752
    12   6 C        2.925    -0.029    28.736     8.791
    13   6 C        2.918    -0.040    29.004     8.831
    14   6 C        2.921    -0.031    28.766     8.795
    15   6 C        2.918    -0.065    29.629     8.926
    16   6 C        2.867     0.142    24.900     8.180
    17   8 O        1.705    -0.278    18.607     5.824
    18   6 C        3.643     0.044    20.180     6.458
    19   7 N        2.757    -0.100    23.193     7.153
    20   6 C        2.769     0.271    22.422     7.755
    21   6 C        2.975    -0.011    28.297     8.726
    22   6 C        2.922    -0.033    28.813     8.803
    23   6 C        2.919    -0.028    28.693     8.784
    24   6 C        2.926    -0.035    28.869     8.811
    25   6 C        2.970     0.019    27.586     8.615
    26   6 C        3.807    -0.060    21.642     6.623
    27   6 C        3.754    -0.099    22.453     6.757
    28   6 C        2.931    -0.028    28.701     8.786
    29   8 O        0.860    -0.469    23.107     6.445
    30   6 C        3.758     0.081    19.288     6.261
    31   6 C        2.684     0.352    21.031     7.505
    32   8 O        1.654    -0.372    20.324     6.086
    33   8 O        0.856    -0.370    21.088     6.157
    34   7 N        2.755    -0.108    23.353     7.177
    35   6 C        2.770     0.273    22.390     7.750
    36   6 C        2.974    -0.021    28.524     8.761
    37   6 C        2.927    -0.043    29.057     8.840
    38   6 C        2.971     0.019    27.572     8.613
    39   6 C        3.807    -0.060    21.648     6.623
    40   6 C        3.754    -0.098    22.435     6.754
    41   6 C        2.925    -0.036    28.906     8.817
    42   6 C        2.918    -0.031    28.783     8.798
    43   6 C        2.924    -0.030    28.760     8.795
    44   8 O        0.859    -0.418    22.050     6.296
    45   1 H        0.925     0.059     2.207     2.323
    46   1 H        0.924     0.045     2.382     2.413
    47   1 H        0.924     0.039     2.466     2.456
    48   1 H        0.926     0.036     2.501     2.473
    49   1 H        0.926     0.036     2.497     2.471
    50   1 H        0.926     0.042     2.419     2.432
    51   1 H        0.926     0.073     2.049     2.238
    52   1 H        0.923     0.087     1.908     2.160
    53   1 H        0.924     0.053     2.284     2.363
    54   1 H        0.926     0.041     2.433     2.439
    55   1 H        0.926     0.039     2.460     2.453
    56   1 H        0.926     0.041     2.434     2.440
    57   1 H        0.926     0.041     2.438     2.442
    58   1 H        0.925     0.062     2.177     2.307
    59   1 H        0.924     0.045     2.386     2.416
    60   1 H        0.924     0.039     2.458     2.452
    61   1 H        0.926     0.034     2.535     2.490
    62   1 H        0.926     0.041     2.440     2.442
    63   1 H        0.926     0.040     2.445     2.445
    64   1 H        0.924     0.042     2.416     2.431
    65   1 H        0.924     0.042     2.424     2.435
    66   1 H        0.925     0.041     2.436     2.441
    67   1 H        0.925     0.037     2.488     2.467
    68   1 H        0.925     0.036     2.507     2.476
    69   1 H        0.926     0.042     2.419     2.432
    70   1 H        0.922     0.064     2.148     2.292
    71   1 H        0.799     0.365     0.555     1.171
    72   1 H        0.926     0.051     2.303     2.373
    73   1 H        0.924     0.047     2.361     2.403
    74   1 H        0.924     0.038     2.470     2.458
    75   1 H        0.925     0.036     2.509     2.477
    76   1 H        0.925     0.039     2.464     2.455
    77   1 H        0.925     0.040     2.442     2.444
    78   1 H        0.926     0.036     2.504     2.475
    79   1 H        0.926     0.034     2.534     2.489
    80   1 H        0.926     0.036     2.497     2.471

Wiberg/Mayer (AO) data.
largest (>0.10) Wiberg bond orders for each atom

     #   Z sym  total        # sym  WBO       # sym  WBO       # sym  WBO
 ---------------------------------------------------------------------------
     1   6 C    3.931 --     4 C    1.391     8 C    1.319     2 O    1.051
     2   8 O    2.222 --     1 C    1.051     3 C    0.985
     3   6 C    3.946 --     2 O    0.985    45 H    0.979    46 H    0.977
                            47 H    0.976
     4   6 C    3.987 --     5 C    1.426     1 C    1.391    48 H    0.966
                             7 C    0.102
     5   6 C    3.991 --     6 C    1.453     4 C    1.426    49 H    0.971
                             8 C    0.106
     6   6 C    3.991 --     5 C    1.453     7 C    1.416    50 H    0.970
     7   6 C    3.985 --     8 C    1.447     6 C    1.416    51 H    0.956
                             4 C    0.102
     8   6 C    3.981 --     7 C    1.447     1 C    1.319     9 C    0.988
                             5 C    0.106
     9   6 C    3.961 --     8 C    0.988    34 N    0.969    10 C    0.946
                            52 H    0.941
    10   6 C    3.963 --    11 C    0.993    19 N    0.959    53 H    0.954
                             9 C    0.946
    11   6 C    3.982 --    12 C    1.435    16 C    1.321    10 C    0.993
                            14 C    0.106
    12   6 C    3.988 --    11 C    1.435    13 C    1.425    54 H    0.967
                            15 C    0.101
    13   6 C    3.991 --    14 C    1.444    12 C    1.425    55 H    0.971
    14   6 C    3.990 --    13 C    1.444    15 C    1.432    56 H    0.970
                            11 C    0.106
    15   6 C    3.987 --    14 C    1.432    16 C    1.383    57 H    0.965
                            12 C    0.101
    16   6 C    3.935 --    15 C    1.383    11 C    1.321    17 O    1.061
    17   8 O    2.229 --    16 C    1.061    18 C    0.981
    18   6 C    3.943 --    17 O    0.981    58 H    0.977    59 H    0.976
                            60 H    0.976
    19   7 N    3.508 --    20 C    1.277    30 C    0.961    10 C    0.959
                            29 O    0.183
    20   6 C    3.941 --    29 O    1.574    19 N    1.277    21 C    0.984
    21   6 C    3.986 --    28 C    1.405    22 C    1.392    20 C    0.984
                            24 C    0.106
    22   6 C    3.990 --    23 C    1.445    21 C    1.392    61 H    0.969
                            25 C    0.107
    23   6 C    3.991 --    22 C    1.445    24 C    1.440    62 H    0.970
                            28 C    0.107
    24   6 C    3.991 --    23 C    1.440    25 C    1.409    63 H    0.969
                            21 C    0.106
    25   6 C    3.987 --    28 C    1.414    24 C    1.409    26 C    1.013
                            22 C    0.107
    26   6 C    3.996 --    25 C    1.013    27 C    1.000    65 H    0.974
                            64 H    0.973
    27   6 C    3.996 --    26 C    1.000    67 H    0.988    68 H    0.986
                            66 H    0.986
    28   6 C    3.989 --    25 C    1.414    21 C    1.405    69 H    0.967
                            23 C    0.107
    29   8 O    2.001 --    20 C    1.574    19 N    0.183
    30   6 C    3.960 --    34 N    1.004    19 N    0.961    70 H    0.935
                            31 C    0.894
    31   6 C    3.930 --    33 O    1.764    32 O    1.209    30 C    0.894
    32   8 O    2.237 --    31 C    1.209    71 H    0.759    33 O    0.182
    33   8 O    2.076 --    31 C    1.764    32 O    0.182
    34   7 N    3.455 --    35 C    1.184    30 C    1.004     9 C    0.969
                            44 O    0.182
    35   6 C    3.942 --    44 O    1.701    34 N    1.184    36 C    0.973
    36   6 C    3.987 --    37 C    1.407    43 C    1.397    35 C    0.973
                            41 C    0.106
    37   6 C    3.989 --    38 C    1.413    36 C    1.407    72 H    0.964
                            42 C    0.108
    38   6 C    3.988 --    37 C    1.413    41 C    1.410    39 C    1.013
                            43 C    0.107
    39   6 C    3.996 --    38 C    1.013    40 C    1.000    74 H    0.974
                            73 H    0.973
    40   6 C    3.996 --    39 C    1.000    75 H    0.988    77 H    0.988
                            76 H    0.986
    41   6 C    3.991 --    42 C    1.442    38 C    1.410    78 H    0.969
                            36 C    0.106
    42   6 C    3.992 --    43 C    1.442    41 C    1.442    79 H    0.970
                            37 C    0.108
    43   6 C    3.990 --    42 C    1.442    36 C    1.397    80 H    0.968
                            38 C    0.107
    44   8 O    2.023 --    35 C    1.701    34 N    0.182
    45   1 H    0.996 --     3 C    0.979
    46   1 H    0.998 --     3 C    0.977
    47   1 H    0.998 --     3 C    0.976
    48   1 H    0.998 --     4 C    0.966
    49   1 H    0.998 --     5 C    0.971
    50   1 H    0.998 --     6 C    0.970
    51   1 H    0.994 --     7 C    0.956
    52   1 H    0.992 --     9 C    0.941
    53   1 H    0.997 --    10 C    0.954
    54   1 H    0.998 --    12 C    0.967
    55   1 H    0.998 --    13 C    0.971
    56   1 H    0.998 --    14 C    0.970
    57   1 H    0.998 --    15 C    0.965
    58   1 H    0.996 --    18 C    0.977
    59   1 H    0.998 --    18 C    0.976
    60   1 H    0.998 --    18 C    0.976
    61   1 H    0.998 --    22 C    0.969
    62   1 H    0.997 --    23 C    0.970
    63   1 H    0.998 --    24 C    0.969
    64   1 H    0.998 --    26 C    0.973
    65   1 H    0.998 --    26 C    0.974
    66   1 H    0.997 --    27 C    0.986
    67   1 H    0.999 --    27 C    0.988
    68   1 H    0.999 --    27 C    0.986
    69   1 H    0.998 --    28 C    0.967
    70   1 H    0.995 --    30 C    0.935
    71   1 H    0.867 --    32 O    0.759
    72   1 H    0.997 --    37 C    0.964
    73   1 H    0.998 --    39 C    0.973
    74   1 H    0.998 --    39 C    0.974
    75   1 H    0.999 --    40 C    0.988
    76   1 H    0.998 --    40 C    0.986
    77   1 H    0.998 --    40 C    0.988
    78   1 H    0.998 --    41 C    0.969
    79   1 H    0.998 --    42 C    0.970
    80   1 H    0.998 --    43 C    0.968
 ---------------------------------------------------------------------------

molecular dipole:
                 x           y           z       tot (Debye)
 q only:       -2.269      -0.692      -0.458
   full:       -2.679      -0.782      -0.777       7.364

           -------------------------------------------------
          | TOTAL ENERGY             -125.763028024307 Eh   |
          | GRADIENT NORM               0.000402414814 Eh/Î± |
          | HOMO-LUMO GAP               3.182410857141 eV   |
           -------------------------------------------------

 * finished run on 2022/03/16 at 22:26:48.151
