   * xtb version 6.3.3 (4ae9cef) compiled by 'conda@95abc7406d43' on 2020-10-14
          program call               : xtb acid_197.xyz --opt --chrg 0 --uhf 0 --gfn 2
          number of atoms            :                    76
          number of electrons        :                   246
          charge                     :                     0
          spin                       :                   0.0

   ID    Z sym.   atoms
    1    6 C      1-22, 24-26, 30-33, 35, 36, 40-46
    2    7 N      23, 27, 39, 47
    3    8 O      28, 29, 34, 37, 38, 48-50
    4    1 H      51-76

          :  Hamiltonian                  GFN2-xTB          :
 * total energy  :  -138.6715303 Eh     change       -0.1471903E-08 Eh
 * total energy  :  -138.6940942 Eh     change       -0.2256389E-01 Eh
 * total energy  :  -138.7009099 Eh     change       -0.6815728E-02 Eh
 * total energy  :  -138.7039226 Eh     change       -0.3012650E-02 Eh
 * total energy  :  -138.7064494 Eh     change       -0.2526886E-02 Eh
 * total energy  :  -138.7083985 Eh     change       -0.1949099E-02 Eh
 * total energy  :  -138.7100576 Eh     change       -0.1659088E-02 Eh
 * total energy  :  -138.7115391 Eh     change       -0.1481444E-02 Eh
 * total energy  :  -138.7129211 Eh     change       -0.1382070E-02 Eh
 * total energy  :  -138.7139155 Eh     change       -0.9943433E-03 Eh
 * total energy  :  -138.7202838 Eh     change       -0.6311626E-05 Eh
 * total energy  :  -138.7202892 Eh     change       -0.5427747E-05 Eh
 * total energy  :  -138.7202956 Eh     change       -0.6353160E-05 Eh
 * total energy  :  -138.7203037 Eh     change       -0.8146204E-05 Eh
 * total energy  :  -138.7203133 Eh     change       -0.9538770E-05 Eh
 * total energy  :  -138.7203230 Eh     change       -0.9753990E-05 Eh
 * total energy  :  -138.7203321 Eh     change       -0.9112546E-05 Eh
 * total energy  :  -138.7203396 Eh     change       -0.7450008E-05 Eh
 * total energy  :  -138.7203428 Eh     change       -0.3214758E-05 Eh
   *** GEOMETRY OPTIMIZATION CONVERGED AFTER 68 ITERATIONS ***

 final structure:
================
76
 xtb: 6.3.3 (4ae9cef)
C        -4.70525986730305   -3.77737650236178    0.64333412073991
C        -3.93854872125604   -4.58469483931428    1.43297262488732
C        -2.64581572370490   -4.17911192461565    1.79272625838092
C        -2.14362797035902   -2.98319251164925    1.36185595243523
C        -2.90135048833285   -2.12559614142339    0.53350436792720
C        -4.21291322961382   -2.54240958692931    0.17077008697205
C        -5.00046512059440   -1.72952312556708   -0.66920638268977
C        -4.50414127287182   -0.55880171414195   -1.16466149283250
C        -3.20707100951875   -0.15436082817159   -0.83022475464438
C        -2.42178947299826   -0.89038344481342    0.02087604449641
C        -1.01243585661972   -0.43864694473585    0.30222370074927
C        -0.08584516170501   -0.88863813916899   -0.84571918276669
C         0.35080693706856   -2.32362366943630   -0.73835549231228
C        -0.23235221404531   -3.21550393875451   -1.60452112746255
C         0.03846293769740   -4.58701333747577   -1.54122651698818
C         0.90546501456507   -5.06851391315766   -0.60426346118381
C         1.53017738097901   -4.19316364023580    0.30636036422644
C         1.25024911007803   -2.79901510291752    0.25360976670675
C         1.87980180023836   -1.96457513684749    1.20227584602558
C         2.74063733357736   -2.47300720428057    2.13559048898207
C         3.02176187499363   -3.84538952279094    2.17738384630453
C         2.42452847610689   -4.68441392190516    1.28077389528624
N         0.96076288569267    0.12645460025604   -0.81994740330887
C         2.06323855065105    0.02435395812654   -1.60137259068682
C         3.02607934419845    1.17999548949900   -1.47957703846806
C         3.05332086163878    2.24659605570675   -2.37657911073189
N         2.04989896228684    2.35060323705964   -3.40022574711849
O         1.02513717637727    1.71245916832712   -3.24362275837548
O         2.26727053817826    3.08090450542113   -4.33881805435742
C         4.02841405807867    3.23423923918512   -2.29735617741276
C         4.99049234062267    3.16045772275766   -1.31019083832722
C         4.98743261258205    2.09409003061281   -0.42278234217130
C         4.02168443464989    1.10555113124191   -0.51331594816667
O         2.34721997661747   -0.95730733988196   -2.24620360534339
C         0.41571324781513    1.37798175981689   -0.34886341116202
C         1.32874750241704    2.08212725050388    0.67461374452424
O         1.79067235470479    1.25435231611691    1.59048932392921
O         1.56335478662949    3.26121521524782    0.63504167562081
N        -0.83911861758644    1.00952590239352    0.27199663393745
C        -1.65622575785825    1.85628022407176    0.94417273798580
C        -1.46003128623151    3.31866769768280    0.63491517398479
C        -1.85432858293673    3.81319658469645   -0.60136998172633
C        -1.84023068828330    5.17574370072269   -0.85127660500856
C        -1.45200447977719    6.06982439327327    0.13511166056237
C        -1.06195521153228    5.59838976081360    1.37331135144879
C        -1.06417955145222    4.23042864541104    1.61174120097305
N        -0.57199446529191    3.74893600286971    2.86961165646517
O        -0.56237843777057    4.50686013919608    3.81062304347991
O        -0.14719788562381    2.60850801716495    2.89624648766967
O        -2.57219166598134    1.49130351096270    1.64483708038473
H        -5.70496012771378   -4.07386475922120    0.35919779293619
H        -4.31936049684329   -5.53195370238257    1.78507398644895
H        -2.04234808563869   -4.82038256360659    2.41808069739308
H        -1.14503401594994   -2.70885608561507    1.66099359745847
H        -5.99831810852323   -2.05732668258318   -0.92228483759211
H        -5.09937028786377    0.05996662047598   -1.81949300295277
H        -2.82543629083247    0.76380083213174   -1.25234115191733
H        -0.66428652673204   -0.81653129087933    1.26790506509866
H        -0.63531010789005   -0.77613306566172   -1.79285088438686
H        -0.92100787999526   -2.85695168977151   -2.35563581625103
H        -0.44351247497863   -5.25314855793641   -2.24066411535229
H         1.12722813504739   -6.12426099668050   -0.54466123140285
H         1.68081462161676   -0.90773858396241    1.19796854197069
H         3.20780205905411   -1.81341558958423    2.85292310562834
H         3.70530448134821   -4.22943813731117    2.92031909305067
H         2.62702250876653   -5.74578589201864    1.30281383984967
H         4.00832709291893    4.04437209305320   -3.01026917630837
H         5.74448426004198    3.92795990979062   -1.23494443417420
H         5.74707044659946    2.02869682360796    0.34122369112452
H         4.03197424057570    0.26306561565646    0.16188452442149
H         0.24557125787447    2.08209231114020   -1.18248766323548
H         2.21489303922580    1.72681793362808    2.32578323114995
H        -2.18167490558355    3.12914024246785   -1.36983067829847
H        -2.13910929985968    5.54098671195997   -1.82193380680547
H        -1.44811777100450    7.12996030931222   -0.06371893496411
H        -0.74052352285963    6.26414436542643    2.15965645528000

          :  Hamiltonian                  GFN2-xTB          :
         :: total energy            -138.720342788979 Eh    ::
         :: gradient norm              0.000242909121 Eh/a0 ::
         :: HOMO-LUMO gap              1.112139429060 eV    ::
         :: SCC energy              -140.719242502416 Eh    ::
         :: -> dispersion             -0.121275329507 Eh    ::
         :: repulsion energy           1.994252288319 Eh    ::

    * Orbital Energies and Occupations

         #    Occupation            Energy/Eh            Energy/eV
      -------------------------------------------------------------
         1        2.0000           -0.7888280             -21.4651
       ...           ...                  ...                  ...
       111        2.0000           -0.4303289             -11.7098
       112        2.0000           -0.4278642             -11.6428
       113        2.0000           -0.4234496             -11.5227
       114        2.0000           -0.4215770             -11.4717
       115        2.0000           -0.4205230             -11.4430
       116        2.0000           -0.4159980             -11.3199
       117        2.0000           -0.4133083             -11.2467
       118        2.0000           -0.4092953             -11.1375
       119        2.0000           -0.4059725             -11.0471
       120        2.0000           -0.4041838             -10.9984
       121        2.0000           -0.4033654             -10.9761
       122        2.0000           -0.3837944             -10.4436
       123        2.0000           -0.3774108             -10.2699 (HOMO)
       124                         -0.3365404              -9.1577 (LUMO)
       125                         -0.3302798              -8.9874
       126                         -0.2818469              -7.6694
       127                         -0.2723468              -7.4109
       128                         -0.2709146              -7.3720
       129                         -0.2667590              -7.2589
       130                         -0.2616055              -7.1186
       131                         -0.2549077              -6.9364
       132                         -0.2524349              -6.8691
       133                         -0.2338432              -6.3632
       134                         -0.2323889              -6.3236
       ...                                ...                  ...
       226                          0.6927175              18.8498
      -------------------------------------------------------------
                  HL-Gap            0.0408704 Eh            1.1121 eV

     #   Z          covCN         q      C6AA      Î±(0)
     1   6 C        2.921    -0.033    28.832     8.805
     2   6 C        2.915    -0.029    28.713     8.787
     3   6 C        2.917    -0.028    28.693     8.784
     4   6 C        2.917    -0.034    28.856     8.809
     5   6 C        2.984     0.012    27.750     8.641
     6   6 C        2.989     0.017    27.618     8.621
     7   6 C        2.921    -0.034    28.854     8.809
     8   6 C        2.914    -0.028    28.706     8.786
     9   6 C        2.923    -0.028    28.710     8.787
    10   6 C        2.969     0.006    27.886     8.662
    11   6 C        3.827     0.045    19.803     6.332
    12   6 C        3.842     0.047    19.761     6.324
    13   6 C        2.965     0.008    27.842     8.655
    14   6 C        2.926    -0.029    28.725     8.789
    15   6 C        2.914    -0.027    28.669     8.780
    16   6 C        2.921    -0.033    28.834     8.806
    17   6 C        2.989     0.017    27.628     8.622
    18   6 C        2.984     0.015    27.669     8.628
    19   6 C        2.917    -0.044    29.105     8.847
    20   6 C        2.917    -0.031    28.765     8.795
    21   6 C        2.915    -0.030    28.745     8.792
    22   6 C        2.921    -0.033    28.823     8.804
    23   7 N        2.763    -0.102    23.235     7.159
    24   6 C        2.762     0.284    22.184     7.713
    25   6 C        2.972    -0.006    28.162     8.705
    26   6 C        2.919     0.006    27.889     8.660
    27   7 N        2.760     0.546    13.518     5.461
    28   8 O        0.930    -0.401    21.667     6.243
    29   8 O        0.930    -0.367    21.003     6.146
    30   6 C        2.919    -0.016    28.422     8.742
    31   6 C        2.920    -0.018    28.466     8.749
    32   6 C        2.919    -0.013    28.347     8.731
    33   6 C        2.925    -0.021    28.540     8.761
    34   8 O        0.859    -0.396    21.601     6.231
    35   6 C        3.763     0.086    19.199     6.246
    36   6 C        2.688     0.356    20.956     7.492
    37   8 O        1.660    -0.335    19.625     5.980
    38   8 O        0.856    -0.413    21.945     6.281
    39   7 N        2.767    -0.106    23.318     7.172
    40   6 C        2.759     0.282    22.225     7.720
    41   6 C        2.972    -0.003    28.094     8.694
    42   6 C        2.925    -0.021    28.532     8.760
    43   6 C        2.919    -0.013    28.338     8.729
    44   6 C        2.920    -0.019    28.478     8.751
    45   6 C        2.919    -0.015    28.377     8.736
    46   6 C        2.921     0.015    27.678     8.627
    47   7 N        2.761     0.554    13.442     5.445
    48   8 O        0.930    -0.367    21.006     6.147
    49   8 O        0.931    -0.407    21.787     6.260
    50   8 O        0.859    -0.399    21.670     6.241
    51   1 H        0.926     0.036     2.497     2.471
    52   1 H        0.926     0.035     2.520     2.483
    53   1 H        0.926     0.033     2.539     2.492
    54   1 H        0.926     0.030     2.588     2.516
    55   1 H        0.926     0.039     2.468     2.457
    56   1 H        0.926     0.037     2.492     2.469
    57   1 H        0.926     0.026     2.650     2.546
    58   1 H        0.924     0.069     2.099     2.266
    59   1 H        0.923     0.058     2.226     2.333
    60   1 H        0.926     0.034     2.525     2.485
    61   1 H        0.926     0.039     2.468     2.456
    62   1 H        0.926     0.038     2.473     2.459
    63   1 H        0.926     0.046     2.374     2.409
    64   1 H        0.926     0.028     2.620     2.531
    65   1 H        0.926     0.032     2.565     2.504
    66   1 H        0.926     0.034     2.527     2.486
    67   1 H        0.926     0.086     1.919     2.166
    68   1 H        0.926     0.065     2.142     2.289
    69   1 H        0.926     0.063     2.161     2.299
    70   1 H        0.926     0.065     2.140     2.288
    71   1 H        0.923     0.071     2.078     2.254
    72   1 H        0.804     0.354     0.579     1.195
    73   1 H        0.926     0.058     2.225     2.333
    74   1 H        0.926     0.065     2.144     2.290
    75   1 H        0.926     0.064     2.156     2.296
    76   1 H        0.926     0.084     1.933     2.174

Wiberg/Mayer (AO) data.
largest (>0.10) Wiberg bond orders for each atom

     #   Z sym  total        # sym  WBO       # sym  WBO       # sym  WBO
 ---------------------------------------------------------------------------
     1   6 C    3.991 --     2 C    1.558     6 C    1.279    51 H    0.968
                             4 C    0.119
     2   6 C    3.992 --     1 C    1.558     3 C    1.322    52 H    0.971
     3   6 C    3.992 --     4 C    1.555     2 C    1.322    53 H    0.971
     4   6 C    3.992 --     3 C    1.555     5 C    1.283    54 H    0.961
                             1 C    0.119
     5   6 C    3.988 --     4 C    1.283    10 C    1.254     6 C    1.252
     6   6 C    3.990 --     7 C    1.281     1 C    1.279     5 C    1.252
     7   6 C    3.990 --     8 C    1.551     6 C    1.281    55 H    0.968
                            10 C    0.115
     8   6 C    3.992 --     7 C    1.551     9 C    1.329    56 H    0.970
     9   6 C    3.990 --    10 C    1.521     8 C    1.329    57 H    0.966
    10   6 C    3.982 --     9 C    1.521     5 C    1.254    11 C    0.992
                             7 C    0.115
    11   6 C    3.955 --    10 C    0.992    39 N    0.951    12 C    0.947
                            58 H    0.944
    12   6 C    3.957 --    13 C    0.997    59 H    0.950    11 C    0.947
                            23 N    0.946
    13   6 C    3.982 --    14 C    1.519    18 C    1.252    12 C    0.997
                            16 C    0.115
    14   6 C    3.989 --    13 C    1.519    15 C    1.328    60 H    0.967
    15   6 C    3.991 --    16 C    1.552    14 C    1.328    61 H    0.970
    16   6 C    3.990 --    15 C    1.552    17 C    1.279    62 H    0.968
                            13 C    0.115
    17   6 C    3.990 --    22 C    1.281    16 C    1.279    18 C    1.251
    18   6 C    3.989 --    19 C    1.285    13 C    1.252    17 C    1.251
    19   6 C    3.991 --    20 C    1.552    18 C    1.285    63 H    0.958
                            22 C    0.118
    20   6 C    3.992 --    19 C    1.552    21 C    1.324    64 H    0.971
    21   6 C    3.992 --    22 C    1.555    20 C    1.324    65 H    0.971
    22   6 C    3.991 --    21 C    1.555    17 C    1.281    66 H    0.968
                            19 C    0.118
    23   7 N    3.459 --    24 C    1.211    35 C    0.986    12 C    0.946
                            34 O    0.192
    24   6 C    3.953 --    34 O    1.708    23 N    1.211    25 C    0.940
    25   6 C    3.983 --    33 C    1.410    26 C    1.356    24 C    0.940
                            31 C    0.104
    26   6 C    3.961 --    30 C    1.376    25 C    1.356    27 N    0.969
    27   7 N    3.912 --    29 O    1.465    28 O    1.427    26 C    0.969
    28   8 O    1.932 --    27 N    1.427    29 O    0.354
    29   8 O    1.950 --    27 N    1.465    28 O    0.354
    30   6 C    3.984 --    31 C    1.456    26 C    1.376    67 H    0.959
                            33 C    0.105
    31   6 C    3.989 --    30 C    1.456    32 C    1.424    68 H    0.968
                            25 C    0.104
    32   6 C    3.988 --    33 C    1.439    31 C    1.424    69 H    0.968
    33   6 C    3.988 --    32 C    1.439    25 C    1.410    70 H    0.966
                            30 C    0.105
    34   8 O    2.053 --    24 C    1.708    23 N    0.192
    35   6 C    3.969 --    23 N    0.986    39 N    0.979    71 H    0.935
                            36 C    0.912
    36   6 C    3.922 --    38 O    1.751    37 O    1.185    35 C    0.912
    37   8 O    2.255 --    36 C    1.185    72 H    0.845    38 O    0.183
    38   8 O    2.034 --    36 C    1.751    37 O    0.183
    39   7 N    3.464 --    40 C    1.212    35 C    0.979    11 C    0.951
                            50 O    0.192
    40   6 C    3.953 --    50 O    1.700    39 N    1.212    41 C    0.945
    41   6 C    3.983 --    42 C    1.414    46 C    1.353    40 C    0.945
                            44 C    0.105
    42   6 C    3.989 --    43 C    1.436    41 C    1.414    73 H    0.965
                            45 C    0.105
    43   6 C    3.988 --    42 C    1.436    44 C    1.428    74 H    0.967
    44   6 C    3.989 --    45 C    1.451    43 C    1.428    75 H    0.968
                            41 C    0.105
    45   6 C    3.984 --    44 C    1.451    46 C    1.380    76 H    0.960
                            42 C    0.105
    46   6 C    3.962 --    45 C    1.380    41 C    1.353    47 N    0.971
    47   7 N    3.915 --    48 O    1.468    49 O    1.428    46 C    0.971
    48   8 O    1.949 --    47 N    1.468    49 O    0.354
    49   8 O    1.926 --    47 N    1.428    48 O    0.354
    50   8 O    2.047 --    40 C    1.700    39 N    0.192
    51   1 H    0.998 --     1 C    0.968
    52   1 H    0.998 --     2 C    0.971
    53   1 H    0.998 --     3 C    0.971
    54   1 H    0.999 --     4 C    0.961
    55   1 H    0.997 --     7 C    0.968
    56   1 H    0.998 --     8 C    0.970
    57   1 H    0.999 --     9 C    0.966
    58   1 H    0.995 --    11 C    0.944
    59   1 H    0.996 --    12 C    0.950
    60   1 H    0.998 --    14 C    0.967
    61   1 H    0.997 --    15 C    0.970
    62   1 H    0.997 --    16 C    0.968
    63   1 H    0.997 --    19 C    0.958
    64   1 H    0.999 --    20 C    0.971
    65   1 H    0.998 --    21 C    0.971
    66   1 H    0.998 --    22 C    0.968
    67   1 H    0.992 --    30 C    0.959
    68   1 H    0.995 --    31 C    0.968
    69   1 H    0.996 --    32 C    0.968
    70   1 H    0.995 --    33 C    0.966
    71   1 H    0.995 --    35 C    0.935
    72   1 H    0.874 --    37 O    0.845
    73   1 H    0.996 --    42 C    0.965
    74   1 H    0.995 --    43 C    0.967
    75   1 H    0.995 --    44 C    0.968
    76   1 H    0.992 --    45 C    0.960
 ---------------------------------------------------------------------------

molecular dipole:
                 x           y           z       tot (Debye)
 q only:        0.873       0.196      -0.008
   full:        1.094       0.607       0.003       3.180

           -------------------------------------------------
          | TOTAL ENERGY             -138.720342788979 Eh   |
          | GRADIENT NORM               0.000242909121 Eh/Î± |
          | HOMO-LUMO GAP               1.112139429060 eV   |
           -------------------------------------------------

 * finished run on 2022/03/16 at 22:24:01.660
