   * xtb version 6.3.3 (4ae9cef) compiled by 'conda@95abc7406d43' on 2020-10-14
          program call               : xtb acid_115.xyz --opt --chrg 0 --uhf 0 --gfn 2
          number of atoms            :                    90
          number of electrons        :                   250
          charge                     :                     0
          spin                       :                   0.0

   ID    Z sym.   atoms
    1    6 C      1-22, 24-33, 35, 36, 40-49
    2    7 N      23, 39
    3    8 O      34, 37, 38, 50
    4    1 H      51-90

          :  Hamiltonian                  GFN2-xTB          :
 * total energy  :  -136.7657313 Eh     change       -0.7318590E-08 Eh
 * total energy  :  -136.7825337 Eh     change       -0.1680248E-01 Eh
 * total energy  :  -136.7874922 Eh     change       -0.4958461E-02 Eh
 * total energy  :  -136.7890583 Eh     change       -0.1566066E-02 Eh
 * total energy  :  -136.7899075 Eh     change       -0.8491847E-03 Eh
 * total energy  :  -136.7902376 Eh     change       -0.3301418E-03 Eh
 * total energy  :  -136.7904640 Eh     change       -0.2264484E-03 Eh
 * total energy  :  -136.7906951 Eh     change       -0.2310629E-03 Eh
 * total energy  :  -136.7908662 Eh     change       -0.1711328E-03 Eh
 * total energy  :  -136.7910377 Eh     change       -0.1714410E-03 Eh
 * total energy  :  -136.8032381 Eh     change       -0.1005590E-04 Eh
 * total energy  :  -136.8032517 Eh     change       -0.1361445E-04 Eh
 * total energy  :  -136.8032637 Eh     change       -0.1200709E-04 Eh
 * total energy  :  -136.8032655 Eh     change       -0.1870133E-05 Eh
 * total energy  :  -136.8032727 Eh     change       -0.7127533E-05 Eh
 * total energy  :  -136.8032800 Eh     change       -0.7326494E-05 Eh
 * total energy  :  -136.8032891 Eh     change       -0.9078772E-05 Eh
 * total energy  :  -136.8032995 Eh     change       -0.1043880E-04 Eh
 * total energy  :  -136.8033002 Eh     change       -0.6942768E-06 Eh
   *** GEOMETRY OPTIMIZATION CONVERGED AFTER 152 ITERATIONS ***

 final structure:
================
90
 xtb: 6.3.3 (4ae9cef)
C        -0.64156023523652    0.63686025014654    1.86889770665008
C        -0.68919545640695    0.41458384537428    3.21458707141832
C        -1.04111483415531    1.44647781036479    4.10785847700923
C        -1.09670391602970    1.24878250653328    5.50272918998395
C        -1.44979824735371    2.27165294351706    6.33742138141310
C        -1.76456862391952    3.53640023367286    5.81540352432059
C        -1.71732803686894    3.75966750336696    4.46802837681195
C        -1.35403045735885    2.72586624805393    3.57982850372877
C        -1.29356750622910    2.92392768710331    2.18635681908758
C        -0.94310762174843    1.90699160226459    1.33881697483836
C        -0.83210059471710    2.15662602715231   -0.14648855091478
C         0.65063064125469    2.31893298385339   -0.56555700003495
C         0.87428284863430    3.26816835137468   -1.71888306162753
C         1.65997406949850    2.91882792651716   -2.78554044331113
C         1.86259366013028    3.80322556798858   -3.86370044094694
C         2.64209621224529    3.44392295472020   -4.98221780262078
C         2.81932764474082    4.32057796055105   -6.01544700916518
C         2.22900653819030    5.59390195753107   -5.97635843356960
C         1.46667349596799    5.97001892304983   -4.90608209254542
C         1.26237792440590    5.08778987217552   -3.82566329948170
C         0.49323011211563    5.43984400021212   -2.69715314513129
C         0.30450639666358    4.55700435420802   -1.67326018122441
N         1.03005175236075    0.94716391819766   -0.87417885002344
C         2.01095642676757    0.34776031826789   -0.12076792142699
C         2.08897353582423   -1.13598205461273   -0.15045383122586
C         2.03177702183677   -1.90134108606184   -1.31087057290562
C         2.11401481904900   -3.27952054946163   -1.21283262061056
C         2.25300121834598   -3.89082686176288    0.02141873660469
C         2.33574585867821   -3.13777245215970    1.18793264993043
C         2.54936346786518   -3.81025036011948    2.52128721401230
C         4.00045778523430   -3.60524872517062    2.96519167621864
C         1.58338124490707   -3.29651922928589    3.58947057933073
C         2.26156266031642   -1.75738120279513    1.08315977296169
O         2.75461823261523    1.02183157992128    0.56185067854981
C        -0.10623766672386    0.30165480745691   -1.48184520103118
C        -0.06340085159219    0.46888903895053   -3.03100377185438
O        -0.90709261847669    1.36450468769104   -3.52633072706869
O         0.67284373294989   -0.17777713543195   -3.71595554381329
N        -1.25447683962756    0.99058118386586   -0.92286134355366
C        -2.49488643849270    0.43316581498437   -0.74350969545195
C        -2.61080240837862   -0.94923383541196   -1.30336990150294
C        -2.53603547978625   -2.00738274780588   -0.40742380938051
C        -2.57359130023298   -3.32164360167651   -0.85286908476645
C        -2.49893397088006   -4.47272519904624    0.11868081778412
C        -3.81811258652216   -4.58437153842080    0.88800425688494
C        -1.31991536901795   -4.32312610638881    1.08102782012232
C        -2.70596509529809   -3.55277539061249   -2.21658101772303
C        -2.81168702687615   -2.50213995020953   -3.11071304892128
C        -2.76085483811082   -1.19432374550555   -2.66177023030717
O        -3.38224300130195    1.02862467358433   -0.17713487199765
H        -0.37454622990596   -0.17494649524651    1.20714918187314
H        -0.45669783435940   -0.56300514865046    3.61314521480111
H        -0.85478830022922    0.27265838065904    5.89888791729141
H        -1.49040078138970    2.11487685068493    7.40535222585486
H        -2.04441246569234    4.33194805151174    6.49030794596211
H        -1.95860821988414    4.73169246976186    4.06233977387736
H        -1.53444533918005    3.90143706546409    1.79253724135621
H        -1.44411424286766    3.02045301852894   -0.42038482816475
H         1.26217249257481    2.64521877028430    0.28527960016379
H         2.14578376545216    1.95480472285611   -2.81613710944467
H         3.08789813832720    2.46050354147176   -5.00744518440025
H         3.41500508097441    4.04038130161876   -6.87166295953263
H         2.38222094089255    6.27383916438106   -6.80157146515805
H         1.00893537543356    6.94847035498394   -4.87207569895055
H         0.05662689583453    6.42721517262684   -2.65260940652935
H        -0.26994717045641    4.85151002374645   -0.80701194704162
H         1.94665324506362   -1.43240805480319   -2.27876352165843
H         2.07013618811727   -3.87957194238506   -2.10934081424375
H         2.31305773498513   -4.96876369904970    0.07979586808768
H         2.37630275234698   -4.88472028282334    2.39226538365170
H         4.21579798458231   -2.54561913291856    3.07940561494710
H         4.17812525539301   -4.10105635013789    3.91686841388608
H         4.68549588647661   -4.01556710650958    2.22659143341278
H         1.78742036061134   -2.25654950781946    3.83115226641302
H         1.69166082345241   -3.88237125692421    4.49969423508646
H         0.55524115157325   -3.38212658508661    3.24492414000730
H         2.33661860934323   -1.13058051313836    1.95876164202320
H        -0.11316132106202   -0.77595004821990   -1.27063490449745
H        -1.42186983598289    1.79561296222336   -2.81970493171267
H        -2.44756090148070   -1.78772031903423    0.64633765828697
H        -2.35653333969734   -5.39431304254007   -0.45629423919104
H        -4.00351354851404   -3.67905675280569    1.46120832440977
H        -4.64731039143839   -4.72773188373799    0.19894268801812
H        -3.78601195577694   -5.42844607950489    1.57320019664074
H        -0.39456827368138   -4.16211629160681    0.53092973508503
H        -1.21338270918230   -5.22244311021283    1.68377299478876
H        -1.47350366006294   -3.48203349619980    1.75283309011448
H        -2.73455242020149   -4.56919546762201   -2.58215582019172
H        -2.92736646759422   -2.70052352934058   -4.16534395542555
H        -2.85199155199597   -0.37769851509161   -3.36167572348121

          :  Hamiltonian                  GFN2-xTB          :
         :: total energy            -136.803300216315 Eh    ::
         :: gradient norm              0.000595939012 Eh/a0 ::
         :: HOMO-LUMO gap              3.151453993238 eV    ::
         :: SCC energy              -139.026410482183 Eh    ::
         :: -> dispersion             -0.126891565954 Eh    ::
         :: repulsion energy           2.218186353456 Eh    ::

    * Orbital Energies and Occupations

         #    Occupation            Energy/Eh            Energy/eV
      -------------------------------------------------------------
         1        2.0000           -0.7688224             -20.9207
       ...           ...                  ...                  ...
       113        2.0000           -0.4201570             -11.4331
       114        2.0000           -0.4194204             -11.4130
       115        2.0000           -0.4178080             -11.3691
       116        2.0000           -0.4150052             -11.2929
       117        2.0000           -0.4123726             -11.2212
       118        2.0000           -0.4110279             -11.1846
       119        2.0000           -0.4066594             -11.0658
       120        2.0000           -0.4057182             -11.0402
       121        2.0000           -0.4038418             -10.9891
       122        2.0000           -0.4011117             -10.9148
       123        2.0000           -0.3970848             -10.8052
       124        2.0000           -0.3853063             -10.4847
       125        2.0000           -0.3834972             -10.4355 (HOMO)
       126                         -0.2676834              -7.2840 (LUMO)
       127                         -0.2659522              -7.2369
       128                         -0.2611636              -7.1066
       129                         -0.2570295              -6.9941
       130                         -0.2449917              -6.6666
       131                         -0.2380511              -6.4777
       132                         -0.2367072              -6.4411
       133                         -0.2348749              -6.3913
       134                         -0.2326947              -6.3319
       135                         -0.2271035              -6.1798
       136                         -0.2013475              -5.4789
       ...                                ...                  ...
       240                          0.6927047              18.8495
      -------------------------------------------------------------
                  HL-Gap            0.1158138 Eh            3.1515 eV

     #   Z          covCN         q      C6AA      Î±(0)
     1   6 C        2.919    -0.029    28.725     8.789
     2   6 C        2.917    -0.033    28.815     8.803
     3   6 C        2.988     0.015    27.676     8.630
     4   6 C        2.918    -0.033    28.829     8.805
     5   6 C        2.916    -0.028    28.705     8.786
     6   6 C        2.916    -0.028    28.694     8.784
     7   6 C        2.918    -0.033    28.819     8.803
     8   6 C        2.987     0.017    27.613     8.620
     9   6 C        2.923    -0.037    28.927     8.820
    10   6 C        2.969     0.005    27.910     8.666
    11   6 C        3.826     0.044    19.822     6.335
    12   6 C        3.846     0.037    19.923     6.349
    13   6 C        2.966    -0.008    28.219     8.713
    14   6 C        2.923    -0.038    28.936     8.821
    15   6 C        2.988     0.018    27.601     8.618
    16   6 C        2.919    -0.031    28.767     8.795
    17   6 C        2.916    -0.027    28.675     8.781
    18   6 C        2.916    -0.028    28.696     8.784
    19   6 C        2.918    -0.034    28.850     8.808
    20   6 C        2.988     0.013    27.709     8.635
    21   6 C        2.917    -0.034    28.849     8.808
    22   6 C        2.919    -0.042    29.052     8.839
    23   7 N        2.764    -0.124    23.692     7.229
    24   6 C        2.768     0.272    22.397     7.751
    25   6 C        2.973    -0.022    28.547     8.764
    26   6 C        2.919    -0.042    29.038     8.837
    27   6 C        2.918    -0.029    28.727     8.789
    28   6 C        2.925    -0.036    28.886     8.814
    29   6 C        2.971     0.014    27.688     8.631
    30   6 C        3.855    -0.014    20.785     6.484
    31   6 C        3.757    -0.104    22.532     6.768
    32   6 C        3.755    -0.103    22.531     6.768
    33   6 C        2.934    -0.027    28.665     8.781
    34   8 O        0.859    -0.420    22.078     6.300
    35   6 C        3.769     0.077    19.338     6.267
    36   6 C        2.685     0.350    21.057     7.510
    37   8 O        1.659    -0.349    19.895     6.021
    38   8 O        0.856    -0.356    20.827     6.119
    39   7 N        2.763    -0.154    24.330     7.326
    40   6 C        2.762     0.272    22.405     7.752
    41   6 C        2.977    -0.026    28.647     8.780
    42   6 C        2.931    -0.032    28.799     8.801
    43   6 C        2.973     0.015    27.673     8.629
    44   6 C        3.855    -0.014    20.789     6.485
    45   6 C        3.757    -0.103    22.524     6.767
    46   6 C        3.755    -0.101    22.481     6.761
    47   6 C        2.926    -0.036    28.896     8.815
    48   6 C        2.919    -0.026    28.650     8.777
    49   6 C        2.920    -0.037    28.924     8.819
    50   8 O        0.859    -0.411    21.904     6.275
    51   1 H        0.926     0.018     2.767     2.601
    52   1 H        0.926     0.035     2.523     2.484
    53   1 H        0.926     0.033     2.537     2.491
    54   1 H        0.926     0.033     2.540     2.492
    55   1 H        0.926     0.034     2.533     2.489
    56   1 H        0.926     0.035     2.518     2.481
    57   1 H        0.926     0.034     2.531     2.488
    58   1 H        0.924     0.057     2.232     2.337
    59   1 H        0.924     0.088     1.901     2.156
    60   1 H        0.926     0.040     2.453     2.449
    61   1 H        0.926     0.041     2.433     2.439
    62   1 H        0.926     0.035     2.514     2.479
    63   1 H        0.926     0.033     2.538     2.491
    64   1 H        0.926     0.034     2.537     2.491
    65   1 H        0.926     0.037     2.483     2.464
    66   1 H        0.926     0.029     2.599     2.521
    67   1 H        0.926     0.056     2.246     2.344
    68   1 H        0.926     0.039     2.459     2.452
    69   1 H        0.926     0.035     2.523     2.484
    70   1 H        0.924     0.033     2.542     2.493
    71   1 H        0.925     0.043     2.407     2.426
    72   1 H        0.925     0.040     2.453     2.449
    73   1 H        0.925     0.035     2.514     2.479
    74   1 H        0.925     0.040     2.447     2.446
    75   1 H        0.925     0.038     2.481     2.463
    76   1 H        0.925     0.033     2.545     2.495
    77   1 H        0.926     0.052     2.291     2.367
    78   1 H        0.923     0.066     2.132     2.284
    79   1 H        0.804     0.337     0.621     1.237
    80   1 H        0.926     0.039     2.460     2.453
    81   1 H        0.924     0.035     2.512     2.479
    82   1 H        0.925     0.041     2.434     2.440
    83   1 H        0.925     0.037     2.495     2.470
    84   1 H        0.925     0.041     2.439     2.442
    85   1 H        0.925     0.033     2.545     2.495
    86   1 H        0.925     0.039     2.464     2.455
    87   1 H        0.925     0.035     2.522     2.484
    88   1 H        0.926     0.038     2.472     2.459
    89   1 H        0.926     0.044     2.401     2.423
    90   1 H        0.926     0.035     2.510     2.477

Wiberg/Mayer (AO) data.
largest (>0.10) Wiberg bond orders for each atom

     #   Z sym  total        # sym  WBO       # sym  WBO       # sym  WBO
 ---------------------------------------------------------------------------
     1   6 C    3.992 --     2 C    1.562    10 C    1.296    51 H    0.966
     2   6 C    3.992 --     1 C    1.562     3 C    1.278    52 H    0.967
                             9 C    0.115
     3   6 C    3.990 --     4 C    1.281     2 C    1.278     8 C    1.250
     4   6 C    3.992 --     5 C    1.557     3 C    1.281    53 H    0.968
                             7 C    0.118
     5   6 C    3.990 --     4 C    1.557     6 C    1.320    54 H    0.971
     6   6 C    3.992 --     7 C    1.558     5 C    1.320    55 H    0.971
     7   6 C    3.990 --     6 C    1.558     8 C    1.278    56 H    0.968
                             4 C    0.118
     8   6 C    3.990 --     9 C    1.283     7 C    1.278     3 C    1.250
     9   6 C    3.990 --    10 C    1.524     8 C    1.283    57 H    0.966
                             2 C    0.115
    10   6 C    3.985 --     9 C    1.524     1 C    1.296    11 C    0.989
    11   6 C    3.961 --    10 C    0.989    58 H    0.954    39 N    0.953
                            12 C    0.950
    12   6 C    3.957 --    13 C    0.987    23 N    0.967    11 C    0.950
                            59 H    0.937
    13   6 C    3.983 --    14 C    1.527    22 C    1.291    12 C    0.987
    14   6 C    3.990 --    13 C    1.527    15 C    1.279    60 H    0.963
                            21 C    0.114
    15   6 C    3.990 --    14 C    1.279    16 C    1.279    20 C    1.252
    16   6 C    3.989 --    17 C    1.557    15 C    1.279    61 H    0.968
                            19 C    0.119
    17   6 C    3.992 --    16 C    1.557    18 C    1.321    62 H    0.971
    18   6 C    3.990 --    19 C    1.556    17 C    1.321    63 H    0.971
    19   6 C    3.992 --    18 C    1.556    20 C    1.281    64 H    0.968
                            16 C    0.119
    20   6 C    3.990 --    19 C    1.281    21 C    1.276    15 C    1.252
    21   6 C    3.991 --    22 C    1.564    20 C    1.276    65 H    0.968
                            14 C    0.114
    22   6 C    3.990 --    21 C    1.564    13 C    1.291    66 H    0.966
    23   7 N    3.439 --    24 C    1.164    35 C    0.992    12 C    0.967
                            34 O    0.176
    24   6 C    3.940 --    34 O    1.697    23 N    1.164    25 C    0.991
    25   6 C    3.987 --    33 C    1.395    26 C    1.391    24 C    0.991
                            28 C    0.103
    26   6 C    3.988 --    27 C    1.441    25 C    1.391    67 H    0.962
                            29 C    0.106
    27   6 C    3.991 --    28 C    1.442    26 C    1.441    68 H    0.970
                            33 C    0.108
    28   6 C    3.991 --    27 C    1.442    29 C    1.404    69 H    0.968
                            25 C    0.103
    29   6 C    3.987 --    33 C    1.420    28 C    1.404    30 C    0.999
                            26 C    0.106
    30   6 C    3.995 --    32 C    1.001    29 C    0.999    31 C    0.993
                            70 H    0.967
    31   6 C    3.995 --    30 C    0.993    73 H    0.987    71 H    0.986
                            72 H    0.985
    32   6 C    3.996 --    30 C    1.001    75 H    0.986    76 H    0.986
                            74 H    0.984
    33   6 C    3.989 --    29 C    1.420    25 C    1.395    77 H    0.963
                            27 C    0.108
    34   8 O    2.025 --    24 C    1.697    23 N    0.176
    35   6 C    3.967 --    23 N    0.992    39 N    0.978    78 H    0.935
                            36 C    0.897
    36   6 C    3.923 --    38 O    1.791    37 O    1.167    35 C    0.897
    37   8 O    2.239 --    36 C    1.167    79 H    0.841    38 O    0.172
    38   8 O    2.085 --    36 C    1.791    37 O    0.172
    39   7 N    3.438 --    40 C    1.172    35 C    0.978    11 C    0.953
                            50 O    0.182
    40   6 C    3.941 --    50 O    1.722    39 N    1.172    41 C    0.960
    41   6 C    3.987 --    42 C    1.408    49 C    1.404    40 C    0.960
                            47 C    0.107
    42   6 C    3.990 --    43 C    1.411    41 C    1.408    80 H    0.964
                            48 C    0.110
    43   6 C    3.986 --    47 C    1.411    42 C    1.411    44 C    0.999
                            49 C    0.108
    44   6 C    3.994 --    46 C    1.000    43 C    0.999    45 C    0.993
                            81 H    0.967
    45   6 C    3.995 --    44 C    0.993    83 H    0.987    82 H    0.986
                            84 H    0.985
    46   6 C    3.996 --    44 C    1.000    86 H    0.986    85 H    0.984
                            87 H    0.983
    47   6 C    3.991 --    48 C    1.444    43 C    1.411    88 H    0.968
                            41 C    0.107
    48   6 C    3.991 --    47 C    1.444    49 C    1.439    89 H    0.969
                            42 C    0.110
    49   6 C    3.990 --    48 C    1.439    41 C    1.404    90 H    0.969
                            43 C    0.108
    50   8 O    2.033 --    40 C    1.722    39 N    0.182
    51   1 H    0.999 --     1 C    0.966
    52   1 H    0.998 --     2 C    0.967
    53   1 H    0.998 --     4 C    0.968
    54   1 H    0.998 --     5 C    0.971
    55   1 H    0.998 --     6 C    0.971
    56   1 H    0.998 --     7 C    0.968
    57   1 H    0.998 --     9 C    0.966
    58   1 H    0.996 --    11 C    0.954
    59   1 H    0.989 --    12 C    0.937
    60   1 H    0.998 --    14 C    0.963
    61   1 H    0.998 --    16 C    0.968
    62   1 H    0.998 --    17 C    0.971
    63   1 H    0.998 --    18 C    0.971
    64   1 H    0.998 --    19 C    0.968
    65   1 H    0.998 --    21 C    0.968
    66   1 H    0.999 --    22 C    0.966
    67   1 H    0.996 --    26 C    0.962
    68   1 H    0.998 --    27 C    0.970
    69   1 H    0.998 --    28 C    0.968
    70   1 H    0.998 --    30 C    0.967
    71   1 H    0.998 --    31 C    0.986
    72   1 H    0.997 --    31 C    0.985
    73   1 H    0.999 --    31 C    0.987
    74   1 H    0.998 --    32 C    0.984
    75   1 H    0.998 --    32 C    0.986
    76   1 H    0.999 --    32 C    0.986
    77   1 H    0.997 --    33 C    0.963
    78   1 H    0.995 --    35 C    0.935
    79   1 H    0.887 --    37 O    0.841
    80   1 H    0.998 --    42 C    0.964
    81   1 H    0.998 --    44 C    0.967
    82   1 H    0.998 --    45 C    0.986
    83   1 H    0.999 --    45 C    0.987
    84   1 H    0.997 --    45 C    0.985
    85   1 H    0.999 --    46 C    0.984
    86   1 H    0.998 --    46 C    0.986
    87   1 H    0.999 --    46 C    0.983
    88   1 H    0.998 --    47 C    0.968
    89   1 H    0.997 --    48 C    0.969
    90   1 H    0.998 --    49 C    0.969
 ---------------------------------------------------------------------------

molecular dipole:
                 x           y           z       tot (Debye)
 q only:       -0.254      -0.578       0.487
   full:       -0.424      -0.729       0.620       2.662

           -------------------------------------------------
          | TOTAL ENERGY             -136.803300216315 Eh   |
          | GRADIENT NORM               0.000595939012 Eh/Î± |
          | HOMO-LUMO GAP               3.151453993238 eV   |
           -------------------------------------------------

 * finished run on 2022/03/16 at 21:28:22.014
