   * xtb version 6.3.3 (4ae9cef) compiled by 'conda@95abc7406d43' on 2020-10-14
          program call               : xtb acid_264.xyz --opt --chrg 0 --uhf 0 --gfn 2
          number of atoms            :                    60
          number of electrons        :                   182
          charge                     :                     0
          spin                       :                   0.0

   ID    Z sym.   atoms
    1    6 C      1-14, 16-18, 20-22, 24, 25, 29-31, 33-35
    2    7 N      15, 28
    3    8 O      19, 23, 26, 27, 32, 36
    4    1 H      37-60

          :  Hamiltonian                  GFN2-xTB          :
 * total energy  :  -102.4647817 Eh     change       -0.2277190E-08 Eh
 * total energy  :  -102.4760357 Eh     change       -0.1125401E-01 Eh
 * total energy  :  -102.4792199 Eh     change       -0.3184126E-02 Eh
 * total energy  :  -102.4800197 Eh     change       -0.7998465E-03 Eh
 * total energy  :  -102.4804867 Eh     change       -0.4669937E-03 Eh
 * total energy  :  -102.4807875 Eh     change       -0.3008167E-03 Eh
 * total energy  :  -102.4810811 Eh     change       -0.2936290E-03 Eh
 * total energy  :  -102.4813563 Eh     change       -0.2751297E-03 Eh
 * total energy  :  -102.4815875 Eh     change       -0.2312582E-03 Eh
 * total energy  :  -102.4817207 Eh     change       -0.1331660E-03 Eh
 * total energy  :  -102.4852413 Eh     change       -0.2873856E-04 Eh
 * total energy  :  -102.4852669 Eh     change       -0.2560935E-04 Eh
 * total energy  :  -102.4852863 Eh     change       -0.1934936E-04 Eh
 * total energy  :  -102.4852853 Eh     change        0.9480699E-06 Eh
 * total energy  :  -102.4853002 Eh     change       -0.1482280E-04 Eh
 * total energy  :  -102.4853126 Eh     change       -0.1246945E-04 Eh
 * total energy  :  -102.4853210 Eh     change       -0.8413543E-05 Eh
 * total energy  :  -102.4853384 Eh     change       -0.1736997E-04 Eh
 * total energy  :  -102.4853427 Eh     change       -0.4252193E-05 Eh
   *** GEOMETRY OPTIMIZATION CONVERGED AFTER 94 ITERATIONS ***

 final structure:
================
60
 xtb: 6.3.3 (4ae9cef)
C        -0.74527104509360   -1.43143500015252   -2.96992213709246
C        -1.37501723012870   -1.42878414689804   -4.20440423528789
C        -2.75254849091505   -1.52133459075966   -4.28850600559763
C        -3.50591413171437   -1.62034493235621   -3.12953533504893
C        -2.87993610943305   -1.62734100787236   -1.89780453250262
C        -1.49376265378526   -1.53367378685438   -1.80557095565159
C        -0.90149444097900   -1.48544443691997   -0.41685647987350
C         0.63379512845583   -1.51137974918733   -0.31688245871627
C         1.05253535366906   -2.08530569555737    1.01698581890186
C         1.15288331627152   -3.46401114265711    1.15564343279655
C         1.48601884649978   -4.02363938688936    2.37473524303543
C         1.72619652432314   -3.21022123171929    3.46948489952156
C         1.63086784331827   -1.83678150574860    3.33659998171654
C         1.29010152054468   -1.27581110018948    2.11789295888396
N         0.98244144532908   -0.10127960839266   -0.43687901563231
C         2.22443214079949    0.28726654916440   -0.83725827924534
C         2.48001907136297    1.74398738371465   -0.80984852847248
C         2.33467769716062    2.61653393085680    0.23125257332831
O         2.75868643326009    3.84066900450175   -0.11101699687655
C         3.18262965287671    3.76645771470530   -1.38931271577159
C         3.05309921971905    2.50311503375472   -1.87830141338946
C         3.38039349770924    1.98393400678282   -3.22901027833348
O         3.06756301740840   -0.52602327864156   -1.15266545826626
C        -0.20010572179717    0.72342111907071   -0.30027295577379
C        -0.60540572115493    1.31940901675625   -1.66535706346366
O        -1.87988203162917    1.70219082903311   -1.66815566447162
O         0.13435902208211    1.45885158302700   -2.59588400746585
N        -1.20129568351358   -0.18432179844645    0.18119757508107
C        -1.90070803782009   -0.10570660971554    1.35288040698212
C        -1.91093003011107    1.21063549342571    2.01799515232862
C        -2.12249003596402    2.45159208147810    1.48130977582366
O        -2.12109521251397    3.38702086719801    2.43657740002957
C        -1.90229390437993    2.75756780717618    3.60911400287435
C        -1.77579219785605    1.41389606385235    3.43004790386570
C        -1.52776883847500    0.36057127839452    4.44724400196862
O        -2.49810418934640   -1.06661413946122    1.79217396570945
H         0.32923770040154   -1.34086891429734   -2.93616666848623
H        -0.78096731619882   -1.34806443355860   -5.10226809390487
H        -3.23847229606933   -1.51685991454136   -5.25296094677338
H        -4.58172482046836   -1.69421884842769   -3.18663426484217
H        -3.46129469303314   -1.70120004548045   -0.99061593328405
H        -1.36231697125850   -2.25384672507309    0.21175016745470
H         1.10763494831921   -2.08425354230935   -1.11780942147569
H         0.96940506251148   -4.09820974291740    0.30031348545858
H         1.56208349844324   -5.09645675309906    2.47055936645372
H         1.98867542540887   -3.64547480314119    4.42207740100060
H         1.82458688513584   -1.19775778828584    4.18619598534129
H         1.22459029080340   -0.20119561830678    2.02304896851922
H         1.99761355583511    2.48402127180674    1.24154951513836
H         3.55743173636555    4.66691441559328   -1.83327587463824
H         3.92930459115652    2.72552989395461   -3.80270797186402
H         3.97302963704816    1.07623473170840   -3.13825529761175
H         2.45845381926899    1.73278666442016   -3.75139418250611
H        -0.05781352373615    1.56421764167169    0.39050553411051
H        -2.13270324794691    2.05093487160222   -2.53926218785694
H        -2.32441957187757    2.76227279915935    0.47551562851517
H        -1.86639216019850    3.36339568608928    4.49232213393240
H        -1.70626591017756    0.74773222037187    5.44663115372620
H        -2.18081914893846   -0.48830821654894    4.25901783641055
H        -0.49974151494790    0.00501153515081    4.38417609128179

          :  Hamiltonian                  GFN2-xTB          :
         :: total energy            -102.485342670615 Eh    ::
         :: gradient norm              0.000490006036 Eh/a0 ::
         :: HOMO-LUMO gap              3.351724928265 eV    ::
         :: SCC energy              -103.931051910808 Eh    ::
         :: -> dispersion             -0.083438687869 Eh    ::
         :: repulsion energy           1.442740209621 Eh    ::

    * Orbital Energies and Occupations

         #    Occupation            Energy/Eh            Energy/eV
      -------------------------------------------------------------
         1        2.0000           -0.7795800             -21.2135
       ...           ...                  ...                  ...
        79        2.0000           -0.4297018             -11.6928
        80        2.0000           -0.4275151             -11.6333
        81        2.0000           -0.4183844             -11.3848
        82        2.0000           -0.4170454             -11.3484
        83        2.0000           -0.4165654             -11.3353
        84        2.0000           -0.4149445             -11.2912
        85        2.0000           -0.4100453             -11.1579
        86        2.0000           -0.4051043             -11.0234
        87        2.0000           -0.4046788             -11.0119
        88        2.0000           -0.4015752             -10.9274
        89        2.0000           -0.3977837             -10.8242
        90        2.0000           -0.3972643             -10.8101
        91        2.0000           -0.3923251             -10.6757 (HOMO)
        92                         -0.2691515              -7.3240 (LUMO)
        93                         -0.2503116              -6.8113
        94                         -0.2369219              -6.4470
        95                         -0.2362611              -6.4290
        96                         -0.2330660              -6.3420
        97                         -0.2291178              -6.2346
        98                         -0.2277813              -6.1982
        99                         -0.2156690              -5.8687
       100                         -0.2050657              -5.5801
       101                         -0.1584589              -4.3119
       102                         -0.1518430              -4.1319
       ...                                ...                  ...
       168                          0.6843309              18.6216
      -------------------------------------------------------------
                  HL-Gap            0.1231736 Eh            3.3517 eV

     #   Z          covCN         q      C6AA      Î±(0)
     1   6 C        2.921    -0.036    28.891     8.814
     2   6 C        2.920    -0.028    28.709     8.787
     3   6 C        2.920    -0.031    28.782     8.798
     4   6 C        2.919    -0.029    28.729     8.790
     5   6 C        2.927    -0.034    28.842     8.807
     6   6 C        2.972    -0.002    28.081     8.692
     7   6 C        3.858     0.034    19.969     6.355
     8   6 C        3.835     0.039    19.901     6.347
     9   6 C        2.974     0.007    27.859     8.658
    10   6 C        2.925    -0.033    28.822     8.804
    11   6 C        2.920    -0.025    28.623     8.773
    12   6 C        2.920    -0.028    28.709     8.787
    13   6 C        2.920    -0.026    28.658     8.779
    14   6 C        2.923    -0.028    28.704     8.786
    15   7 N        2.770    -0.123    23.675     7.227
    16   6 C        2.756     0.280    22.261     7.726
    17   6 C        3.078    -0.055    29.281     8.872
    18   6 C        3.063     0.061    26.573     8.453
    19   8 O        1.728    -0.177    16.976     5.563
    20   6 C        3.077     0.053    26.738     8.478
    21   6 C        3.056     0.004    27.871     8.658
    22   6 C        3.754    -0.113    22.724     6.797
    23   8 O        0.859    -0.420    22.079     6.300
    24   6 C        3.783     0.086    19.164     6.236
    25   6 C        2.688     0.351    21.031     7.505
    26   8 O        1.659    -0.365    20.186     6.065
    27   8 O        0.856    -0.380    21.278     6.184
    28   7 N        2.776    -0.117    23.545     7.207
    29   6 C        2.757     0.277    22.322     7.737
    30   6 C        3.076    -0.059    29.381     8.887
    31   6 C        3.059     0.063    26.531     8.447
    32   8 O        1.728    -0.170    16.860     5.544
    33   6 C        3.075     0.053    26.731     8.477
    34   6 C        3.053    -0.001    28.008     8.679
    35   6 C        3.754    -0.112    22.697     6.793
    36   8 O        0.859    -0.420    22.084     6.301
    37   1 H        0.926     0.045     2.382     2.414
    38   1 H        0.926     0.040     2.448     2.447
    39   1 H        0.926     0.036     2.506     2.475
    40   1 H        0.926     0.038     2.482     2.464
    41   1 H        0.926     0.047     2.364     2.404
    42   1 H        0.924     0.086     1.920     2.167
    43   1 H        0.924     0.077     2.012     2.218
    44   1 H        0.926     0.035     2.514     2.479
    45   1 H        0.926     0.039     2.464     2.455
    46   1 H        0.926     0.037     2.490     2.468
    47   1 H        0.926     0.031     2.567     2.505
    48   1 H        0.926     0.020     2.732     2.585
    49   1 H        0.926     0.039     2.461     2.453
    50   1 H        0.926     0.053     2.286     2.364
    51   1 H        0.925     0.043     2.412     2.429
    52   1 H        0.925     0.071     2.080     2.255
    53   1 H        0.925     0.068     2.104     2.268
    54   1 H        0.924     0.069     2.096     2.264
    55   1 H        0.804     0.345     0.600     1.217
    56   1 H        0.926     0.058     2.226     2.333
    57   1 H        0.926     0.056     2.250     2.346
    58   1 H        0.925     0.046     2.368     2.406
    59   1 H        0.925     0.076     2.025     2.225
    60   1 H        0.925     0.053     2.281     2.362

Wiberg/Mayer (AO) data.
largest (>0.10) Wiberg bond orders for each atom

     #   Z sym  total        # sym  WBO       # sym  WBO       # sym  WBO
 ---------------------------------------------------------------------------
     1   6 C    3.990 --     2 C    1.434     6 C    1.422    37 H    0.964
                             4 C    0.109
     2   6 C    3.992 --     3 C    1.447     1 C    1.434    38 H    0.971
                             5 C    0.113
     3   6 C    3.991 --     2 C    1.447     4 C    1.430    39 H    0.971
                             6 C    0.109
     4   6 C    3.992 --     5 C    1.455     3 C    1.430    40 H    0.970
                             1 C    0.109
     5   6 C    3.990 --     4 C    1.455     6 C    1.402    41 H    0.968
                             2 C    0.113
     6   6 C    3.985 --     1 C    1.422     5 C    1.402     7 C    0.985
                             3 C    0.109
     7   6 C    3.958 --     6 C    0.985     8 C    0.960    28 N    0.949
                            42 H    0.947
     8   6 C    3.963 --     9 C    0.986    15 N    0.963     7 C    0.960
                            43 H    0.946
     9   6 C    3.986 --    14 C    1.419    10 C    1.406     8 C    0.986
                            12 C    0.110
    10   6 C    3.991 --    11 C    1.451     9 C    1.406    44 H    0.969
                            13 C    0.112
    11   6 C    3.992 --    10 C    1.451    12 C    1.434    45 H    0.971
                            14 C    0.110
    12   6 C    3.991 --    13 C    1.444    11 C    1.434    46 H    0.971
                             9 C    0.110
    13   6 C    3.992 --    12 C    1.444    14 C    1.438    47 H    0.970
                            10 C    0.112
    14   6 C    3.992 --    13 C    1.438     9 C    1.419    48 H    0.968
                            11 C    0.110
    15   7 N    3.449 --    16 C    1.192    24 C    0.982     8 C    0.963
                            23 O    0.185
    16   6 C    3.948 --    23 O    1.689    15 N    1.192    17 C    0.987
    17   6 C    3.978 --    18 C    1.560    21 C    1.224    16 C    0.987
    18   6 C    3.911 --    17 C    1.560    19 O    1.146    49 H    0.965
                            20 C    0.147
    19   8 O    2.448 --    18 C    1.146    20 C    1.115
    20   6 C    3.897 --    21 C    1.592    19 O    1.115    50 H    0.966
                            18 C    0.147
    21   6 C    3.983 --    20 C    1.592    17 C    1.224    22 C    1.037
    22   6 C    3.994 --    21 C    1.037    51 H    0.985    52 H    0.970
                            53 H    0.964
    23   8 O    2.017 --    16 C    1.689    15 N    0.185
    24   6 C    3.977 --    28 N    1.000    15 N    0.982    54 H    0.925
                            25 C    0.912
    25   6 C    3.919 --    27 O    1.784    26 O    1.150    24 C    0.912
    26   8 O    2.215 --    25 C    1.150    55 H    0.855    27 O    0.179
    27   8 O    2.070 --    25 C    1.784    26 O    0.179
    28   7 N    3.450 --    29 C    1.181    24 C    1.000     7 C    0.949
                            36 O    0.182
    29   6 C    3.947 --    36 O    1.685    28 N    1.181    30 C    1.002
    30   6 C    3.976 --    31 C    1.543    34 C    1.222    29 C    1.002
    31   6 C    3.914 --    30 C    1.543    32 O    1.158    56 H    0.962
                            33 C    0.143
    32   8 O    2.458 --    31 C    1.158    33 C    1.116
    33   6 C    3.897 --    34 C    1.594    32 O    1.116    57 H    0.966
                            31 C    0.143
    34   6 C    3.983 --    33 C    1.594    30 C    1.222    35 C    1.036
    35   6 C    3.994 --    34 C    1.036    58 H    0.984    59 H    0.970
                            60 H    0.965
    36   8 O    2.020 --    29 C    1.685    28 N    0.182
    37   1 H    0.998 --     1 C    0.964
    38   1 H    0.998 --     2 C    0.971
    39   1 H    0.998 --     3 C    0.971
    40   1 H    0.998 --     4 C    0.970
    41   1 H    0.998 --     5 C    0.968
    42   1 H    0.992 --     7 C    0.947
    43   1 H    0.994 --     8 C    0.946
    44   1 H    0.999 --    10 C    0.969
    45   1 H    0.998 --    11 C    0.971
    46   1 H    0.998 --    12 C    0.971
    47   1 H    0.999 --    13 C    0.970
    48   1 H    1.000 --    14 C    0.968
    49   1 H    0.998 --    18 C    0.965
    50   1 H    0.997 --    20 C    0.966
    51   1 H    0.998 --    22 C    0.985
    52   1 H    0.995 --    22 C    0.970
    53   1 H    0.995 --    22 C    0.964
    54   1 H    0.995 --    24 C    0.925
    55   1 H    0.880 --    26 O    0.855
    56   1 H    0.996 --    31 C    0.962
    57   1 H    0.996 --    33 C    0.966
    58   1 H    0.997 --    35 C    0.984
    59   1 H    0.994 --    35 C    0.970
    60   1 H    0.997 --    35 C    0.965
 ---------------------------------------------------------------------------

molecular dipole:
                 x           y           z       tot (Debye)
 q only:       -0.850       0.427      -0.211
   full:       -0.983       0.964      -0.215       3.542

           -------------------------------------------------
          | TOTAL ENERGY             -102.485342670615 Eh   |
          | GRADIENT NORM               0.000490006036 Eh/Î± |
          | HOMO-LUMO GAP               3.351724928265 eV   |
           -------------------------------------------------

 * finished run on 2022/03/16 at 23:09:06.297
