   * xtb version 6.3.3 (4ae9cef) compiled by 'conda@95abc7406d43' on 2020-10-14
          program call               : xtb acid_385.xyz --opt --chrg 0 --uhf 0 --gfn 2
          number of atoms            :                    66
          number of electrons        :                   230
          charge                     :                     0
          spin                       :                   0.0

   ID    Z sym.   atoms
    1    6 C      1, 2, 6-15, 19-22, 24-29, 32, 33, 37-42
    2    9 F      3-5, 16-18
    3    7 N      23, 36
    4   16 S      30, 43
    5    8 O      31, 34, 35, 44
    6    1 H      45-66

          :  Hamiltonian                  GFN2-xTB          :
 * total energy  :  -132.4916695 Eh     change       -0.4375096E-08 Eh
 * total energy  :  -132.5084358 Eh     change       -0.1676628E-01 Eh
 * total energy  :  -132.5139380 Eh     change       -0.5502227E-02 Eh
 * total energy  :  -132.5157217 Eh     change       -0.1783694E-02 Eh
 * total energy  :  -132.5167423 Eh     change       -0.1020608E-02 Eh
 * total energy  :  -132.5174384 Eh     change       -0.6960423E-03 Eh
 * total energy  :  -132.5180902 Eh     change       -0.6518544E-03 Eh
 * total energy  :  -132.5187211 Eh     change       -0.6308118E-03 Eh
 * total energy  :  -132.5192001 Eh     change       -0.4790156E-03 Eh
 * total energy  :  -132.5195252 Eh     change       -0.3251698E-03 Eh
 * total energy  :  -132.5243532 Eh     change       -0.1948990E-04 Eh
 * total energy  :  -132.5243710 Eh     change       -0.1784338E-04 Eh
 * total energy  :  -132.5243735 Eh     change       -0.2522048E-05 Eh
 * total energy  :  -132.5243963 Eh     change       -0.2273508E-04 Eh
 * total energy  :  -132.5244063 Eh     change       -0.1002617E-04 Eh
 * total energy  :  -132.5244139 Eh     change       -0.7561509E-05 Eh
 * total energy  :  -132.5244188 Eh     change       -0.4950169E-05 Eh
 * total energy  :  -132.5244240 Eh     change       -0.5216235E-05 Eh
 * total energy  :  -132.5244245 Eh     change       -0.4665008E-06 Eh
   *** GEOMETRY OPTIMIZATION CONVERGED AFTER 94 ITERATIONS ***

 final structure:
================
66
 xtb: 6.3.3 (4ae9cef)
C        -3.49777745434052    1.58620761891087   -0.59074866810443
C        -4.13931801072862    1.21344257773926    0.71575385922730
F        -5.41075313945383    1.61242572642567    0.81280488400076
F        -3.50913028950391    1.72493999147877    1.79211092806976
F        -4.15764867635451   -0.12517872951801    0.91943517408182
C        -4.25459571176076    2.26650918849503   -1.53605524932615
C        -3.70235244944423    2.60547268030751   -2.75612973089444
C        -2.39263955016280    2.25888373754880   -3.03869374114603
C        -1.64101716871800    1.57857883762347   -2.10125820943559
C        -2.17452836644723    1.24090585133831   -0.86289751296940
C        -1.31570814906570    0.47438308813339    0.11053199585508
C        -0.96458016658447   -0.93201707878492   -0.42650168876113
C        -1.72483366585664   -2.02086359313120    0.29432912996781
C        -2.78627071443661   -2.71288757690333   -0.29156650718262
C        -3.23904474673450   -2.41212688732414   -1.69369983920486
F        -2.29696877815273   -2.61368607616373   -2.62984118932119
F        -4.29236152510340   -3.14645713956441   -2.07200714160079
F        -3.62577811532064   -1.12288812739424   -1.84673632625754
C        -3.46216494843505   -3.69635895748407    0.41984964403742
C        -3.09272738546823   -4.00006817087087    1.71620317570026
C        -2.04558429798444   -3.31713741963316    2.30770444758778
C        -1.37511660236048   -2.33675722065705    1.60170280466183
N         0.47796135607913   -1.03889785242146   -0.23662534699541
C         1.08914971845210   -2.22730236880128   -0.53230655903531
C         2.54749740383600   -2.33892082295214   -0.42862293068858
C         3.17672746585224   -3.52587837430681   -0.17735898403713
C         4.58829936384738   -3.44148292612360   -0.19327700300898
C         5.48749130109478   -4.60068894888999    0.07529616735957
C         5.00905319497130   -2.18190485422277   -0.48929990434064
S         3.71012678196758   -1.08610809079138   -0.72711987426298
O         0.41699178255982   -3.17772474985286   -0.88572360748796
C         1.02696288796871    0.13094955092529    0.40548310078514
C         1.39581161621747   -0.21036972349735    1.88786701606949
O         0.75311465226568    0.48761661506269    2.81843374659212
O         2.18336323332053   -1.06725008791917    2.15520344004740
N        -0.01272503600816    1.11487779925087    0.31052135251377
C         0.08751462780394    2.48111254861766    0.38802865857318
C         1.40324690148296    3.11207438169399    0.54147565108354
C         1.57862389902642    4.45333682141460    0.31197287722054
C         2.88807031290499    4.91269389573200    0.56601430601259
C         3.32034033353607    6.32741103379216    0.37803253761973
C         3.69173867491353    3.90461005483994    1.00989728933279
S         2.88668997719763    2.39597374511764    1.10720047878784
O        -0.91464237446093    3.17117241918241    0.33819424550613
H        -5.27668208781474    2.52821218829564   -1.31180657967844
H        -4.29557081339212    3.13623432768787   -3.48408926964748
H        -1.95580177864997    2.51576886029144   -3.99166118989876
H        -0.61766964684026    1.31250195526546   -2.32361676130492
H        -1.81405658569022    0.37574770136889    1.08080488511904
H        -1.15586580400267   -0.98740483800000   -1.50245049230124
H        -4.27842205648599   -4.22515617999941   -0.04664867955651
H        -3.62119116017269   -4.76807448169603    2.25878577452703
H        -1.74622338330692   -3.54523487956521    3.31912216703612
H        -0.55018540903610   -1.82396225423873    2.07244408042834
H         2.62913300290711   -4.42864852718217    0.02404247364289
H         6.53055744839565   -4.30315751275600    0.00764578603201
H         5.29907833210421   -5.39607654660858   -0.64440723623699
H         5.29712972716617   -4.99666600631589    1.07163519799267
H         6.01469245777222   -1.82221901068380   -0.58481212543578
H         1.94135936656790    0.46095338331152   -0.10423812719792
H         0.14101173032639    1.14763022728088    2.45193085149547
H         0.77457914681590    5.07851202472417   -0.03221156345762
H         3.18685141999996    6.62520383694091   -0.66087005369261
H         2.71508181415792    6.98831381625919    0.99637089271716
H         4.36549492791820    6.45002034158590    0.64851798429068
H         4.72619218884903    3.95688018759164    1.28793608848978

          :  Hamiltonian                  GFN2-xTB          :
         :: total energy            -132.524424508067 Eh    ::
         :: gradient norm              0.000461304612 Eh/a0 ::
         :: HOMO-LUMO gap              2.692115505738 eV    ::
         :: SCC energy              -134.030099418136 Eh    ::
         :: -> dispersion             -0.099585653950 Eh    ::
         :: repulsion energy           1.502990775766 Eh    ::

    * Orbital Energies and Occupations

         #    Occupation            Energy/Eh            Energy/eV
      -------------------------------------------------------------
         1        2.0000           -0.8779510             -23.8903
       ...           ...                  ...                  ...
       103        2.0000           -0.4509922             -12.2721
       104        2.0000           -0.4420632             -12.0292
       105        2.0000           -0.4371049             -11.8942
       106        2.0000           -0.4363431             -11.8735
       107        2.0000           -0.4331892             -11.7877
       108        2.0000           -0.4286013             -11.6628
       109        2.0000           -0.4233178             -11.5191
       110        2.0000           -0.4170544             -11.3486
       111        2.0000           -0.4129137             -11.2360
       112        2.0000           -0.4102775             -11.1642
       113        2.0000           -0.4086574             -11.1201
       114        2.0000           -0.4030725             -10.9682
       115        2.0000           -0.3932820             -10.7017 (HOMO)
       116                         -0.2943486              -8.0096 (LUMO)
       117                         -0.2775992              -7.5539
       118                         -0.2669850              -7.2650
       119                         -0.2645872              -7.1998
       120                         -0.2599796              -7.0744
       121                         -0.2549704              -6.9381
       122                         -0.2502388              -6.8093
       123                         -0.2307138              -6.2780
       124                         -0.2193700              -5.9694
       125                         -0.2176757              -5.9233
       126                         -0.2043527              -5.5607
       ...                                ...                  ...
       208                          0.6821772              18.5630
      -------------------------------------------------------------
                  HL-Gap            0.0989334 Eh            2.6921 eV

     #   Z          covCN         q      C6AA      Î±(0)
     1   6 C        2.977    -0.021    28.517     8.760
     2   6 C        3.335     0.486    17.288     6.586
     3   9 F        0.792    -0.197    11.206     3.954
     4   9 F        0.791    -0.210    11.336     3.977
     5   9 F        0.791    -0.223    11.470     4.001
     6   6 C        2.923    -0.017    28.431     8.744
     7   6 C        2.921    -0.020    28.497     8.754
     8   6 C        2.919    -0.015    28.398     8.739
     9   6 C        2.927    -0.022    28.544     8.762
    10   6 C        2.972     0.029    27.359     8.580
    11   6 C        3.824     0.048    19.752     6.324
    12   6 C        3.824     0.047    19.775     6.328
    13   6 C        2.970     0.024    27.473     8.598
    14   6 C        2.976    -0.021    28.534     8.762
    15   6 C        3.335     0.486    17.296     6.587
    16   9 F        0.791    -0.202    11.259     3.964
    17   9 F        0.792    -0.200    11.231     3.959
    18   9 F        0.791    -0.225    11.501     4.006
    19   6 C        2.924    -0.018    28.459     8.748
    20   6 C        2.920    -0.020    28.517     8.757
    21   6 C        2.919    -0.016    28.407     8.740
    22   6 C        2.927    -0.023    28.570     8.766
    23   7 N        2.760    -0.123    23.672     7.226
    24   6 C        2.773     0.272    22.412     7.754
    25   6 C        2.983    -0.006    28.171     8.706
    26   6 C        3.135    -0.033    28.583     8.751
    27   6 C        3.145     0.012    27.480     8.577
    28   6 C        3.755    -0.108    22.628     6.783
    29   6 C        2.949    -0.021    28.521     8.759
    30  16 S        2.312    -0.042   142.790    20.112
    31   8 O        0.861    -0.421    22.113     6.305
    32   6 C        3.752     0.068    19.505     6.298
    33   6 C        2.684     0.347    21.104     7.518
    34   8 O        1.659    -0.346    19.833     6.012
    35   8 O        0.856    -0.347    20.655     6.093
    36   7 N        2.758    -0.134    23.898     7.260
    37   6 C        2.767     0.260    22.616     7.788
    38   6 C        2.981    -0.025    28.630     8.777
    39   6 C        3.128    -0.035    28.672     8.767
    40   6 C        3.139     0.012    27.517     8.585
    41   6 C        3.756    -0.110    22.668     6.789
    42   6 C        2.950    -0.020    28.518     8.759
    43  16 S        2.298    -0.032   142.394    20.084
    44   8 O        0.861    -0.428    22.246     6.324
    45   1 H        0.926     0.070     2.087     2.259
    46   1 H        0.926     0.059     2.207     2.323
    47   1 H        0.926     0.057     2.235     2.338
    48   1 H        0.926     0.048     2.344     2.394
    49   1 H        0.924     0.056     2.244     2.343
    50   1 H        0.924     0.073     2.054     2.241
    51   1 H        0.926     0.070     2.088     2.260
    52   1 H        0.926     0.059     2.211     2.325
    53   1 H        0.926     0.059     2.212     2.326
    54   1 H        0.926     0.045     2.383     2.414
    55   1 H        0.926     0.063     2.167     2.302
    56   1 H        0.925     0.046     2.372     2.408
    57   1 H        0.925     0.056     2.248     2.344
    58   1 H        0.925     0.057     2.229     2.335
    59   1 H        0.926     0.051     2.304     2.374
    60   1 H        0.924     0.093     1.851     2.128
    61   1 H        0.804     0.336     0.622     1.239
    62   1 H        0.926     0.070     2.080     2.255
    63   1 H        0.925     0.058     2.217     2.329
    64   1 H        0.925     0.060     2.199     2.319
    65   1 H        0.925     0.049     2.327     2.385
    66   1 H        0.926     0.057     2.237     2.339

Wiberg/Mayer (AO) data.
largest (>0.10) Wiberg bond orders for each atom

     #   Z sym  total        # sym  WBO       # sym  WBO       # sym  WBO
 ---------------------------------------------------------------------------
     1   6 C    3.970 --     6 C    1.412    10 C    1.385     2 C    0.953
                             8 C    0.104
     2   6 C    3.821 --     3 F    0.960     1 C    0.953     4 F    0.940
                             5 F    0.929
     3   9 F    1.083 --     2 C    0.960
     4   9 F    1.070 --     2 C    0.940
     5   9 F    1.056 --     2 C    0.929
     6   6 C    3.987 --     7 C    1.444     1 C    1.412    45 H    0.965
                             9 C    0.109
     7   6 C    3.988 --     6 C    1.444     8 C    1.431    46 H    0.969
                            10 C    0.108
     8   6 C    3.990 --     9 C    1.450     7 C    1.431    47 H    0.969
                             1 C    0.104
     9   6 C    3.990 --     8 C    1.450    10 C    1.407    48 H    0.967
                             6 C    0.109
    10   6 C    3.986 --     9 C    1.407     1 C    1.385    11 C    0.995
                             7 C    0.108
    11   6 C    3.966 --    10 C    0.995    49 H    0.954    36 N    0.953
                            12 C    0.953
    12   6 C    3.966 --    13 C    0.990    23 N    0.961    11 C    0.953
                            50 H    0.951
    13   6 C    3.986 --    22 C    1.413    14 C    1.383    12 C    0.990
                            20 C    0.108
    14   6 C    3.970 --    19 C    1.415    13 C    1.383    15 C    0.952
                            21 C    0.106
    15   6 C    3.821 --    17 F    0.957    14 C    0.952    16 F    0.948
                            18 F    0.926
    16   9 F    1.078 --    15 C    0.948
    17   9 F    1.079 --    15 C    0.957
    18   9 F    1.053 --    15 C    0.926
    19   6 C    3.987 --    20 C    1.442    14 C    1.415    51 H    0.965
                            22 C    0.109
    20   6 C    3.988 --    19 C    1.442    21 C    1.435    52 H    0.969
                            13 C    0.108
    21   6 C    3.990 --    22 C    1.445    20 C    1.435    53 H    0.969
                            14 C    0.106
    22   6 C    3.991 --    21 C    1.445    13 C    1.413    54 H    0.964
                            19 C    0.109
    23   7 N    3.436 --    24 C    1.169    32 C    0.984    12 C    0.961
                            31 O    0.176
    24   6 C    3.950 --    31 O    1.662    23 N    1.169    25 C    1.032
    25   6 C    3.945 --    26 C    1.559    30 S    1.137    24 C    1.032
                            29 C    0.109
    26   6 C    3.986 --    25 C    1.559    27 C    1.261    55 H    0.961
    27   6 C    3.987 --    29 C    1.585    26 C    1.261    28 C    1.023
    28   6 C    3.995 --    27 C    1.023    56 H    0.985    57 H    0.971
                            58 H    0.970
    29   6 C    3.942 --    27 C    1.585    30 S    1.184    59 H    0.968
                            25 C    0.109
    30  16 S    2.627 --    29 C    1.184    25 C    1.137
    31   8 O    2.023 --    24 C    1.662    23 N    0.176
    32   6 C    3.963 --    36 N    0.999    23 N    0.984    60 H    0.919
                            33 C    0.886
    33   6 C    3.923 --    35 O    1.801    34 O    1.161    32 C    0.886
    34   8 O    2.241 --    33 C    1.161    61 H    0.848    35 O    0.174
    35   8 O    2.096 --    33 C    1.801    34 O    0.174
    36   7 N    3.453 --    37 C    1.165    32 C    0.999    11 C    0.953
                            44 O    0.178
    37   6 C    3.953 --    44 O    1.648    36 N    1.165    38 C    1.044
    38   6 C    3.940 --    39 C    1.533    43 S    1.139    37 C    1.044
                            42 C    0.108
    39   6 C    3.984 --    38 C    1.533    40 C    1.278    62 H    0.960
                            43 S    0.109
    40   6 C    3.986 --    42 C    1.566    39 C    1.278    41 C    1.024
    41   6 C    3.994 --    40 C    1.024    65 H    0.985    63 H    0.970
                            64 H    0.970
    42   6 C    3.944 --    40 C    1.566    43 S    1.204    66 H    0.967
                            38 C    0.108
    43  16 S    2.662 --    42 C    1.204    38 C    1.139    39 C    0.109
    44   8 O    2.018 --    37 C    1.648    36 N    0.178
    45   1 H    0.995 --     6 C    0.965
    46   1 H    0.996 --     7 C    0.969
    47   1 H    0.996 --     8 C    0.969
    48   1 H    0.997 --     9 C    0.967
    49   1 H    0.995 --    11 C    0.954
    50   1 H    0.994 --    12 C    0.951
    51   1 H    0.995 --    19 C    0.965
    52   1 H    0.996 --    20 C    0.969
    53   1 H    0.996 --    21 C    0.969
    54   1 H    0.998 --    22 C    0.964
    55   1 H    0.996 --    26 C    0.961
    56   1 H    0.998 --    28 C    0.985
    57   1 H    0.997 --    28 C    0.971
    58   1 H    0.997 --    28 C    0.970
    59   1 H    0.997 --    29 C    0.968
    60   1 H    0.991 --    32 C    0.919
    61   1 H    0.887 --    34 O    0.848
    62   1 H    0.995 --    39 C    0.960
    63   1 H    0.996 --    41 C    0.970
    64   1 H    0.996 --    41 C    0.970
    65   1 H    0.997 --    41 C    0.985
    66   1 H    0.996 --    42 C    0.967
 ---------------------------------------------------------------------------

molecular dipole:
                 x           y           z       tot (Debye)
 q only:        1.903       1.275      -0.168
   full:        2.072       1.463      -0.152       6.458

           -------------------------------------------------
          | TOTAL ENERGY             -132.524424508067 Eh   |
          | GRADIENT NORM               0.000461304612 Eh/Î± |
          | HOMO-LUMO GAP               2.692115505738 eV   |
           -------------------------------------------------

 * finished run on 2022/03/17 at 00:34:17.530
