   * xtb version 6.3.3 (4ae9cef) compiled by 'conda@95abc7406d43' on 2020-10-14
          program call               : xtb acid_52.xyz --opt --chrg 0 --uhf 0 --gfn 2
          number of atoms            :                    72
          number of electrons        :                   226
          charge                     :                     0
          spin                       :                   0.0

   ID    Z sym.   atoms
    1    6 C      1-22, 24-26, 28-31, 33, 34, 38-44
    2    7 N      23, 37
    3    9 F      27, 45
    4    8 O      32, 35, 36, 46
    5    1 H      47-72

          :  Hamiltonian                  GFN2-xTB          :
 * total energy  :  -126.2289760 Eh     change       -0.5877098E-08 Eh
 * total energy  :  -126.2469335 Eh     change       -0.1795748E-01 Eh
 * total energy  :  -126.2525844 Eh     change       -0.5650836E-02 Eh
 * total energy  :  -126.2544257 Eh     change       -0.1841354E-02 Eh
 * total energy  :  -126.2557371 Eh     change       -0.1311345E-02 Eh
 * total energy  :  -126.2563914 Eh     change       -0.6543075E-03 Eh
 * total energy  :  -126.2569167 Eh     change       -0.5253383E-03 Eh
 * total energy  :  -126.2574162 Eh     change       -0.4995068E-03 Eh
 * total energy  :  -126.2578967 Eh     change       -0.4804464E-03 Eh
 * total energy  :  -126.2582651 Eh     change       -0.3684697E-03 Eh
 * total energy  :  -126.2605835 Eh     change       -0.1452884E-04 Eh
 * total energy  :  -126.2605979 Eh     change       -0.1439891E-04 Eh
 * total energy  :  -126.2606230 Eh     change       -0.2510036E-04 Eh
 * total energy  :  -126.2606437 Eh     change       -0.2064825E-04 Eh
 * total energy  :  -126.2606586 Eh     change       -0.1498243E-04 Eh
 * total energy  :  -126.2606683 Eh     change       -0.9630141E-05 Eh
 * total energy  :  -126.2606749 Eh     change       -0.6600787E-05 Eh
 * total energy  :  -126.2606830 Eh     change       -0.8171942E-05 Eh
 * total energy  :  -126.2606866 Eh     change       -0.3578033E-05 Eh
   *** GEOMETRY OPTIMIZATION CONVERGED AFTER 46 ITERATIONS ***

 final structure:
================
72
 xtb: 6.3.3 (4ae9cef)
C        -4.82220737816953   -2.49852383833279    0.25379445521194
C        -4.40169238920965   -2.99260483910223    1.45477674345946
C        -3.10795147538216   -2.70432369269126    1.91090436080623
C        -2.27178421341391   -1.90659957323999    1.18092372528754
C        -2.68344401649679   -1.35001354349099   -0.04985819431414
C        -3.98002172715155   -1.68337662145050   -0.53122814607105
C        -4.40673005748963   -1.20207785895375   -1.78571964682258
C        -3.58482862196532   -0.42401126598781   -2.54935061792434
C        -2.32518288249416   -0.05675904578513   -2.06299489464619
C        -1.88176368358683   -0.47726262933985   -0.83305131858349
C        -0.55263995958644    0.02942474600241   -0.33732957731663
C         0.63977850557183   -0.57876368931705   -1.09984191348585
C         1.14604010119062   -1.84039073811630   -0.45274190434061
C         0.91127189852343   -3.02374791529929   -1.10680406714294
C         1.29236915188194   -4.25302873821391   -0.55689556279519
C         1.91559211657168   -4.29114489968019    0.65622653593589
C         2.17476799548782   -3.10173189999742    1.36697506504190
C         1.78050992128741   -1.84845643098423    0.81944189501161
C         2.05007314138882   -0.68536384911447    1.57467612323150
C         2.68107037143769   -0.75701725386007    2.78572002337508
C         3.07447068383208   -1.99249770653511    3.31681314366638
C         2.82178665680392   -3.13941584055882    2.62002053393899
N         1.59517266411728    0.52397262519011   -1.16981572762455
C         2.88830456955185    0.31962290515128   -1.53031746334809
C         3.70720743423601    1.57468951320181   -1.62169771175898
C         4.52400907056638    1.96022532413290   -0.56621562161885
F         4.52968725646960    1.23431107201433    0.56517409208049
C         5.32193300912792    3.08801394953149   -0.63819474261278
C         5.31517902911773    3.84127100082645   -1.79880598364475
C         4.52317322150179    3.46361009542365   -2.87056131261730
C         3.72670851035309    2.33591282314114   -2.78343601648413
O         3.34246349765121   -0.77738544855226   -1.75786911802000
C         0.90974960620763    1.79276732526172   -1.11542937960875
C         1.57032822292512    2.83440624801149   -0.18607452253052
O         1.94038191814763    3.92119793965237   -0.84830306769401
O         1.73330271608847    2.65812391120818    0.98816839835229
N        -0.39058597855756    1.45830714111987   -0.56509029381869
C        -1.14802537200456    2.44021052341172   -0.02567375006832
C        -2.40280646843452    1.95426621785644    0.63300721078134
C        -2.37190513298532    1.45926957441009    1.93035063154657
C        -3.52911128304029    0.99189752946614    2.52804764938527
C        -4.72983818723380    1.01729924640502    1.83915851075557
C        -4.78470876158117    1.52897075490125    0.55479943313666
C        -3.62286720971541    1.99817866326688   -0.02758840545258
F        -3.67549183587768    2.48294178287449   -1.28333794092925
O        -0.81417952704543    3.60611159250452   -0.08939036905954
H        -5.80852791369133   -2.73030955142011   -0.12188767059184
H        -5.05175320144911   -3.61548473435956    2.05100757258441
H        -2.76988763594616   -3.12190510263860    2.84754670950530
H        -1.27484884258026   -1.72763629682780    1.55219376365287
H        -5.39457555755999   -1.46740312778211   -2.13341525239902
H        -3.90397148926742   -0.06459091659448   -3.51548613160295
H        -1.70869737746564    0.60347466269172   -2.65589516131597
H        -0.44061596233552   -0.16936328289633    0.73208509124850
H         0.32369910234693   -0.82377954959510   -2.12543510271473
H         0.42489014676540   -3.01343281542820   -2.07185928299684
H         1.09306681489850   -5.16191126791746   -1.10463273468619
H         2.22327372204612   -5.23164509536344    1.09046172998875
H         1.77821841800795    0.28809951442406    1.20310506901548
H         2.88372758954600    0.15125589545874    3.33249047496305
H         3.57705321184525   -2.02924013916000    4.27230922877292
H         3.11926640837954   -4.10072710016907    3.01501163125342
H         5.93553747280572    3.35524921327256    0.20764090883297
H         5.93444858808358    4.72251723734847   -1.86678091226254
H         4.52554469619652    4.04877546110533   -3.77668741223303
H         3.11691738276548    2.03487960951167   -3.62187569477396
H         0.80204364040100    2.25511748817193   -2.11228023418968
H         2.25151527089897    4.60713326225661   -0.23635898702549
H        -1.43533190886645    1.44768396827819    2.46771849964447
H        -3.49190100637164    0.60293179734265    3.53362655843520
H        -5.62865990400362    0.64158318426120    2.30271465585552
H        -5.70799377405686    1.56822249967205   -0.00068157762280

          :  Hamiltonian                  GFN2-xTB          :
         :: total energy            -126.260686614911 Eh    ::
         :: gradient norm              0.000703617483 Eh/a0 ::
         :: HOMO-LUMO gap              2.636004732837 eV    ::
         :: SCC energy              -128.190434786140 Eh    ::
         :: -> dispersion             -0.116024963565 Eh    ::
         :: repulsion energy           1.924932402006 Eh    ::

    * Orbital Energies and Occupations

         #    Occupation            Energy/Eh            Energy/eV
      -------------------------------------------------------------
         1        2.0000           -0.8249826             -22.4489
       ...           ...                  ...                  ...
       101        2.0000           -0.4232942             -11.5184
       102        2.0000           -0.4222970             -11.4913
       103        2.0000           -0.4218631             -11.4795
       104        2.0000           -0.4184587             -11.3868
       105        2.0000           -0.4142581             -11.2725
       106        2.0000           -0.4132863             -11.2461
       107        2.0000           -0.4110979             -11.1865
       108        2.0000           -0.4074351             -11.0869
       109        2.0000           -0.4025695             -10.9545
       110        2.0000           -0.3976022             -10.8193
       111        2.0000           -0.3963650             -10.7856
       112        2.0000           -0.3906593             -10.6304
       113        2.0000           -0.3729638             -10.1489 (HOMO)
       114                         -0.2760924              -7.5129 (LUMO)
       115                         -0.2615854              -7.1181
       116                         -0.2570784              -6.9955
       117                         -0.2540414              -6.9128
       118                         -0.2471125              -6.7243
       119                         -0.2454832              -6.6799
       120                         -0.2440994              -6.6423
       121                         -0.2419379              -6.5835
       122                         -0.2271225              -6.1803
       123                         -0.2242802              -6.1030
       124                         -0.2222751              -6.0484
       ...                                ...                  ...
       210                          0.6993128              19.0293
      -------------------------------------------------------------
                  HL-Gap            0.0968714 Eh            2.6360 eV

     #   Z          covCN         q      C6AA      Î±(0)
     1   6 C        2.921    -0.035    28.860     8.810
     2   6 C        2.915    -0.029    28.730     8.789
     3   6 C        2.917    -0.028    28.707     8.786
     4   6 C        2.917    -0.037    28.921     8.819
     5   6 C        2.984     0.005    27.915     8.667
     6   6 C        2.989     0.014    27.703     8.634
     7   6 C        2.921    -0.036    28.885     8.814
     8   6 C        2.914    -0.026    28.657     8.778
     9   6 C        2.923    -0.031    28.770     8.796
    10   6 C        2.968    -0.012    28.304     8.726
    11   6 C        3.819     0.038    19.925     6.353
    12   6 C        3.831     0.053    19.672     6.311
    13   6 C        2.966     0.005    27.908     8.665
    14   6 C        2.925    -0.031    28.773     8.797
    15   6 C        2.914    -0.029    28.718     8.788
    16   6 C        2.921    -0.034    28.842     8.807
    17   6 C        2.988     0.016    27.646     8.625
    18   6 C        2.983     0.014    27.696     8.633
    19   6 C        2.917    -0.036    28.905     8.816
    20   6 C        2.917    -0.025    28.625     8.774
    21   6 C        2.915    -0.028    28.703     8.785
    22   6 C        2.921    -0.034    28.849     8.808
    23   7 N        2.762    -0.117    23.542     7.206
    24   6 C        2.760     0.284    22.182     7.713
    25   6 C        2.973    -0.036    28.898     8.818
    26   6 C        2.788     0.175    24.233     8.064
    27   9 F        0.787    -0.211    11.350     3.980
    28   6 C        2.917    -0.048    29.200     8.861
    29   6 C        2.923    -0.028    28.692     8.784
    30   6 C        2.918    -0.030    28.757     8.794
    31   6 C        2.926    -0.024    28.614     8.772
    32   8 O        0.859    -0.402    21.715     6.248
    33   6 C        3.762     0.099    18.995     6.213
    34   6 C        2.688     0.367    20.770     7.458
    35   8 O        1.660    -0.359    20.069     6.048
    36   8 O        0.856    -0.386    21.411     6.204
    37   7 N        2.770    -0.113    23.460     7.194
    38   6 C        2.766     0.285    22.174     7.712
    39   6 C        2.974    -0.026    28.656     8.781
    40   6 C        2.926    -0.025    28.640     8.776
    41   6 C        2.919    -0.031    28.773     8.796
    42   6 C        2.924    -0.026    28.650     8.778
    43   6 C        2.918    -0.046    29.148     8.853
    44   6 C        2.789     0.175    24.239     8.065
    45   9 F        0.787    -0.218    11.418     3.992
    46   8 O        0.859    -0.420    22.089     6.301
    47   1 H        0.926     0.038     2.478     2.462
    48   1 H        0.926     0.037     2.489     2.467
    49   1 H        0.926     0.037     2.491     2.468
    50   1 H        0.926     0.031     2.579     2.511
    51   1 H        0.926     0.040     2.452     2.449
    52   1 H        0.926     0.044     2.398     2.422
    53   1 H        0.926     0.038     2.481     2.463
    54   1 H        0.924     0.059     2.213     2.326
    55   1 H        0.923     0.047     2.359     2.402
    56   1 H        0.926     0.029     2.603     2.523
    57   1 H        0.926     0.035     2.516     2.480
    58   1 H        0.926     0.036     2.503     2.474
    59   1 H        0.926     0.046     2.375     2.410
    60   1 H        0.926     0.041     2.438     2.442
    61   1 H        0.926     0.031     2.565     2.505
    62   1 H        0.926     0.032     2.562     2.503
    63   1 H        0.926     0.065     2.136     2.286
    64   1 H        0.926     0.052     2.294     2.369
    65   1 H        0.926     0.053     2.281     2.362
    66   1 H        0.926     0.047     2.356     2.400
    67   1 H        0.923     0.061     2.185     2.312
    68   1 H        0.804     0.348     0.594     1.210
    69   1 H        0.926     0.055     2.260     2.351
    70   1 H        0.926     0.053     2.287     2.365
    71   1 H        0.926     0.052     2.293     2.368
    72   1 H        0.926     0.065     2.147     2.291

Wiberg/Mayer (AO) data.
largest (>0.10) Wiberg bond orders for each atom

     #   Z sym  total        # sym  WBO       # sym  WBO       # sym  WBO
 ---------------------------------------------------------------------------
     1   6 C    3.991 --     2 C    1.557     6 C    1.279    47 H    0.968
                             4 C    0.118
     2   6 C    3.992 --     1 C    1.557     3 C    1.322    48 H    0.970
     3   6 C    3.991 --     4 C    1.554     2 C    1.322    49 H    0.971
     4   6 C    3.992 --     3 C    1.554     5 C    1.284    50 H    0.961
                             1 C    0.118
     5   6 C    3.988 --     4 C    1.284    10 C    1.253     6 C    1.252
     6   6 C    3.990 --     7 C    1.280     1 C    1.279     5 C    1.252
     7   6 C    3.990 --     8 C    1.550     6 C    1.280    51 H    0.968
                            10 C    0.114
     8   6 C    3.991 --     7 C    1.550     9 C    1.329    52 H    0.970
     9   6 C    3.991 --    10 C    1.520     8 C    1.329    53 H    0.967
    10   6 C    3.983 --     9 C    1.520     5 C    1.253    11 C    0.991
                             7 C    0.114
    11   6 C    3.960 --    10 C    0.991    37 N    0.954    12 C    0.952
                            54 H    0.944
    12   6 C    3.960 --    13 C    0.993    11 C    0.952    55 H    0.952
                            23 N    0.949
    13   6 C    3.982 --    14 C    1.521    18 C    1.252    12 C    0.993
                            16 C    0.114
    14   6 C    3.989 --    13 C    1.521    15 C    1.327    56 H    0.967
    15   6 C    3.992 --    16 C    1.553    14 C    1.327    57 H    0.970
    16   6 C    3.990 --    15 C    1.553    17 C    1.279    58 H    0.968
                            13 C    0.114
    17   6 C    3.990 --    22 C    1.281    16 C    1.279    18 C    1.251
    18   6 C    3.989 --    19 C    1.285    13 C    1.252    17 C    1.251
    19   6 C    3.991 --    20 C    1.551    18 C    1.285    59 H    0.960
                            22 C    0.119
    20   6 C    3.991 --    19 C    1.551    21 C    1.325    60 H    0.970
    21   6 C    3.992 --    22 C    1.555    20 C    1.325    61 H    0.971
    22   6 C    3.991 --    21 C    1.555    17 C    1.281    62 H    0.968
                            19 C    0.119
    23   7 N    3.459 --    24 C    1.208    33 C    0.986    12 C    0.949
                            32 O    0.195
    24   6 C    3.950 --    32 O    1.711    23 N    1.208    25 C    0.949
    25   6 C    3.985 --    31 C    1.407    26 C    1.363    24 C    0.949
                            29 C    0.109
    26   6 C    3.891 --    28 C    1.395    25 C    1.363    27 F    0.971
    27   9 F    1.109 --    26 C    0.971
    28   6 C    3.988 --    29 C    1.442    26 C    1.395    63 H    0.965
                            31 C    0.110
    29   6 C    3.990 --    28 C    1.442    30 C    1.435    64 H    0.970
                            25 C    0.109
    30   6 C    3.991 --    31 C    1.443    29 C    1.435    65 H    0.969
    31   6 C    3.990 --    30 C    1.443    25 C    1.407    66 H    0.969
                            28 C    0.110
    32   8 O    2.046 --    24 C    1.711    23 N    0.195
    33   6 C    3.966 --    23 N    0.986    37 N    0.973    67 H    0.945
                            34 C    0.910
    34   6 C    3.923 --    36 O    1.769    35 O    1.159    33 C    0.910
    35   8 O    2.221 --    34 C    1.159    68 H    0.853    36 O    0.178
    36   8 O    2.063 --    34 C    1.769    35 O    0.178
    37   7 N    3.467 --    38 C    1.229    33 C    0.973    11 C    0.954
                            46 O    0.193
    38   6 C    3.947 --    46 O    1.677    37 N    1.229    39 C    0.954
    39   6 C    3.987 --    40 C    1.406    44 C    1.366    38 C    0.954
                            42 C    0.109
    40   6 C    3.989 --    41 C    1.441    39 C    1.406    69 H    0.968
                            43 C    0.110
    41   6 C    3.991 --    40 C    1.441    42 C    1.437    70 H    0.969
    42   6 C    3.990 --    43 C    1.439    41 C    1.437    71 H    0.970
                            39 C    0.109
    43   6 C    3.988 --    42 C    1.439    44 C    1.399    72 H    0.966
                            40 C    0.110
    44   6 C    3.890 --    43 C    1.399    39 C    1.366    45 F    0.965
    45   9 F    1.099 --    44 C    0.965
    46   8 O    2.039 --    38 C    1.677    37 N    0.193
    47   1 H    0.998 --     1 C    0.968
    48   1 H    0.998 --     2 C    0.970
    49   1 H    0.998 --     3 C    0.971
    50   1 H    0.999 --     4 C    0.961
    51   1 H    0.997 --     7 C    0.968
    52   1 H    0.997 --     8 C    0.970
    53   1 H    0.998 --     9 C    0.967
    54   1 H    0.996 --    11 C    0.944
    55   1 H    0.997 --    12 C    0.952
    56   1 H    0.999 --    14 C    0.967
    57   1 H    0.998 --    15 C    0.970
    58   1 H    0.998 --    16 C    0.968
    59   1 H    0.997 --    19 C    0.960
    60   1 H    0.998 --    20 C    0.970
    61   1 H    0.998 --    21 C    0.971
    62   1 H    0.998 --    22 C    0.968
    63   1 H    0.995 --    28 C    0.965
    64   1 H    0.997 --    29 C    0.970
    65   1 H    0.996 --    30 C    0.969
    66   1 H    0.998 --    31 C    0.969
    67   1 H    0.996 --    33 C    0.945
    68   1 H    0.878 --    35 O    0.853
    69   1 H    0.997 --    40 C    0.968
    70   1 H    0.997 --    41 C    0.969
    71   1 H    0.997 --    42 C    0.970
    72   1 H    0.995 --    43 C    0.966
 ---------------------------------------------------------------------------

molecular dipole:
                 x           y           z       tot (Debye)
 q only:       -1.210      -0.401       0.133
   full:       -1.177      -0.125       0.039       3.010

           -------------------------------------------------
          | TOTAL ENERGY             -126.260686614911 Eh   |
          | GRADIENT NORM               0.000703617483 Eh/Î± |
          | HOMO-LUMO GAP               2.636004732837 eV   |
           -------------------------------------------------

 * finished run on 2022/03/17 at 01:47:56.590
