   * xtb version 6.3.3 (4ae9cef) compiled by 'conda@95abc7406d43' on 2020-10-14
          program call               : xtb acid_389.xyz --opt --chrg 0 --uhf 0 --gfn 2
          number of atoms            :                    66
          number of electrons        :                   218
          charge                     :                     0
          spin                       :                   0.0

   ID    Z sym.   atoms
    1    6 C      1-22, 24-26, 28, 29, 32, 33, 37-39, 41, 42
    2    7 N      23, 36
    3   35 Br     27, 40
    4    8 O      30, 31, 34, 35, 43, 44
    5    1 H      45-66

          :  Hamiltonian                  GFN2-xTB          :
 * total energy  :  -122.4483441 Eh     change       -0.1016261E-08 Eh
 * total energy  :  -122.4657880 Eh     change       -0.1744394E-01 Eh
 * total energy  :  -122.4720120 Eh     change       -0.6223980E-02 Eh
 * total energy  :  -122.4735812 Eh     change       -0.1569254E-02 Eh
 * total energy  :  -122.4742489 Eh     change       -0.6676767E-03 Eh
 * total energy  :  -122.4744691 Eh     change       -0.2201754E-03 Eh
 * total energy  :  -122.4746670 Eh     change       -0.1979317E-03 Eh
 * total energy  :  -122.4748497 Eh     change       -0.1826835E-03 Eh
 * total energy  :  -122.4750681 Eh     change       -0.2183944E-03 Eh
 * total energy  :  -122.4753166 Eh     change       -0.2485435E-03 Eh
 * total energy  :  -122.4817980 Eh     change       -0.1251965E-04 Eh
 * total energy  :  -122.4818107 Eh     change       -0.1279415E-04 Eh
 * total energy  :  -122.4818235 Eh     change       -0.1273072E-04 Eh
 * total energy  :  -122.4818348 Eh     change       -0.1135679E-04 Eh
 * total energy  :  -122.4818485 Eh     change       -0.1362491E-04 Eh
 * total energy  :  -122.4818625 Eh     change       -0.1409238E-04 Eh
 * total energy  :  -122.4818774 Eh     change       -0.1488572E-04 Eh
 * total energy  :  -122.4818835 Eh     change       -0.6026879E-05 Eh
 * total energy  :  -122.4818877 Eh     change       -0.4199798E-05 Eh
   *** GEOMETRY OPTIMIZATION CONVERGED AFTER 123 ITERATIONS ***

 final structure:
================
66
 xtb: 6.3.3 (4ae9cef)
C        -1.57808458202585    4.75047380049073    2.60031537342649
C        -1.09584297554892    5.58586934559315    1.63368400869334
C        -0.71263854122696    5.06520920339424    0.38991741113183
C        -0.82072715406201    3.72682703560163    0.13119618299239
C        -1.32302012389691    2.83481995457623    1.10435742504382
C        -1.70168779182453    3.36487216785590    2.36736421639005
C        -2.18512842432742    2.50038968618499    3.37129128922763
C        -2.30163718242721    1.16256822959901    3.13492361630411
C        -1.93514047996782    0.63522408888017    1.88917930279608
C        -1.45784724746875    1.43675637778328    0.88591778514840
C        -0.98135304571179    0.84642391329215   -0.42388363877599
C         0.55278074911860    0.71662470206172   -0.37214527344414
C         1.26375476279615    0.59546497335204   -1.69924193023463
C         0.57489344405927    0.48482747005017   -2.88135958281037
C         1.24403106799732    0.32687158000408   -4.10431131500776
C         2.60606720666374    0.27040606240969   -4.13979903313539
C         3.35726468003964    0.38073683890605   -2.95145015809281
C         2.68778313585641    0.55086992707722   -1.70905164011318
C         3.47324667034658    0.66190232425139   -0.54122322117677
C         4.83829816019866    0.60072907819245   -0.60370846402195
C         5.49464545904654    0.42727784544442   -1.82989638081543
C         4.76595937315752    0.32207192713204   -2.97985647050186
N         0.66460918481589   -0.54502363977462    0.36842674869602
C         0.99631955243897   -0.49884663380723    1.69340926416182
C         0.76122774457723   -1.69862788153734    2.50724354556631
C         0.62428119850923   -1.75052286356973    3.87766331870731
Br        0.61565373266298   -0.30571535126148    5.05162149115075
C         0.44171214684473   -3.10973800811094    4.22298784947951
C         0.49343777356414   -3.78834341331850    3.04503168626320
O         0.67651607200921   -2.95566839554540    2.01229936768143
O         1.50509383963415    0.48831233986105    2.18836970497973
C        -0.29146622267345   -1.42774585827903   -0.24140044693928
C         0.37579520527743   -2.12410059283783   -1.44567702373800
O        -0.46450651160927   -2.31181994536257   -2.46208737905279
O         1.50640231106662   -2.51433638705295   -1.43329319741991
N        -1.39192703326876   -0.54619041048948   -0.59475188119587
C        -2.58212942952759   -0.84049862804859   -1.16427838200334
C        -2.95393471557744   -2.28486417345036   -1.25773320926229
C        -3.13493846800536   -3.28409715968620   -0.33168420193500
Br       -2.82104837563696   -3.22006916917048    1.51820865383645
C        -3.66466889649703   -4.40255530990259   -1.01946789911090
C        -3.77392965165344   -3.99861581119816   -2.31353649766189
O        -3.36218659389039   -2.73488957038797   -2.45678011305703
O        -3.33307658288332    0.01709946770000   -1.57731748685595
H        -1.87316217328649    5.13734088882889    3.56508750462817
H        -1.00452137315705    6.64586450500387    1.81882956468762
H        -0.32746822323347    5.73099729071739   -0.36845521866249
H        -0.51307934339085    3.35530571958093   -0.83416956650725
H        -2.45410341142124    2.91620932889587    4.33097904742224
H        -2.66608170266728    0.49479595210062    3.90088653591430
H        -2.04534067951065   -0.42725785528201    1.73396813381230
H        -1.36417955999160    1.43503559755905   -1.25878273691847
H         0.99164153874007    1.51229842083217    0.23436297222946
H        -0.50383412156790    0.50788709018720   -2.90498711091314
H         0.66317132406013    0.24577147458495   -5.01142823422123
H         3.12975730737525    0.13996433910344   -5.07586399817512
H         3.00500219389137    0.79714620456977    0.41949490174678
H         5.41994519299298    0.68718071480457    0.30194792402790
H         6.57334662757463    0.37970150259245   -1.85750964208689
H         5.25637032513752    0.19106191845351   -3.93410738709984
H         0.29836332546208   -3.50331347023171    5.20697421162492
H         0.41339065442171   -4.83338605781310    2.82130275374963
H        -0.59703596820800   -2.22522051622595    0.44307708117854
H        -0.01230167771068   -2.74066931469107   -3.20724286836265
H        -3.92219980909733   -5.34959557725050   -0.59312036070798
H        -4.12053288731408   -4.50747529322051   -3.19071792266498

          :  Hamiltonian                  GFN2-xTB          :
         :: total energy            -122.481887662429 Eh    ::
         :: gradient norm              0.000663680248 Eh/a0 ::
         :: HOMO-LUMO gap              2.606811408640 eV    ::
         :: SCC energy              -124.188153766924 Eh    ::
         :: -> dispersion             -0.110002296510 Eh    ::
         :: repulsion energy           1.702306649630 Eh    ::

    * Orbital Energies and Occupations

         #    Occupation            Energy/Eh            Energy/eV
      -------------------------------------------------------------
         1        2.0000           -0.8617265             -23.4488
       ...           ...                  ...                  ...
        97        2.0000           -0.4236897             -11.5292
        98        2.0000           -0.4225643             -11.4986
        99        2.0000           -0.4212272             -11.4622
       100        2.0000           -0.4184784             -11.3874
       101        2.0000           -0.4176563             -11.3650
       102        2.0000           -0.4138783             -11.2622
       103        2.0000           -0.4082817             -11.1099
       104        2.0000           -0.4076028             -11.0914
       105        2.0000           -0.4074046             -11.0860
       106        2.0000           -0.4041273             -10.9969
       107        2.0000           -0.4011531             -10.9159
       108        2.0000           -0.3856738             -10.4947
       109        2.0000           -0.3787033             -10.3050 (HOMO)
       110                         -0.2829048              -7.6982 (LUMO)
       111                         -0.2731927              -7.4340
       112                         -0.2708345              -7.3698
       113                         -0.2656583              -7.2289
       114                         -0.2611121              -7.1052
       115                         -0.2353466              -6.4041
       116                         -0.2293293              -6.2404
       117                         -0.2286718              -6.2225
       118                         -0.2233772              -6.0784
       119                         -0.2165813              -5.8935
       120                         -0.2027559              -5.5173
       ...                                ...                  ...
       208                          0.6929340              18.8557
      -------------------------------------------------------------
                  HL-Gap            0.0957986 Eh            2.6068 eV

     #   Z          covCN         q      C6AA      Î±(0)
     1   6 C        2.921    -0.031    28.780     8.798
     2   6 C        2.915    -0.028    28.700     8.785
     3   6 C        2.917    -0.027    28.683     8.782
     4   6 C        2.917    -0.037    28.929     8.820
     5   6 C        2.986     0.010    27.784     8.646
     6   6 C        2.988     0.020    27.562     8.612
     7   6 C        2.920    -0.031    28.769     8.796
     8   6 C        2.914    -0.026    28.649     8.777
     9   6 C        2.921    -0.034    28.839     8.806
    10   6 C        2.970    -0.004    28.132     8.700
    11   6 C        3.843     0.040    19.865     6.340
    12   6 C        3.868     0.036    19.924     6.347
    13   6 C        2.966    -0.010    28.259     8.720
    14   6 C        2.919    -0.043    29.057     8.840
    15   6 C        2.914    -0.035    28.882     8.813
    16   6 C        2.920    -0.035    28.860     8.810
    17   6 C        2.988     0.017    27.622     8.621
    18   6 C        2.986     0.013    27.711     8.635
    19   6 C        2.917    -0.036    28.902     8.816
    20   6 C        2.917    -0.025    28.618     8.773
    21   6 C        2.915    -0.026    28.659     8.779
    22   6 C        2.921    -0.033    28.829     8.805
    23   7 N        2.781    -0.109    23.377     7.181
    24   6 C        2.760     0.273    22.385     7.748
    25   6 C        3.137     0.074    26.123     8.365
    26   6 C        3.029     0.071    26.386     8.426
    27  35 Br       1.008    -0.105   187.898    22.102
    28   6 C        3.033    -0.065    29.578     8.921
    29   6 C        3.071     0.082    26.108     8.378
    30   8 O        1.730    -0.175    16.943     5.558
    31   8 O        0.860    -0.409    21.861     6.269
    32   6 C        3.790     0.086    19.172     6.236
    33   6 C        2.688     0.353    20.999     7.499
    34   8 O        1.659    -0.368    20.237     6.073
    35   8 O        0.856    -0.375    21.191     6.172
    36   7 N        2.767    -0.112    23.438     7.190
    37   6 C        2.755     0.275    22.342     7.740
    38   6 C        3.124     0.079    26.061     8.360
    39   6 C        3.034     0.045    26.960     8.517
    40  35 Br       0.998    -0.153   189.233    22.180
    41   6 C        3.034    -0.068    29.649     8.931
    42   6 C        3.076     0.074    26.280     8.405
    43   8 O        1.735    -0.144    16.465     5.479
    44   8 O        0.860    -0.403    21.745     6.252
    45   1 H        0.926     0.038     2.479     2.462
    46   1 H        0.926     0.034     2.524     2.484
    47   1 H        0.926     0.033     2.541     2.493
    48   1 H        0.926     0.027     2.626     2.534
    49   1 H        0.926     0.042     2.425     2.435
    50   1 H        0.926     0.040     2.449     2.447
    51   1 H        0.926     0.021     2.716     2.577
    52   1 H        0.924     0.081     1.974     2.197
    53   1 H        0.924     0.092     1.857     2.131
    54   1 H        0.926     0.037     2.493     2.469
    55   1 H        0.926     0.033     2.539     2.492
    56   1 H        0.926     0.037     2.495     2.470
    57   1 H        0.926     0.055     2.263     2.352
    58   1 H        0.926     0.038     2.471     2.458
    59   1 H        0.926     0.035     2.519     2.482
    60   1 H        0.926     0.034     2.525     2.485
    61   1 H        0.927     0.075     2.035     2.231
    62   1 H        0.926     0.075     2.036     2.231
    63   1 H        0.924     0.091     1.872     2.140
    64   1 H        0.804     0.345     0.599     1.216
    65   1 H        0.927     0.064     2.149     2.292
    66   1 H        0.926     0.071     2.072     2.251

Wiberg/Mayer (AO) data.
largest (>0.10) Wiberg bond orders for each atom

     #   Z sym  total        # sym  WBO       # sym  WBO       # sym  WBO
 ---------------------------------------------------------------------------
     1   6 C    3.991 --     2 C    1.556     6 C    1.281    45 H    0.968
                             4 C    0.118
     2   6 C    3.992 --     1 C    1.556     3 C    1.324    46 H    0.971
     3   6 C    3.992 --     4 C    1.553     2 C    1.324    47 H    0.971
     4   6 C    3.992 --     3 C    1.553     5 C    1.285    48 H    0.966
                             1 C    0.118
     5   6 C    3.988 --     4 C    1.285     6 C    1.256    10 C    1.246
     6   6 C    3.990 --     1 C    1.281     7 C    1.275     5 C    1.256
     7   6 C    3.990 --     8 C    1.559     6 C    1.275    49 H    0.968
                            10 C    0.114
     8   6 C    3.992 --     7 C    1.559     9 C    1.318    50 H    0.970
     9   6 C    3.991 --    10 C    1.531     8 C    1.318    51 H    0.963
    10   6 C    3.983 --     9 C    1.531     5 C    1.246    11 C    0.984
                             7 C    0.114
    11   6 C    3.954 --    10 C    0.984    12 C    0.957    36 N    0.955
                            52 H    0.941
    12   6 C    3.953 --    13 C    0.988    11 C    0.957    23 N    0.944
                            53 H    0.943
    13   6 C    3.982 --    14 C    1.526    18 C    1.244    12 C    0.988
                            16 C    0.112
    14   6 C    3.990 --    13 C    1.526    15 C    1.318    54 H    0.964
    15   6 C    3.992 --    16 C    1.559    14 C    1.318    55 H    0.971
    16   6 C    3.991 --    15 C    1.559    17 C    1.276    56 H    0.968
                            13 C    0.112
    17   6 C    3.990 --    22 C    1.280    16 C    1.276    18 C    1.256
    18   6 C    3.988 --    19 C    1.287    17 C    1.256    13 C    1.244
    19   6 C    3.990 --    20 C    1.551    18 C    1.287    57 H    0.960
                            22 C    0.119
    20   6 C    3.992 --    19 C    1.551    21 C    1.325    58 H    0.971
    21   6 C    3.992 --    22 C    1.555    20 C    1.325    59 H    0.971
    22   6 C    3.991 --    21 C    1.555    17 C    1.280    60 H    0.968
                            19 C    0.119
    23   7 N    3.449 --    24 C    1.181    32 C    0.999    12 C    0.944
                            31 O    0.180
    24   6 C    3.959 --    31 O    1.661    23 N    1.181    25 C    1.025
    25   6 C    3.902 --    26 C    1.478    30 O    1.096    24 C    1.025
                            29 C    0.134
    26   6 C    3.942 --    25 C    1.478    28 C    1.284    27 Br   1.029
    27  35 Br   1.184 --    26 C    1.029
    28   6 C    3.979 --    29 C    1.589    26 C    1.284    61 H    0.970
    29   6 C    3.908 --    28 C    1.589    30 O    1.147    62 H    0.962
                            25 C    0.134
    30   8 O    2.455 --    29 C    1.147    25 C    1.096
    31   8 O    2.027 --    24 C    1.661    23 N    0.180
    32   6 C    3.970 --    23 N    0.999    36 N    0.973    63 H    0.916
                            33 C    0.915
    33   6 C    3.923 --    35 O    1.788    34 O    1.144    32 C    0.915
    34   8 O    2.210 --    33 C    1.144    64 H    0.854    35 O    0.179
    35   8 O    2.073 --    33 C    1.788    34 O    0.179
    36   7 N    3.484 --    37 C    1.230    32 C    0.973    11 C    0.955
                            44 O    0.203
    37   6 C    3.961 --    44 O    1.681    36 N    1.230    38 C    0.963
    38   6 C    3.906 --    39 C    1.501    43 O    1.133    37 C    0.963
                            42 C    0.139
    39   6 C    3.922 --    38 C    1.501    41 C    1.277    40 Br   0.997
    40  35 Br   1.153 --    39 C    0.997
    41   6 C    3.979 --    42 C    1.593    39 C    1.277    65 H    0.972
    42   6 C    3.907 --    41 C    1.593    43 O    1.153    66 H    0.963
                            38 C    0.139
    43   8 O    2.485 --    42 C    1.153    38 C    1.133
    44   8 O    2.032 --    37 C    1.681    36 N    0.203
    45   1 H    0.998 --     1 C    0.968
    46   1 H    0.998 --     2 C    0.971
    47   1 H    0.998 --     3 C    0.971
    48   1 H    0.999 --     4 C    0.966
    49   1 H    0.997 --     7 C    0.968
    50   1 H    0.997 --     8 C    0.970
    51   1 H    0.999 --     9 C    0.963
    52   1 H    0.993 --    11 C    0.941
    53   1 H    0.991 --    12 C    0.943
    54   1 H    0.998 --    14 C    0.964
    55   1 H    0.998 --    15 C    0.971
    56   1 H    0.998 --    16 C    0.968
    57   1 H    0.997 --    19 C    0.960
    58   1 H    0.998 --    20 C    0.971
    59   1 H    0.998 --    21 C    0.971
    60   1 H    0.998 --    22 C    0.968
    61   1 H    0.994 --    28 C    0.970
    62   1 H    0.994 --    29 C    0.962
    63   1 H    0.992 --    32 C    0.916
    64   1 H    0.880 --    34 O    0.854
    65   1 H    0.995 --    41 C    0.972
    66   1 H    0.994 --    42 C    0.963
 ---------------------------------------------------------------------------

molecular dipole:
                 x           y           z       tot (Debye)
 q only:        0.205      -1.247      -0.856
   full:       -0.095      -2.064      -1.982       7.278

           -------------------------------------------------
          | TOTAL ENERGY             -122.481887662429 Eh   |
          | GRADIENT NORM               0.000663680248 Eh/Î± |
          | HOMO-LUMO GAP               2.606811408640 eV   |
           -------------------------------------------------

 * finished run on 2022/03/17 at 00:36:39.812
