   * xtb version 6.3.3 (4ae9cef) compiled by 'conda@95abc7406d43' on 2020-10-14
          program call               : xtb acid_98.xyz --opt --chrg 0 --uhf 0 --gfn 2
          number of atoms            :                    70
          number of electrons        :                   238
          charge                     :                     0
          spin                       :                   0.0

   ID    Z sym.   atoms
    1    6 C      1-22, 24-28, 34, 35, 39-43
    2    7 N      23, 29, 38, 44
    3    8 O      30-33, 36, 37, 45-48
    4    1 H      49-70

          :  Hamiltonian                  GFN2-xTB          :
 * total energy  :  -136.1646724 Eh     change       -0.6190817E-08 Eh
 * total energy  :  -136.1875324 Eh     change       -0.2286000E-01 Eh
 * total energy  :  -136.1941105 Eh     change       -0.6578145E-02 Eh
 * total energy  :  -136.1975511 Eh     change       -0.3440593E-02 Eh
 * total energy  :  -136.2000737 Eh     change       -0.2522565E-02 Eh
 * total energy  :  -136.2021820 Eh     change       -0.2108341E-02 Eh
 * total energy  :  -136.2042316 Eh     change       -0.2049631E-02 Eh
 * total energy  :  -136.2061712 Eh     change       -0.1939520E-02 Eh
 * total energy  :  -136.2076731 Eh     change       -0.1501899E-02 Eh
 * total energy  :  -136.2080871 Eh     change       -0.4139961E-03 Eh
 * total energy  :  -136.2130560 Eh     change       -0.1346451E-04 Eh
 * total energy  :  -136.2130780 Eh     change       -0.2195772E-04 Eh
 * total energy  :  -136.2131021 Eh     change       -0.2406341E-04 Eh
 * total energy  :  -136.2131119 Eh     change       -0.9817335E-05 Eh
 * total energy  :  -136.2131211 Eh     change       -0.9193513E-05 Eh
 * total energy  :  -136.2131261 Eh     change       -0.4990577E-05 Eh
 * total energy  :  -136.2131135 Eh     change        0.1258705E-04 Eh
 * total energy  :  -136.2131298 Eh     change       -0.1633512E-04 Eh
 * total energy  :  -136.2131346 Eh     change       -0.4785793E-05 Eh
   *** GEOMETRY OPTIMIZATION CONVERGED AFTER 48 ITERATIONS ***

 final structure:
================
70
 xtb: 6.3.3 (4ae9cef)
C        -2.12032514412099   -1.74011850326445   -2.03269827460014
C        -2.46491555830873   -2.77194038149969   -2.86059319908317
C        -1.60636878529087   -3.87399727615331   -3.04551500086436
C        -1.93412280494335   -4.94970699972429   -3.89680275837453
C        -1.07726813614884   -6.00364704073291   -4.04597456958125
C         0.14306593579082   -6.03133126193884   -3.35100249039308
C         0.48909082096670   -5.00500410967002   -2.51808144184774
C        -0.37208531751604   -3.90089763584949   -2.34409114588892
C        -0.04502218047730   -2.82395987175198   -1.49774177833190
C        -0.89170132232392   -1.75527616464165   -1.34466981748621
C        -0.47811053415575   -0.62633030945574   -0.42633139930873
C         0.83766248280182    0.06459897887728   -0.89263204075726
C         1.86451247809303    0.10070611666928    0.21000339576838
C         1.63240521208567    0.84604573319178    1.33805234072120
C         2.57132889526077    0.89020713464595    2.38631888558980
C         2.35790861013432    1.66090270446656    3.54870587863547
C         3.29325149578201    1.68894781792092    4.54450910234330
C         4.48008935126682    0.94775896197571    4.42550578390515
C         4.71352037983195    0.18895946795568    3.31290289925792
C         3.77022903316657    0.13921292195118    2.26561269475055
C         3.97918792981306   -0.62390308734963    1.09841689785377
C         3.05199602268285   -0.64284899564261    0.09580440173489
N         0.40092197856985    1.41656205389510   -1.23269387296061
C         1.34556831145970    2.35558456438429   -1.51723667053309
C         0.89807000926778    3.76463716820950   -1.46576611630383
C         1.30075375845310    4.86346528948902   -2.18643652719457
C         0.58204345573785    5.95570098408624   -1.67112415130682
C        -0.19040585958569    5.44057575896196   -0.65851258650132
N        -1.10903686861426    6.06231261901357    0.22424331796294
O        -1.27930879847420    7.25499511087252    0.08107007216651
O        -1.64293912141608    5.36202914250248    1.05516978755468
O         0.00551367860189    4.11675697403040   -0.52778208327640
O         2.50601115925441    2.05932943936442   -1.70144719580751
C        -1.03198722816869    1.36310099512906   -1.46400648668298
C        -1.68757637393750    2.72449300497725   -1.85526490637620
O        -2.59166373681105    3.27881807971830   -1.11445884186516
O        -1.31695286379646    3.18166710544073   -2.90550288266428
N        -1.44795309916553    0.46222999667107   -0.38325262247221
C        -2.30428438196526    0.65800285713175    0.62824301878084
C        -2.46235763788276   -0.47486906698405    1.58637182577179
C        -2.75918939395937   -1.80739921727415    1.39187700737915
C        -2.97321080387664   -2.35087170466179    2.66911977345741
C        -2.79196746888769   -1.30542004463832    3.54383778752040
N        -2.85306282554469   -1.28933826466338    4.96629854058054
O        -3.16947572566346   -2.33525240750794    5.49380282726063
O        -2.58271629510309   -0.25824696603061    5.53243806250874
O        -2.49391910059855   -0.17583692983892    2.88940936783441
O        -2.99240064919447    1.65676643158334    0.78632995008710
H        -2.80226444906168   -0.91313756955730   -1.89684321998949
H        -3.40850814116870   -2.75259516435171   -3.38567284432978
H        -2.87408779952382   -4.92286540028424   -4.42848159855899
H        -1.33183181760871   -6.82413344881051   -4.69994439110416
H         0.80649874487219   -6.87300048497183   -3.48218332503486
H         1.42664787532673   -5.02139379180521   -1.98171782881570
H         0.89218952266585   -2.85019364641602   -0.95985137123370
H        -0.33337917948969   -1.02290157809872    0.58336765468505
H         1.24894774548186   -0.43588441243266   -1.77763979775257
H         0.72674613707969    1.43062152347123    1.43494117374711
H         1.44352773301024    2.22989968328534    3.63605387146140
H         3.12637863670602    2.28248695496688    5.43089321367227
H         5.20778600767279    0.98392682894678    5.22268857339711
H         5.62571612746117   -0.38220983167685    3.21690901568283
H         4.89488937756590   -1.18937849384243    1.00525854749468
H         3.22896988301449   -1.21483842241085   -0.80287158744124
H         2.00548515363448    4.86471644743167   -2.99115482221967
H         0.61281567604202    6.97831327893702   -1.98584299407940
H        -1.18175707645438    0.77518078629279   -2.39426336940633
H        -2.82105106845776    2.78059616559994   -0.26013497267910
H        -2.82167330446869   -2.32261994049067    0.45539300959494
H        -3.22484976739751   -3.35875965762975    2.92666930394871

          :  Hamiltonian                  GFN2-xTB          :
         :: total energy            -136.213134600384 Eh    ::
         :: gradient norm              0.000951837336 Eh/a0 ::
         :: HOMO-LUMO gap              1.266358180165 eV    ::
         :: SCC energy              -137.990185266574 Eh    ::
         :: -> dispersion             -0.099748585378 Eh    ::
         :: repulsion energy           1.774570520885 Eh    ::

    * Orbital Energies and Occupations

         #    Occupation            Energy/Eh            Energy/eV
      -------------------------------------------------------------
         1        2.0000           -0.8141111             -22.1531
       ...           ...                  ...                  ...
       107        2.0000           -0.4489792             -12.2173
       108        2.0000           -0.4480710             -12.1926
       109        2.0000           -0.4454001             -12.1200
       110        2.0000           -0.4436373             -12.0720
       111        2.0000           -0.4414432             -12.0123
       112        2.0000           -0.4362474             -11.8709
       113        2.0000           -0.4351632             -11.8414
       114        2.0000           -0.4326475             -11.7729
       115        2.0000           -0.4295881             -11.6897
       116        2.0000           -0.4280272             -11.6472
       117        2.0000           -0.4145713             -11.2811
       118        2.0000           -0.4105695             -11.1722
       119        2.0000           -0.3942749             -10.7288 (HOMO)
       120                         -0.3477371              -9.4624 (LUMO)
       121                         -0.3313590              -9.0167
       122                         -0.2965921              -8.0707
       123                         -0.2937449              -7.9932
       124                         -0.2797503              -7.6124
       125                         -0.2762589              -7.5174
       126                         -0.2627816              -7.1507
       127                         -0.2582747              -7.0280
       128                         -0.2458410              -6.6897
       129                         -0.2419370              -6.5834
       130                         -0.2214957              -6.0272
       ...                                ...                  ...
       214                          0.6827066              18.5774
      -------------------------------------------------------------
                  HL-Gap            0.0465378 Eh            1.2664 eV

     #   Z          covCN         q      C6AA      Î±(0)
     1   6 C        2.917    -0.043    29.073     8.842
     2   6 C        2.918    -0.032    28.810     8.802
     3   6 C        2.987     0.015    27.680     8.630
     4   6 C        2.918    -0.032    28.803     8.801
     5   6 C        2.916    -0.025    28.630     8.774
     6   6 C        2.916    -0.025    28.618     8.772
     7   6 C        2.918    -0.033    28.832     8.805
     8   6 C        2.986     0.017    27.630     8.623
     9   6 C        2.924    -0.044    29.104     8.847
    10   6 C        2.967    -0.010    28.267     8.721
    11   6 C        3.853     0.027    20.093     6.375
    12   6 C        3.840     0.042    19.835     6.336
    13   6 C        2.971     0.002    27.970     8.675
    14   6 C        2.923    -0.042    29.047     8.838
    15   6 C        2.987     0.015    27.660     8.627
    16   6 C        2.918    -0.033    28.830     8.805
    17   6 C        2.916    -0.026    28.649     8.777
    18   6 C        2.916    -0.026    28.662     8.779
    19   6 C        2.918    -0.033    28.825     8.804
    20   6 C        2.987     0.015    27.671     8.629
    21   6 C        2.918    -0.031    28.777     8.797
    22   6 C        2.918    -0.032    28.799     8.800
    23   7 N        2.769    -0.112    23.447     7.192
    24   6 C        2.757     0.276    22.334     7.739
    25   6 C        3.136     0.110    25.362     8.243
    26   6 C        3.026    -0.037    28.887     8.816
    27   6 C        3.012    -0.034    28.837     8.809
    28   6 C        3.089     0.121    25.242     8.235
    29   7 N        2.755     0.545    13.532     5.463
    30   8 O        0.933    -0.378    21.205     6.176
    31   8 O        0.932    -0.363    20.929     6.135
    32   8 O        1.727    -0.156    16.658     5.511
    33   8 O        0.859    -0.390    21.476     6.213
    34   6 C        3.792     0.070    19.416     6.275
    35   6 C        2.682     0.364    20.818     7.467
    36   8 O        1.651    -0.357    20.037     6.043
    37   8 O        0.858    -0.399    21.659     6.240
    38   7 N        2.765    -0.097    23.132     7.143
    39   6 C        2.752     0.272    22.402     7.750
    40   6 C        3.139     0.103    25.494     8.263
    41   6 C        3.028    -0.057    29.389     8.892
    42   6 C        3.011    -0.042    29.024     8.837
    43   6 C        3.096     0.116    25.341     8.250
    44   7 N        2.755     0.546    13.527     5.462
    45   8 O        0.934    -0.377    21.182     6.172
    46   8 O        0.931    -0.348    20.629     6.091
    47   8 O        1.728    -0.117    16.078     5.414
    48   8 O        0.867    -0.400    21.683     6.243
    49   1 H        0.926     0.028     2.610     2.526
    50   1 H        0.926     0.045     2.384     2.414
    51   1 H        0.926     0.041     2.440     2.443
    52   1 H        0.926     0.041     2.433     2.439
    53   1 H        0.926     0.041     2.433     2.439
    54   1 H        0.926     0.039     2.458     2.452
    55   1 H        0.926     0.038     2.472     2.459
    56   1 H        0.924     0.059     2.208     2.324
    57   1 H        0.924     0.064     2.157     2.297
    58   1 H        0.925     0.028     2.611     2.527
    59   1 H        0.926     0.041     2.439     2.442
    60   1 H        0.926     0.040     2.447     2.446
    61   1 H        0.926     0.037     2.483     2.464
    62   1 H        0.926     0.037     2.492     2.469
    63   1 H        0.926     0.043     2.413     2.429
    64   1 H        0.926     0.037     2.483     2.464
    65   1 H        0.927     0.088     1.902     2.156
    66   1 H        0.926     0.096     1.822     2.111
    67   1 H        0.922     0.078     2.001     2.212
    68   1 H        0.803     0.386     0.512     1.124
    69   1 H        0.926     0.074     2.038     2.232
    70   1 H        0.927     0.095     1.829     2.115

Wiberg/Mayer (AO) data.
largest (>0.10) Wiberg bond orders for each atom

     #   Z sym  total        # sym  WBO       # sym  WBO       # sym  WBO
 ---------------------------------------------------------------------------
     1   6 C    3.990 --     2 C    1.551    10 C    1.301    49 H    0.966
     2   6 C    3.991 --     1 C    1.551     3 C    1.283    50 H    0.967
                             9 C    0.116
     3   6 C    3.990 --     2 C    1.283     4 C    1.278     8 C    1.248
     4   6 C    3.991 --     5 C    1.559     3 C    1.278    51 H    0.968
                             7 C    0.119
     5   6 C    3.989 --     4 C    1.559     6 C    1.318    52 H    0.970
     6   6 C    3.992 --     7 C    1.561     5 C    1.318    53 H    0.970
     7   6 C    3.990 --     6 C    1.561     8 C    1.275    54 H    0.968
                             4 C    0.119
     8   6 C    3.990 --     9 C    1.289     7 C    1.275     3 C    1.248
     9   6 C    3.989 --    10 C    1.517     8 C    1.289    55 H    0.965
                             2 C    0.116
    10   6 C    3.983 --     9 C    1.517     1 C    1.301    11 C    0.984
    11   6 C    3.953 --    10 C    0.984    38 N    0.962    56 H    0.948
                            12 C    0.944
    12   6 C    3.957 --    13 C    0.990    23 N    0.957    57 H    0.954
                            11 C    0.944
    13   6 C    3.982 --    14 C    1.519    22 C    1.300    12 C    0.990
    14   6 C    3.991 --    13 C    1.519    15 C    1.287    58 H    0.966
                            21 C    0.116
    15   6 C    3.990 --    14 C    1.287    16 C    1.277    20 C    1.248
    16   6 C    3.990 --    17 C    1.559    15 C    1.277    59 H    0.968
                            19 C    0.118
    17   6 C    3.992 --    16 C    1.559    18 C    1.319    60 H    0.970
    18   6 C    3.989 --    19 C    1.558    17 C    1.319    61 H    0.971
    19   6 C    3.992 --    18 C    1.558    20 C    1.280    62 H    0.968
                            16 C    0.118
    20   6 C    3.990 --    21 C    1.280    19 C    1.280    15 C    1.248
    21   6 C    3.991 --    22 C    1.557    20 C    1.280    63 H    0.967
                            14 C    0.116
    22   6 C    3.989 --    21 C    1.557    13 C    1.300    64 H    0.967
    23   7 N    3.452 --    24 C    1.196    34 C    0.974    12 C    0.957
                            33 O    0.193
    24   6 C    3.960 --    33 O    1.690    23 N    1.196    25 C    0.990
    25   6 C    3.909 --    26 C    1.506    32 O    1.130    24 C    0.990
                            28 C    0.120
    26   6 C    3.980 --    25 C    1.506    27 C    1.348    65 H    0.969
    27   6 C    3.980 --    28 C    1.482    26 C    1.348    66 H    0.966
    28   6 C    3.896 --    27 C    1.482    32 O    1.110    29 N    1.004
                            25 C    0.120
    29   7 N    3.921 --    31 O    1.440    30 O    1.427    28 C    1.004
    30   8 O    1.921 --    29 N    1.427    31 O    0.362
    31   8 O    1.939 --    29 N    1.440    30 O    0.362
    32   8 O    2.468 --    25 C    1.130    28 C    1.110
    33   8 O    2.035 --    24 C    1.690    23 N    0.193
    34   6 C    3.937 --    23 N    0.974    38 N    0.954    67 H    0.928
                            35 C    0.898
    35   6 C    3.940 --    37 O    1.727    36 O    1.265    34 C    0.898
    36   8 O    2.267 --    35 C    1.265    68 H    0.707    37 O    0.190
    37   8 O    2.043 --    35 C    1.727    36 O    0.190
    38   7 N    3.520 --    39 C    1.286    11 C    0.962    34 C    0.954
                            48 O    0.201
    39   6 C    3.958 --    48 O    1.605    38 N    1.286    40 C    0.973
    40   6 C    3.908 --    41 C    1.495    47 O    1.154    39 C    0.973
                            43 C    0.122
    41   6 C    3.981 --    40 C    1.495    42 C    1.354    69 H    0.967
    42   6 C    3.980 --    43 C    1.480    41 C    1.354    70 H    0.966
    43   6 C    3.898 --    42 C    1.480    47 O    1.132    44 N    0.991
                            40 C    0.122
    44   7 N    3.921 --    46 O    1.455    45 O    1.427    43 C    0.991
    45   8 O    1.923 --    44 N    1.427    46 O    0.371
    46   8 O    1.959 --    44 N    1.455    45 O    0.371
    47   8 O    2.505 --    40 C    1.154    43 C    1.132
    48   8 O    2.098 --    39 C    1.605    38 N    0.201    68 H    0.121
    49   1 H    0.999 --     1 C    0.966
    50   1 H    0.997 --     2 C    0.967
    51   1 H    0.998 --     4 C    0.968
    52   1 H    0.998 --     5 C    0.970
    53   1 H    0.998 --     6 C    0.970
    54   1 H    0.998 --     7 C    0.968
    55   1 H    0.998 --     9 C    0.965
    56   1 H    0.995 --    11 C    0.948
    57   1 H    0.994 --    12 C    0.954
    58   1 H    0.999 --    14 C    0.966
    59   1 H    0.998 --    16 C    0.968
    60   1 H    0.998 --    17 C    0.970
    61   1 H    0.998 --    18 C    0.971
    62   1 H    0.998 --    19 C    0.968
    63   1 H    0.997 --    21 C    0.967
    64   1 H    0.998 --    22 C    0.967
    65   1 H    0.992 --    26 C    0.969
    66   1 H    0.990 --    27 C    0.966
    67   1 H    0.993 --    34 C    0.928
    68   1 H    0.851 --    36 O    0.707    48 O    0.121
    69   1 H    0.994 --    41 C    0.967
    70   1 H    0.990 --    42 C    0.966
 ---------------------------------------------------------------------------

molecular dipole:
                 x           y           z       tot (Debye)
 q only:        1.337      -3.733      -2.020
   full:        1.194      -3.968      -2.003      11.700

           -------------------------------------------------
          | TOTAL ENERGY             -136.213134600384 Eh   |
          | GRADIENT NORM               0.000951837336 Eh/Î± |
          | HOMO-LUMO GAP               1.266358180165 eV   |
           -------------------------------------------------

 * finished run on 2022/03/17 at 02:18:35.369
