   * xtb version 6.3.3 (4ae9cef) compiled by 'conda@95abc7406d43' on 2020-10-14
          program call               : xtb acid_75.xyz --opt --chrg 0 --uhf 0 --gfn 2
          number of atoms            :                    66
          number of electrons        :                   226
          charge                     :                     0
          spin                       :                   0.0

   ID    Z sym.   atoms
    1    6 C      1-14, 16-21, 25, 26, 28, 29, 33-38, 42, 43
    2    7 N      15, 32
    3    9 F      22-24, 39-41
    4    8 O      27, 30, 31, 44
    5    1 H      45-66

          :  Hamiltonian                  GFN2-xTB          :
 * total energy  :  -130.2892786 Eh     change       -0.1162533E-08 Eh
 * total energy  :  -130.3033061 Eh     change       -0.1402750E-01 Eh
 * total energy  :  -130.3074144 Eh     change       -0.4108359E-02 Eh
 * total energy  :  -130.3083186 Eh     change       -0.9041435E-03 Eh
 * total energy  :  -130.3087771 Eh     change       -0.4585277E-03 Eh
 * total energy  :  -130.3090303 Eh     change       -0.2531614E-03 Eh
 * total energy  :  -130.3092804 Eh     change       -0.2501593E-03 Eh
 * total energy  :  -130.3095059 Eh     change       -0.2254166E-03 Eh
 * total energy  :  -130.3096822 Eh     change       -0.1763068E-03 Eh
 * total energy  :  -130.3097809 Eh     change       -0.9872246E-04 Eh
 * total energy  :  -130.3107512 Eh     change       -0.2249157E-04 Eh
 * total energy  :  -130.3107673 Eh     change       -0.1612636E-04 Eh
 * total energy  :  -130.3107808 Eh     change       -0.1345554E-04 Eh
 * total energy  :  -130.3107971 Eh     change       -0.1635192E-04 Eh
 * total energy  :  -130.3108119 Eh     change       -0.1478154E-04 Eh
 * total energy  :  -130.3108224 Eh     change       -0.1047210E-04 Eh
 * total energy  :  -130.3108297 Eh     change       -0.7334016E-05 Eh
 * total energy  :  -130.3108349 Eh     change       -0.5219699E-05 Eh
 * total energy  :  -130.3108391 Eh     change       -0.4138118E-05 Eh
   *** GEOMETRY OPTIMIZATION CONVERGED AFTER 40 ITERATIONS ***

 final structure:
================
66
 xtb: 6.3.3 (4ae9cef)
C         2.20746564132049   -3.53940412083674    2.03665332907608
C         2.54316883071729   -3.79143050530400    3.35525925656136
C         1.84750797557287   -3.17374410152231    4.37999529173852
C         0.81461383582464   -2.30138165860471    4.08129060422185
C         0.48022734568614   -2.04740357700285    2.76345843362027
C         1.17145133827054   -2.66851159565007    1.72994560923387
C         0.83816435904344   -2.37437005231040    0.28601101366912
C        -0.65927473428952   -2.47812470402274   -0.03425082757324
C        -1.00878549946990   -2.97876417056859   -1.41843918781305
C        -2.30735934270133   -3.43137085334521   -1.63209263832228
C        -2.71290058742948   -3.83531477647925   -2.89052456456009
C        -1.82537559876229   -3.79146932392619   -3.95315626927877
C        -0.53338403602912   -3.34117709187452   -3.74826159792010
C        -0.12473014476079   -2.93308538094142   -2.48883437204040
N        -1.10027601686518   -1.08813059366536    0.09989532353219
C        -2.31029505036574   -0.73863602942670    0.59780178370321
C        -2.54026258706013    0.73917180796146    0.72177539924143
C        -1.90986985691497    1.47459008809251    1.72036939613559
C        -2.16495089175708    2.82685672204728    1.85224750393212
C        -3.05233098865943    3.44342561589163    0.97931870395507
C        -3.33442124236107    4.91044339979167    1.14976024628511
F        -3.86499360464624    5.47347105729008    0.05630123175140
F        -4.20089879008847    5.14210563293822    2.15398384819551
F        -2.22679185136630    5.61032689193131    1.44459852520759
C        -3.69943290224216    2.71297693492112   -0.00754109529852
C        -3.44342863770006    1.35936313970539   -0.13110830932733
O        -3.13843033533083   -1.55794319284725    0.92806809738002
C        -0.04072888645958   -0.23139277758030   -0.34475974589354
C        -0.12453104185376    0.04659024325296   -1.86583792491952
O        -1.37661632079866    0.27819003020783   -2.24191115710060
O         0.82362467640088    0.09141244718803   -2.59447359489645
N         1.15136541771754   -0.97250837586921   -0.01414119941914
C         2.43920990528592   -0.57938385924652   -0.20511359555188
C         2.63780180925794    0.89205427350846   -0.39458692233828
C         2.22255311626890    1.79066019282484    0.58278872731209
C         2.44886421075770    3.14490949984328    0.42301188985310
C         3.09841307083349    3.59806754459356   -0.71826484664552
C         3.29603600368751    5.07554656331333   -0.91039364928765
F         2.20837160336739    5.65447705995376   -1.46199814890782
F         4.32374686727315    5.36848834086783   -1.71832720292926
F         3.51679179501262    5.72463325506928    0.24268254985619
C         3.53577471179932    2.70561048174473   -1.68794820585917
C         3.31472136148149    1.35178384483046   -1.51676341456664
O         3.36022620019893   -1.36480593180478   -0.16837282513713
H         2.75995119455599   -4.01139477395517    1.23871650444435
H         3.35222294271656   -4.46914560416826    3.58236175899196
H         2.10964025692774   -3.36888651124739    5.40903331671509
H         0.26753020487698   -1.81702310298637    4.87669963388960
H        -0.33147816218653   -1.36994481046515    2.54147497592596
H         1.44303961711726   -3.02711920007524   -0.34978244413313
H        -1.19410518015306   -3.07184158252504    0.71305635497084
H        -3.00035941190136   -3.45400550665503   -0.80460330918260
H        -3.72273868681604   -4.18586909648619   -3.04176170550492
H        -2.13900861196649   -4.10811054098955   -4.93664950618292
H         0.16513702269976   -3.30263278526020   -4.57068011260609
H         0.88782851600143   -2.58112405000421   -2.36275994436342
H        -1.23279984776809    0.98971799443349    2.40876289312938
H        -1.68109050202236    3.40450440708924    2.62495187167467
H        -4.39647654204527    3.20113061203102   -0.67079896028092
H        -3.94246794656051    0.77638518834979   -0.88861494022215
H        -0.08103384492223    0.75095018168495    0.14547427289144
H        -1.42736165620708    0.45649056554430   -3.19598011113515
H         1.74717018777562    1.42914048760359    1.48325948196628
H         2.13301242214448    3.84841017057243    1.17817571443363
H         4.05182938336192    3.07009859351122   -2.56257379793932
H         3.65152651650548    0.64346496904981   -2.25587541636487

          :  Hamiltonian                  GFN2-xTB          :
         :: total energy            -130.310839058078 Eh    ::
         :: gradient norm              0.000510478170 Eh/a0 ::
         :: HOMO-LUMO gap              3.411941765276 eV    ::
         :: SCC energy              -131.928971839297 Eh    ::
         :: -> dispersion             -0.091524018948 Eh    ::
         :: repulsion energy           1.615077494825 Eh    ::

    * Orbital Energies and Occupations

         #    Occupation            Energy/Eh            Energy/eV
      -------------------------------------------------------------
         1        2.0000           -0.8855223             -24.0963
       ...           ...                  ...                  ...
       101        2.0000           -0.4496283             -12.2350
       102        2.0000           -0.4480868             -12.1931
       103        2.0000           -0.4467900             -12.1578
       104        2.0000           -0.4404188             -11.9844
       105        2.0000           -0.4368702             -11.8878
       106        2.0000           -0.4294834             -11.6868
       107        2.0000           -0.4276277             -11.6363
       108        2.0000           -0.4243789             -11.5479
       109        2.0000           -0.4218346             -11.4787
       110        2.0000           -0.4200646             -11.4305
       111        2.0000           -0.4164989             -11.3335
       112        2.0000           -0.4148004             -11.2873
       113        2.0000           -0.4124066             -11.2222 (HOMO)
       114                         -0.2870201              -7.8102 (LUMO)
       115                         -0.2856534              -7.7730
       116                         -0.2820234              -7.6742
       117                         -0.2743778              -7.4662
       118                         -0.2655089              -7.2249
       119                         -0.2499669              -6.8019
       120                         -0.2424531              -6.5975
       121                         -0.2417865              -6.5793
       122                         -0.2383735              -6.4865
       123                         -0.2377445              -6.4694
       124                         -0.2278799              -6.2009
       ...                                ...                  ...
       198                          0.6499530              17.6861
      -------------------------------------------------------------
                  HL-Gap            0.1253866 Eh            3.4119 eV

     #   Z          covCN         q      C6AA      Î±(0)
     1   6 C        2.924    -0.028    28.695     8.785
     2   6 C        2.920    -0.025    28.619     8.773
     3   6 C        2.920    -0.027    28.683     8.783
     4   6 C        2.919    -0.028    28.705     8.786
     5   6 C        2.924    -0.034    28.854     8.809
     6   6 C        2.973     0.002    27.972     8.675
     7   6 C        3.828     0.036    19.952     6.356
     8   6 C        3.837     0.033    19.988     6.360
     9   6 C        2.972    -0.004    28.110     8.697
    10   6 C        2.926    -0.034    28.853     8.809
    11   6 C        2.919    -0.027    28.680     8.782
    12   6 C        2.919    -0.029    28.737     8.791
    13   6 C        2.920    -0.029    28.728     8.789
    14   6 C        2.921    -0.039    28.968     8.826
    15   7 N        2.775    -0.102    23.239     7.160
    16   6 C        2.759     0.274    22.374     7.746
    17   6 C        2.976    -0.006    28.156     8.704
    18   6 C        2.923    -0.026    28.663     8.780
    19   6 C        2.921    -0.022    28.545     8.762
    20   6 C        2.977    -0.021    28.524     8.761
    21   6 C        3.336     0.486    17.282     6.583
    22   9 F        0.791    -0.203    11.265     3.965
    23   9 F        0.791    -0.206    11.295     3.970
    24   9 F        0.791    -0.205    11.290     3.969
    25   6 C        2.920    -0.020    28.504     8.755
    26   6 C        2.924    -0.016    28.414     8.741
    27   8 O        0.859    -0.407    21.826     6.264
    28   6 C        3.767     0.086    19.184     6.242
    29   6 C        2.687     0.349    21.065     7.511
    30   8 O        1.659    -0.363    20.141     6.058
    31   8 O        0.856    -0.379    21.270     6.183
    32   7 N        2.770    -0.116    23.516     7.202
    33   6 C        2.762     0.276    22.339     7.740
    34   6 C        2.975    -0.004    28.129     8.700
    35   6 C        2.923    -0.030    28.761     8.795
    36   6 C        2.920    -0.024    28.598     8.770
    37   6 C        2.977    -0.022    28.547     8.764
    38   6 C        3.336     0.486    17.290     6.585
    39   9 F        0.791    -0.211    11.348     3.979
    40   9 F        0.791    -0.203    11.261     3.964
    41   9 F        0.791    -0.204    11.274     3.966
    42   6 C        2.920    -0.019    28.492     8.753
    43   6 C        2.924    -0.009    28.242     8.715
    44   8 O        0.859    -0.405    21.776     6.257
    45   1 H        0.926     0.048     2.339     2.392
    46   1 H        0.926     0.043     2.414     2.429
    47   1 H        0.926     0.040     2.454     2.450
    48   1 H        0.926     0.037     2.490     2.468
    49   1 H        0.926     0.024     2.668     2.554
    50   1 H        0.924     0.076     2.021     2.223
    51   1 H        0.924     0.083     1.950     2.184
    52   1 H        0.926     0.056     2.242     2.342
    53   1 H        0.926     0.041     2.434     2.440
    54   1 H        0.926     0.038     2.470     2.458
    55   1 H        0.926     0.040     2.448     2.447
    56   1 H        0.926     0.039     2.458     2.452
    57   1 H        0.926     0.051     2.306     2.375
    58   1 H        0.926     0.066     2.125     2.280
    59   1 H        0.926     0.070     2.082     2.256
    60   1 H        0.926     0.066     2.126     2.280
    61   1 H        0.923     0.071     2.077     2.254
    62   1 H        0.804     0.349     0.590     1.207
    63   1 H        0.926     0.046     2.373     2.409
    64   1 H        0.926     0.064     2.148     2.292
    65   1 H        0.926     0.071     2.078     2.254
    66   1 H        0.926     0.078     1.996     2.209

Wiberg/Mayer (AO) data.
largest (>0.10) Wiberg bond orders for each atom

     #   Z sym  total        # sym  WBO       # sym  WBO       # sym  WBO
 ---------------------------------------------------------------------------
     1   6 C    3.989 --     2 C    1.441     6 C    1.417    45 H    0.967
                             4 C    0.111
     2   6 C    3.992 --     3 C    1.442     1 C    1.441    46 H    0.970
                             5 C    0.112
     3   6 C    3.990 --     2 C    1.442     4 C    1.436    47 H    0.971
                             6 C    0.110
     4   6 C    3.992 --     5 C    1.447     3 C    1.436    48 H    0.971
                             1 C    0.111
     5   6 C    3.992 --     4 C    1.447     6 C    1.412    49 H    0.967
                             2 C    0.112
     6   6 C    3.985 --     1 C    1.417     5 C    1.412     7 C    0.985
                             3 C    0.110
     7   6 C    3.957 --     6 C    0.985     8 C    0.972    50 H    0.950
                            32 N    0.945
     8   6 C    3.955 --     9 C    0.983     7 C    0.972    51 H    0.952
                            15 N    0.942
     9   6 C    3.985 --    14 C    1.419    10 C    1.407     8 C    0.983
                            12 C    0.109
    10   6 C    3.989 --    11 C    1.450     9 C    1.407    52 H    0.966
                            13 C    0.113
    11   6 C    3.991 --    10 C    1.450    12 C    1.434    53 H    0.970
                            14 C    0.110
    12   6 C    3.991 --    13 C    1.445    11 C    1.434    54 H    0.971
                             9 C    0.109
    13   6 C    3.992 --    12 C    1.445    14 C    1.436    55 H    0.971
                            10 C    0.113
    14   6 C    3.991 --    13 C    1.436     9 C    1.419    56 H    0.965
                            11 C    0.110
    15   7 N    3.483 --    16 C    1.216    28 C    0.999     8 C    0.942
                            27 O    0.196
    16   6 C    3.950 --    27 O    1.696    15 N    1.216    17 C    0.953
    17   6 C    3.987 --    26 C    1.410    18 C    1.402    16 C    0.953
                            20 C    0.106
    18   6 C    3.990 --    19 C    1.447    17 C    1.402    57 H    0.966
                            25 C    0.110
    19   6 C    3.988 --    18 C    1.447    20 C    1.410    58 H    0.966
                            26 C    0.111
    20   6 C    3.976 --    25 C    1.417    19 C    1.410    21 C    0.950
                            17 C    0.106
    21   6 C    3.828 --    22 F    0.953    20 C    0.950    24 F    0.947
                            23 F    0.942
    22   9 F    1.076 --    21 C    0.953
    23   9 F    1.072 --    21 C    0.942
    24   9 F    1.073 --    21 C    0.947
    25   6 C    3.988 --    26 C    1.441    20 C    1.417    59 H    0.965
                            18 C    0.110
    26   6 C    3.988 --    25 C    1.441    17 C    1.410    60 H    0.967
                            19 C    0.111
    27   8 O    2.030 --    16 C    1.696    15 N    0.196
    28   6 C    3.977 --    15 N    0.999    32 N    0.991    61 H    0.923
                            29 C    0.903
    29   6 C    3.919 --    31 O    1.784    30 O    1.158    28 C    0.903
    30   8 O    2.219 --    29 C    1.158    62 H    0.852    31 O    0.182
    31   8 O    2.071 --    29 C    1.784    30 O    0.182
    32   7 N    3.455 --    33 C    1.201    28 C    0.991     7 C    0.945
                            44 O    0.190
    33   6 C    3.950 --    44 O    1.702    32 N    1.201    34 C    0.963
    34   6 C    3.987 --    43 C    1.407    35 C    1.400    33 C    0.963
                            37 C    0.105
    35   6 C    3.991 --    36 C    1.449    34 C    1.400    63 H    0.967
                            42 C    0.109
    36   6 C    3.989 --    35 C    1.449    37 C    1.409    64 H    0.966
                            43 C    0.111
    37   6 C    3.975 --    42 C    1.414    36 C    1.409    38 C    0.951
                            34 C    0.105
    38   6 C    3.827 --    40 F    0.953    37 C    0.951    41 F    0.950
                            39 F    0.936
    39   9 F    1.066 --    38 C    0.936
    40   9 F    1.077 --    38 C    0.953
    41   9 F    1.075 --    38 C    0.950
    42   6 C    3.987 --    43 C    1.443    37 C    1.414    65 H    0.965
                            35 C    0.109
    43   6 C    3.986 --    42 C    1.443    34 C    1.407    66 H    0.965
                            36 C    0.111
    44   8 O    2.031 --    33 C    1.702    32 N    0.190
    45   1 H    0.998 --     1 C    0.967
    46   1 H    0.998 --     2 C    0.970
    47   1 H    0.998 --     3 C    0.971
    48   1 H    0.998 --     4 C    0.971
    49   1 H    0.999 --     5 C    0.967
    50   1 H    0.993 --     7 C    0.950
    51   1 H    0.992 --     8 C    0.952
    52   1 H    0.997 --    10 C    0.966
    53   1 H    0.998 --    11 C    0.970
    54   1 H    0.998 --    12 C    0.971
    55   1 H    0.998 --    13 C    0.971
    56   1 H    0.998 --    14 C    0.965
    57   1 H    0.997 --    18 C    0.966
    58   1 H    0.995 --    19 C    0.966
    59   1 H    0.995 --    25 C    0.965
    60   1 H    0.995 --    26 C    0.967
    61   1 H    0.995 --    28 C    0.923
    62   1 H    0.878 --    30 O    0.852
    63   1 H    0.998 --    35 C    0.967
    64   1 H    0.995 --    36 C    0.966
    65   1 H    0.995 --    42 C    0.965
    66   1 H    0.994 --    43 C    0.965
 ---------------------------------------------------------------------------

molecular dipole:
                 x           y           z       tot (Debye)
 q only:       -0.598      -2.371      -0.474
   full:       -0.730      -1.920      -0.648       5.475

           -------------------------------------------------
          | TOTAL ENERGY             -130.310839058078 Eh   |
          | GRADIENT NORM               0.000510478170 Eh/Î± |
          | HOMO-LUMO GAP               3.411941765276 eV   |
           -------------------------------------------------

 * finished run on 2022/03/17 at 02:02:41.333
