   * xtb version 6.3.3 (4ae9cef) compiled by 'conda@95abc7406d43' on 2020-10-14
          program call               : xtb acid_122.xyz --opt --chrg 0 --uhf 0 --gfn 2
          number of atoms            :                    64
          number of electrons        :                   210
          charge                     :                     0
          spin                       :                   0.0

   ID    Z sym.   atoms
    1    8 O      1, 8, 9, 15, 16, 24, 25, 28
    2    6 C      2-6, 10, 11, 13, 14, 18-22, 26, 27, 29-42
    3    7 N      7, 12, 17, 23
    4    1 H      43-64

          :  Hamiltonian                  GFN2-xTB          :
 * total energy  :  -119.4725609 Eh     change       -0.1375554E-08 Eh
 * total energy  :  -119.4912165 Eh     change       -0.1865557E-01 Eh
 * total energy  :  -119.4955769 Eh     change       -0.4360420E-02 Eh
 * total energy  :  -119.4968314 Eh     change       -0.1254552E-02 Eh
 * total energy  :  -119.4988797 Eh     change       -0.2048298E-02 Eh
 * total energy  :  -119.5004037 Eh     change       -0.1523970E-02 Eh
 * total energy  :  -119.5019323 Eh     change       -0.1528563E-02 Eh
 * total energy  :  -119.5037097 Eh     change       -0.1777424E-02 Eh
 * total energy  :  -119.5054112 Eh     change       -0.1701509E-02 Eh
 * total energy  :  -119.5073708 Eh     change       -0.1959560E-02 Eh
 * total energy  :  -119.5331340 Eh     change        0.1442841E-04 Eh
 * total energy  :  -119.5331536 Eh     change       -0.1957757E-04 Eh
 * total energy  :  -119.5331635 Eh     change       -0.9876680E-05 Eh
 * total energy  :  -119.5331705 Eh     change       -0.7016332E-05 Eh
 * total energy  :  -119.5331833 Eh     change       -0.1277829E-04 Eh
 * total energy  :  -119.5331793 Eh     change        0.4002742E-05 Eh
 * total energy  :  -119.5331869 Eh     change       -0.7691894E-05 Eh
 * total energy  :  -119.5331916 Eh     change       -0.4671835E-05 Eh
 * total energy  :  -119.5331939 Eh     change       -0.2310495E-05 Eh
   *** GEOMETRY OPTIMIZATION CONVERGED AFTER 68 ITERATIONS ***

 final structure:
================
64
 xtb: 6.3.3 (4ae9cef)
O         0.83806108603761   -3.09254076441798    0.34268641321643
C         1.11936470317694   -1.91861465399025    0.56538685044259
C         2.37377257952898   -1.51630022439513    1.26808717932372
C         2.34471017680808   -0.96892413517884    2.54653396691390
C         3.52168074781850   -0.57284709054223    3.15066270328122
C         4.71980441201200   -0.72796539613658    2.46592128475487
N         5.94702924167045   -0.26351420050284    3.07472460988821
O         5.86848447604898    0.24687998331207    4.16976409037936
O         6.97074747077312   -0.40409304096896    2.44477579881711
C         4.76438714402370   -1.31599406074058    1.20871082528743
C         3.58608199414696   -1.72142603486781    0.61570977784923
N         0.33412797121956   -0.91066958376728    0.15440960621726
C        -0.93952455675351   -1.15054818666696   -0.50439289092247
C        -0.74320879951043   -1.70948292224883   -1.95513591916398
O        -0.24391839272108   -2.92136487980659   -2.02043417192627
O        -1.05756475815435   -1.05749665981284   -2.90889066108408
N        -1.56392061835033    0.14241076918010   -0.53020783385711
C        -2.73089172339111    0.41905901847891   -1.19267418931816
C        -3.64454621460164   -0.75084493048724   -1.38471559171500
C        -4.11719139116873   -1.47717181186852   -0.29447327345616
C        -4.99761291995728   -2.52280288868426   -0.48948326768164
C        -5.39739812151717   -2.83854841248680   -1.78241000290376
N        -6.30945670763322   -3.93991695528339   -1.98771178675207
O        -6.66503092472733   -4.17127721138953   -3.12176899221555
O        -6.66225766394990   -4.56391364631919   -1.01013689175208
C        -4.94574176412582   -2.11058721919185   -2.87627592606532
C        -4.07560748948121   -1.05787166247782   -2.67161553909587
O        -3.02747583007222    1.53970710795948   -1.53191282874799
C        -0.56252602134156    1.19899626389508   -0.41794753379308
C        -1.08249512104956    2.38208556971371    0.35469253669507
C        -0.79711054975994    3.67317298845230   -0.06237010839187
C        -1.25001098464409    4.75664351807130    0.66960010722531
C        -1.99146762981263    4.55751591831182    1.82125535424136
C        -2.27705333937733    3.26990785510942    2.24286009123964
C        -1.81933318974781    2.18662734081107    1.51591350126813
C         0.60895295597564    0.51306853385730    0.31517973830122
C         1.95516831260964    0.89677359771441   -0.23898881877946
C         2.81733466390405    1.69093863018633    0.50439409656320
C         4.06704720629015    2.01644262167984    0.00803576287972
C         4.46246596029516    1.55268005696073   -1.23504761621608
C         3.59696962588412    0.77897737758209   -1.99028092108559
C         2.34609375494321    0.45486273608892   -1.49745668698063
H         1.40686425638490   -0.85865926226473    3.06945855772729
H         3.52991706593470   -0.13684126164143    4.13806079957777
H         5.71594220992317   -1.44311932117608    0.71629309157828
H         3.59682660928613   -2.18203832413673   -0.35951630081883
H        -1.52449788495535   -1.88955763172749    0.06626958607420
H         0.07617917392613   -3.26011167609916   -1.13622886854930
H        -3.81486881456652   -1.20786700089472    0.70684894256535
H        -5.38357529821585   -3.09878978010137    0.33780936873563
H        -5.28479606382518   -2.37739511701383   -3.86540959672529
H        -3.70885047932791   -0.47433326950260   -3.50048414780636
H        -0.25389966220469    1.52089347694029   -1.42157262627344
H        -0.22634099052290    3.82880788974162   -0.96558919796926
H        -1.02847712055157    5.75899868132583    0.33570222635387
H        -2.35061492279362    5.40334535856571    2.38783923766126
H        -2.85868787205497    3.10941974808079    3.13850537459938
H        -2.04751363978998    1.18161138716693    1.84289501553777
H         0.56368699737367    0.77220932915085    1.38077829860625
H         2.50842430188149    2.05233103743939    1.47453538872969
H         4.73357093225651    2.63035773125161    0.59437478444120
H         5.44109329166404    1.79880153917431   -1.61712433518601
H         3.89506176310191    0.42675442138197   -2.96588920457755
H         1.67361837575063   -0.14685127079906   -2.09252923714354

          :  Hamiltonian                  GFN2-xTB          :
         :: total energy            -119.533193929645 Eh    ::
         :: gradient norm              0.000397333951 Eh/a0 ::
         :: HOMO-LUMO gap              1.877768816693 eV    ::
         :: SCC energy              -121.145855990419 Eh    ::
         :: -> dispersion             -0.093280349930 Eh    ::
         :: repulsion energy           1.610214611034 Eh    ::

    * Orbital Energies and Occupations

         #    Occupation            Energy/Eh            Energy/eV
      -------------------------------------------------------------
         1        2.0000           -0.7930995             -21.5813
       ...           ...                  ...                  ...
        93        2.0000           -0.4548832             -12.3780
        94        2.0000           -0.4547059             -12.3732
        95        2.0000           -0.4517263             -12.2921
        96        2.0000           -0.4511479             -12.2764
        97        2.0000           -0.4454168             -12.1204
        98        2.0000           -0.4450204             -12.1096
        99        2.0000           -0.4427294             -12.0473
       100        2.0000           -0.4419795             -12.0269
       101        2.0000           -0.4394476             -11.9580
       102        2.0000           -0.4285470             -11.6614
       103        2.0000           -0.4254092             -11.5760
       104        2.0000           -0.4218337             -11.4787
       105        2.0000           -0.4139332             -11.2637 (HOMO)
       106                         -0.3449265              -9.3859 (LUMO)
       107                         -0.3293325              -8.9616
       108                         -0.2883634              -7.8468
       109                         -0.2837585              -7.7215
       110                         -0.2736862              -7.4474
       111                         -0.2696724              -7.3382
       112                         -0.2669205              -7.2633
       113                         -0.2634867              -7.1698
       114                         -0.2606293              -7.0921
       115                         -0.2550314              -6.9398
       116                         -0.2463082              -6.7024
       ...                                ...                  ...
       190                          0.6451498              17.5554
      -------------------------------------------------------------
                  HL-Gap            0.0690067 Eh            1.8778 eV

     #   Z          covCN         q      C6AA      Î±(0)
     1   8 O        0.859    -0.448    22.668     6.383
     2   6 C        2.765     0.269    22.452     7.760
     3   6 C        2.978     0.004    27.938     8.670
     4   6 C        2.922    -0.022    28.556     8.763
     5   6 C        2.919    -0.018    28.469     8.750
     6   6 C        2.918     0.007    27.859     8.655
     7   7 N        2.759     0.549    13.489     5.455
     8   8 O        0.930    -0.377    21.185     6.173
     9   8 O        0.930    -0.375    21.161     6.169
    10   6 C        2.918    -0.017    28.440     8.745
    11   6 C        2.925    -0.015    28.395     8.739
    12   7 N        2.763    -0.102    23.239     7.160
    13   6 C        3.758     0.076    19.357     6.273
    14   6 C        2.683     0.348    21.096     7.516
    15   8 O        1.654    -0.363    20.156     6.061
    16   8 O        0.856    -0.366    21.013     6.146
    17   7 N        2.762    -0.122    23.645     7.222
    18   6 C        2.767     0.281    22.240     7.723
    19   6 C        2.975    -0.004    28.115     8.698
    20   6 C        2.922    -0.029    28.726     8.789
    21   6 C        2.918    -0.022    28.546     8.761
    22   6 C        2.917     0.006    27.895     8.661
    23   7 N        2.759     0.547    13.508     5.459
    24   8 O        0.930    -0.377    21.202     6.175
    25   8 O        0.930    -0.383    21.317     6.192
    26   6 C        2.918    -0.017    28.424     8.743
    27   6 C        2.924    -0.011    28.289     8.722
    28   8 O        0.859    -0.390    21.490     6.215
    29   6 C        3.832     0.048    19.742     6.322
    30   6 C        2.975     0.010    27.783     8.646
    31   6 C        2.924    -0.028    28.690     8.784
    32   6 C        2.920    -0.023    28.589     8.768
    33   6 C        2.920    -0.026    28.662     8.779
    34   6 C        2.920    -0.026    28.660     8.779
    35   6 C        2.924    -0.032    28.801     8.801
    36   6 C        3.818     0.034    19.985     6.362
    37   6 C        2.973    -0.007    28.195     8.710
    38   6 C        2.923    -0.038    28.939     8.822
    39   6 C        2.920    -0.027    28.680     8.782
    40   6 C        2.920    -0.027    28.666     8.780
    41   6 C        2.920    -0.026    28.646     8.777
    42   6 C        2.923    -0.034    28.846     8.808
    43   1 H        0.926     0.058     2.226     2.333
    44   1 H        0.926     0.091     1.872     2.139
    45   1 H        0.926     0.091     1.865     2.136
    46   1 H        0.926     0.067     2.122     2.278
    47   1 H        0.923     0.065     2.139     2.287
    48   1 H        0.800     0.368     0.548     1.163
    49   1 H        0.926     0.049     2.329     2.387
    50   1 H        0.926     0.085     1.931     2.173
    51   1 H        0.926     0.091     1.872     2.139
    52   1 H        0.926     0.083     1.947     2.182
    53   1 H        0.923     0.063     2.162     2.300
    54   1 H        0.926     0.040     2.455     2.450
    55   1 H        0.926     0.044     2.398     2.421
    56   1 H        0.926     0.042     2.420     2.433
    57   1 H        0.926     0.040     2.454     2.450
    58   1 H        0.925     0.026     2.639     2.541
    59   1 H        0.924     0.054     2.267     2.354
    60   1 H        0.926     0.033     2.547     2.496
    61   1 H        0.926     0.047     2.362     2.403
    62   1 H        0.926     0.050     2.319     2.381
    63   1 H        0.926     0.050     2.324     2.384
    64   1 H        0.926     0.038     2.482     2.463

Wiberg/Mayer (AO) data.
largest (>0.10) Wiberg bond orders for each atom

     #   Z sym  total        # sym  WBO       # sym  WBO       # sym  WBO
 ---------------------------------------------------------------------------
     1   8 O    2.020 --     2 C    1.600    12 N    0.192
     2   6 C    3.948 --     1 O    1.600    12 N    1.280     3 C    0.967
     3   6 C    3.988 --     4 C    1.398    11 C    1.396     2 C    0.967
     4   6 C    3.989 --     5 C    1.453     3 C    1.398    43 H    0.967
                            10 C    0.105
     5   6 C    3.984 --     4 C    1.453     6 C    1.385    44 H    0.958
                            11 C    0.107
     6   6 C    3.966 --     5 C    1.385    10 C    1.385     7 N    0.956
     7   7 N    3.914 --     9 O    1.459     8 O    1.457     6 C    0.956
     8   8 O    1.942 --     7 N    1.457     9 O    0.369
     9   8 O    1.944 --     7 N    1.459     8 O    0.369
    10   6 C    3.983 --    11 C    1.453     6 C    1.385    45 H    0.958
                             4 C    0.105
    11   6 C    3.988 --    10 C    1.453     3 C    1.396    46 H    0.966
                             5 C    0.107
    12   7 N    3.511 --     2 C    1.280    13 C    0.968    36 C    0.952
                             1 O    0.192
    13   6 C    3.960 --    17 N    1.002    12 N    0.968    47 H    0.939
                            14 C    0.881
    14   6 C    3.931 --    16 O    1.776    15 O    1.213    13 C    0.881
    15   8 O    2.246 --    14 C    1.213    48 H    0.764    16 O    0.184
    16   8 O    2.087 --    14 C    1.776    15 O    0.184
    17   7 N    3.423 --    18 C    1.170    13 C    1.002    29 C    0.955
                            28 O    0.182
    18   6 C    3.948 --    28 O    1.725    17 N    1.170    19 C    0.965
    19   6 C    3.986 --    27 C    1.398    20 C    1.394    18 C    0.965
    20   6 C    3.991 --    21 C    1.458    19 C    1.394    49 H    0.967
                            26 C    0.104
    21   6 C    3.986 --    20 C    1.458    22 C    1.380    50 H    0.959
                            27 C    0.106
    22   6 C    3.964 --    26 C    1.384    21 C    1.380    23 N    0.960
    23   7 N    3.912 --    24 O    1.458    25 O    1.452    22 C    0.960
    24   8 O    1.942 --    23 N    1.458    25 O    0.365
    25   8 O    1.935 --    23 N    1.452    24 O    0.365
    26   6 C    3.984 --    27 C    1.453    22 C    1.384    51 H    0.958
                            20 C    0.104
    27   6 C    3.985 --    26 C    1.453    19 C    1.398    52 H    0.963
                            21 C    0.106
    28   8 O    2.051 --    18 C    1.725    17 N    0.182
    29   6 C    3.961 --    30 C    0.990    17 N    0.955    36 C    0.954
                            53 H    0.953
    30   6 C    3.984 --    31 C    1.416    35 C    1.409    29 C    0.990
                            33 C    0.109
    31   6 C    3.990 --    32 C    1.442    30 C    1.416    54 H    0.968
                            34 C    0.111
    32   6 C    3.991 --    31 C    1.442    33 C    1.441    55 H    0.970
                            35 C    0.112
    33   6 C    3.990 --    32 C    1.441    34 C    1.436    56 H    0.971
                            30 C    0.109
    34   6 C    3.992 --    35 C    1.448    33 C    1.436    57 H    0.971
                            31 C    0.111
    35   6 C    3.992 --    34 C    1.448    30 C    1.409    58 H    0.969
                            32 C    0.112
    36   6 C    3.958 --    37 C    0.990    29 C    0.954    59 H    0.952
                            12 N    0.952
    37   6 C    3.984 --    38 C    1.413    42 C    1.409    36 C    0.990
                            40 C    0.109
    38   6 C    3.991 --    39 C    1.443    37 C    1.413    60 H    0.968
                            41 C    0.110
    39   6 C    3.991 --    38 C    1.443    40 C    1.439    61 H    0.970
                            42 C    0.111
    40   6 C    3.989 --    39 C    1.439    41 C    1.436    62 H    0.970
                            37 C    0.109
    41   6 C    3.991 --    42 C    1.447    40 C    1.436    63 H    0.970
                            38 C    0.110
    42   6 C    3.991 --    41 C    1.447    37 C    1.409    64 H    0.968
                            39 C    0.111
    43   1 H    0.996 --     4 C    0.967
    44   1 H    0.991 --     5 C    0.958
    45   1 H    0.991 --    10 C    0.958
    46   1 H    0.995 --    11 C    0.966
    47   1 H    0.995 --    13 C    0.939
    48   1 H    0.864 --    15 O    0.764
    49   1 H    0.997 --    20 C    0.967
    50   1 H    0.992 --    21 C    0.959
    51   1 H    0.991 --    26 C    0.958
    52   1 H    0.993 --    27 C    0.963
    53   1 H    0.995 --    29 C    0.953
    54   1 H    0.998 --    31 C    0.968
    55   1 H    0.998 --    32 C    0.970
    56   1 H    0.998 --    33 C    0.971
    57   1 H    0.998 --    34 C    0.971
    58   1 H    0.999 --    35 C    0.969
    59   1 H    0.997 --    36 C    0.952
    60   1 H    0.999 --    38 C    0.968
    61   1 H    0.997 --    39 C    0.970
    62   1 H    0.997 --    40 C    0.970
    63   1 H    0.997 --    41 C    0.970
    64   1 H    0.999 --    42 C    0.968
 ---------------------------------------------------------------------------

molecular dipole:
                 x           y           z       tot (Debye)
 q only:        1.310       1.698       1.107
   full:        1.356       1.484       1.398       6.224

           -------------------------------------------------
          | TOTAL ENERGY             -119.533193929645 Eh   |
          | GRADIENT NORM               0.000397333951 Eh/Î± |
          | HOMO-LUMO GAP               1.877768816693 eV   |
           -------------------------------------------------

 * finished run on 2022/03/16 at 21:34:32.611
