   * xtb version 6.3.3 (4ae9cef) compiled by 'conda@95abc7406d43' on 2020-10-14
          program call               : xtb acid_307.xyz --opt --chrg 0 --uhf 0 --gfn 2
          number of atoms            :                    66
          number of electrons        :                   190
          charge                     :                     0
          spin                       :                   0.0

   ID    Z sym.   atoms
    1    8 O      1, 13, 14, 24
    2    6 C      2-9, 11, 12, 16-23, 25-38
    3    7 N      10, 15
    4    1 H      39-66

          :  Hamiltonian                  GFN2-xTB          :
 * total energy  :  -104.9344646 Eh     change       -0.1546283E-08 Eh
 * total energy  :  -104.9467615 Eh     change       -0.1229695E-01 Eh
 * total energy  :  -104.9502737 Eh     change       -0.3512214E-02 Eh
 * total energy  :  -104.9511270 Eh     change       -0.8533109E-03 Eh
 * total energy  :  -104.9515906 Eh     change       -0.4636018E-03 Eh
 * total energy  :  -104.9518636 Eh     change       -0.2729614E-03 Eh
 * total energy  :  -104.9521118 Eh     change       -0.2481627E-03 Eh
 * total energy  :  -104.9523451 Eh     change       -0.2333528E-03 Eh
 * total energy  :  -104.9525411 Eh     change       -0.1959755E-03 Eh
 * total energy  :  -104.9526665 Eh     change       -0.1253802E-03 Eh
 * total energy  :  -104.9536727 Eh     change       -0.1339426E-04 Eh
 * total energy  :  -104.9536806 Eh     change       -0.7866291E-05 Eh
 * total energy  :  -104.9537038 Eh     change       -0.2326575E-04 Eh
 * total energy  :  -104.9537198 Eh     change       -0.1594908E-04 Eh
 * total energy  :  -104.9537272 Eh     change       -0.7436207E-05 Eh
 * total energy  :  -104.9537365 Eh     change       -0.9319682E-05 Eh
 * total energy  :  -104.9537464 Eh     change       -0.9854784E-05 Eh
 * total energy  :  -104.9537522 Eh     change       -0.5765325E-05 Eh
 * total energy  :  -104.9537561 Eh     change       -0.3930128E-05 Eh
   *** GEOMETRY OPTIMIZATION CONVERGED AFTER 39 ITERATIONS ***

 final structure:
================
66
 xtb: 6.3.3 (4ae9cef)
O        -3.56716300853709    0.30208952786859   -0.18181253525332
C        -2.45416700168701   -0.10424107091816    0.07559467930190
C        -2.16017882153858   -1.51815357374717    0.46530325911832
C        -1.53173831742770   -2.38439797472158   -0.42164707118789
C        -1.28010655329775   -3.69397055570718   -0.05532437603162
C        -1.64833843557450   -4.16524741882294    1.19800918520470
C        -1.38704356097985   -5.58512162825914    1.59655563727273
C        -2.29018369999165   -3.29550931206391    2.07272948942314
C        -2.55039443810620   -1.98697260812182    1.71235218937725
N        -1.36335076274886    0.70160053207762    0.01801386772714
C        -0.00234528045291    0.36712712051417    0.31531616324610
C         0.36707379930143    0.69408936070266    1.77971492703434
O        -0.61888528314634    0.36507301145576    2.60947505015170
O         1.42057700197662    1.14166177208598    2.13101644799926
N         0.75166983485262    1.17581297062999   -0.60879557215624
C         2.09292931615513    1.11872538667882   -0.83728298542825
C         2.75229334603132   -0.12685320716447   -0.34602179752501
C         3.78769429089013   -0.06458808845416    0.57564274164801
C         4.40178835236186   -1.22615595913304    1.00533637631984
C         4.01184616791864   -2.46622390567661    0.51355679836764
C         4.69774880541748   -3.71860871997851    0.96694426438888
C         2.99432451008043   -2.51681834574197   -0.43165277053094
C         2.36837292543235   -1.36128824767633   -0.85905992636919
O         2.67281036085121    1.99472511298168   -1.44215708678439
C        -0.07161597266221    2.24975172848972   -1.16731253232439
C        -0.20615850549181    2.06986651945685   -2.66047405077467
C        -0.74280099936265    0.90011322461724   -3.18453553059299
C        -0.85042521508123    0.72969566870167   -4.55247697128121
C        -0.41887274334754    1.72584111231918   -5.41185262379330
C         0.11944472951832    2.89197031378920   -4.89644731803565
C         0.22598859420239    3.06277754232485   -3.52737750184810
C        -1.40963134095931    2.09476084676281   -0.42502125969647
C        -1.61035663828453    2.99637922973911    0.77244729945042
C        -2.91125092087048    3.18463720482834    1.22915455969861
C        -3.15720421690252    3.94014196971456    2.36040923283910
C        -2.10488933794370    4.51734071872223    3.05196618062839
C        -0.80878553297604    4.33213729315554    2.60526908604264
C        -0.55909646038390    3.57373648477107    1.47292844841892
H        -1.25140339039095   -2.04129127080003   -1.40804640637429
H        -0.79273006310559   -4.35816472090542   -0.75456110930542
H        -1.01054953941919   -5.63580046385477    2.61629628769690
H        -2.31245484027711   -6.15968710980683    1.55448661456679
H        -0.66595774346373   -6.05168421657297    0.93023202110799
H        -2.59258887633232   -3.65166915911027    3.04698873637600
H        -3.05156639445778   -1.31840857463061    2.39519832149078
H         0.18879483944178   -0.70786407264154    0.19081554455131
H        -0.37834967083356    0.56577669650312    3.52901454685032
H         4.09373778512374    0.89477471974779    0.96133094495110
H         5.19971192230589   -1.17067128225628    1.73149426906088
H         5.59168246217693   -3.88937004036046    0.36636168159885
H         4.04632677685361   -4.58215416745427    0.85483767797517
H         5.00430122664059   -3.63792294205562    2.00728199122949
H         2.69071047468160   -3.47106812404703   -0.83836487820723
H         1.59490674513178   -1.41311828531294   -1.61322508527584
H         0.39856336966590    3.21827929142554   -0.97329504694501
H        -1.08595325129322    0.12093275278230   -2.51952976636997
H        -1.27171758146417   -0.18269121502931   -4.94888122784254
H        -0.50007076041381    1.59102792288098   -6.48024924580797
H         0.46216456084317    3.66997770387605   -5.56216443466364
H         0.65752975946218    3.96799006710692   -3.12777205760932
H        -2.26230016245781    2.19941888973752   -1.10336492292832
H        -3.72777802711304    2.72131600898912    0.69608577885087
H        -4.17184362278850    4.07910825594868    2.70272758687340
H        -2.29442231246985    5.10901503096975    3.93542995841946
H         0.01828616103370    4.77625692507078    3.13921935890725
H         0.46339216569042    3.44178734359646    1.15316888678290

          :  Hamiltonian                  GFN2-xTB          :
         :: total energy            -104.953756098524 Eh    ::
         :: gradient norm              0.000418126062 Eh/a0 ::
         :: HOMO-LUMO gap              3.388410599345 eV    ::
         :: SCC energy              -106.612123114288 Eh    ::
         :: -> dispersion             -0.089713617847 Eh    ::
         :: repulsion energy           1.655258499477 Eh    ::

    * Orbital Energies and Occupations

         #    Occupation            Energy/Eh            Energy/eV
      -------------------------------------------------------------
         1        2.0000           -0.7747359             -21.0816
       ...           ...                  ...                  ...
        83        2.0000           -0.4234704             -11.5232
        84        2.0000           -0.4181340             -11.3780
        85        2.0000           -0.4138064             -11.2602
        86        2.0000           -0.4106951             -11.1756
        87        2.0000           -0.4101477             -11.1607
        88        2.0000           -0.4085882             -11.1183
        89        2.0000           -0.4065042             -11.0615
        90        2.0000           -0.4062197             -11.0538
        91        2.0000           -0.4012291             -10.9180
        92        2.0000           -0.4011178             -10.9150
        93        2.0000           -0.3958733             -10.7723
        94        2.0000           -0.3908585             -10.6358
        95        2.0000           -0.3879063             -10.5555 (HOMO)
        96                         -0.2633845              -7.1671 (LUMO)
        97                         -0.2427958              -6.6068
        98                         -0.2400974              -6.5334
        99                         -0.2358411              -6.4176
       100                         -0.2347847              -6.3888
       101                         -0.2282445              -6.2108
       102                         -0.2277438              -6.1972
       103                         -0.2271005              -6.1797
       104                         -0.2241392              -6.0991
       105                         -0.2113694              -5.7517
       106                         -0.1981682              -5.3924
       ...                                ...                  ...
       180                          0.6681767              18.1820
      -------------------------------------------------------------
                  HL-Gap            0.1245218 Eh            3.3884 eV

     #   Z          covCN         q      C6AA      Î±(0)
     1   8 O        0.859    -0.421    22.107     6.304
     2   6 C        2.758     0.274    22.375     7.746
     3   6 C        2.977    -0.022    28.538     8.763
     4   6 C        2.921    -0.032    28.805     8.801
     5   6 C        2.924    -0.039    28.959     8.825
     6   6 C        2.966     0.021    27.536     8.607
     7   6 C        3.758    -0.112    22.685     6.791
     8   6 C        2.926    -0.038    28.934     8.821
     9   6 C        2.922    -0.024    28.593     8.769
    10   7 N        2.775    -0.108    23.358     7.178
    11   6 C        3.770     0.089    19.135     6.234
    12   6 C        2.687     0.349    21.071     7.512
    13   8 O        1.659    -0.364    20.167     6.062
    14   8 O        0.856    -0.382    21.334     6.193
    15   7 N        2.771    -0.120    23.601     7.215
    16   6 C        2.761     0.275    22.344     7.741
    17   6 C        2.977    -0.021    28.536     8.763
    18   6 C        2.921    -0.018    28.461     8.749
    19   6 C        2.925    -0.037    28.925     8.820
    20   6 C        2.966     0.020    27.563     8.611
    21   6 C        3.758    -0.111    22.675     6.789
    22   6 C        2.924    -0.040    29.002     8.832
    23   6 C        2.922    -0.036    28.899     8.816
    24   8 O        0.859    -0.418    22.048     6.295
    25   6 C        3.827     0.039    19.904     6.348
    26   6 C        2.973     0.005    27.897     8.664
    27   6 C        2.924    -0.032    28.788     8.799
    28   6 C        2.919    -0.028    28.703     8.786
    29   6 C        2.920    -0.029    28.714     8.787
    30   6 C        2.920    -0.025    28.638     8.776
    31   6 C        2.924    -0.027    28.687     8.783
    32   6 C        3.838     0.036    19.951     6.354
    33   6 C        2.972    -0.002    28.064     8.690
    34   6 C        2.926    -0.033    28.828     8.805
    35   6 C        2.919    -0.028    28.694     8.784
    36   6 C        2.919    -0.031    28.767     8.795
    37   6 C        2.920    -0.030    28.747     8.792
    38   6 C        2.921    -0.039    28.961     8.825
    39   1 H        0.925     0.030     2.592     2.518
    40   1 H        0.926     0.037     2.487     2.466
    41   1 H        0.925     0.048     2.350     2.397
    42   1 H        0.925     0.054     2.275     2.359
    43   1 H        0.925     0.045     2.385     2.415
    44   1 H        0.926     0.039     2.464     2.455
    45   1 H        0.926     0.044     2.396     2.421
    46   1 H        0.923     0.075     2.030     2.228
    47   1 H        0.804     0.343     0.604     1.221
    48   1 H        0.926     0.055     2.257     2.349
    49   1 H        0.926     0.040     2.452     2.449
    50   1 H        0.924     0.053     2.286     2.365
    51   1 H        0.925     0.044     2.401     2.423
    52   1 H        0.925     0.046     2.369     2.407
    53   1 H        0.926     0.034     2.537     2.491
    54   1 H        0.925     0.027     2.634     2.538
    55   1 H        0.924     0.069     2.099     2.266
    56   1 H        0.926     0.025     2.652     2.547
    57   1 H        0.926     0.034     2.531     2.488
    58   1 H        0.926     0.036     2.509     2.477
    59   1 H        0.926     0.039     2.467     2.456
    60   1 H        0.926     0.043     2.409     2.427
    61   1 H        0.924     0.077     2.011     2.217
    62   1 H        0.926     0.056     2.242     2.342
    63   1 H        0.926     0.038     2.478     2.462
    64   1 H        0.926     0.034     2.526     2.485
    65   1 H        0.926     0.037     2.494     2.470
    66   1 H        0.926     0.039     2.456     2.451

Wiberg/Mayer (AO) data.
largest (>0.10) Wiberg bond orders for each atom

     #   Z sym  total        # sym  WBO       # sym  WBO       # sym  WBO
 ---------------------------------------------------------------------------
     1   8 O    2.017 --     2 C    1.693    10 N    0.190
     2   6 C    3.944 --     1 O    1.693    10 N    1.207     3 C    0.959
     3   6 C    3.987 --     9 C    1.402     4 C    1.401     2 C    0.959
                             6 C    0.107
     4   6 C    3.991 --     5 C    1.445     3 C    1.401    39 H    0.967
                             8 C    0.109
     5   6 C    3.991 --     4 C    1.445     6 C    1.411    40 H    0.968
                             9 C    0.107
     6   6 C    3.988 --     5 C    1.411     8 C    1.406     7 C    1.027
                             3 C    0.107
     7   6 C    3.996 --     6 C    1.027    43 H    0.984    41 H    0.977
                            42 H    0.967
     8   6 C    3.991 --     9 C    1.452     6 C    1.406    44 H    0.969
                             4 C    0.109
     9   6 C    3.991 --     8 C    1.452     3 C    1.402    45 H    0.969
                             5 C    0.107
    10   7 N    3.474 --     2 C    1.207    11 C    0.998    32 C    0.946
                             1 O    0.190
    11   6 C    3.976 --    10 N    0.998    15 N    0.991    46 H    0.919
                            12 C    0.907
    12   6 C    3.917 --    14 O    1.783    13 O    1.152    11 C    0.907
    13   8 O    2.216 --    12 C    1.152    47 H    0.856    14 O    0.181
    14   8 O    2.066 --    12 C    1.783    13 O    0.181
    15   7 N    3.449 --    16 C    1.194    11 C    0.991    25 C    0.951
                            24 O    0.186
    16   6 C    3.944 --    24 O    1.699    15 N    1.194    17 C    0.967
    17   6 C    3.988 --    18 C    1.405    23 C    1.395    16 C    0.967
                            20 C    0.106
    18   6 C    3.989 --    19 C    1.449    17 C    1.405    48 H    0.968
                            22 C    0.107
    19   6 C    3.991 --    18 C    1.449    20 C    1.410    49 H    0.968
                            23 C    0.109
    20   6 C    3.988 --    19 C    1.410    22 C    1.406    21 C    1.027
                            17 C    0.106
    21   6 C    3.996 --    20 C    1.027    51 H    0.983    52 H    0.981
                            50 H    0.966
    22   6 C    3.991 --    23 C    1.451    20 C    1.406    53 H    0.968
                            18 C    0.107
    23   6 C    3.991 --    22 C    1.451    17 C    1.395    54 H    0.968
                            19 C    0.109
    24   8 O    2.020 --    16 C    1.699    15 N    0.186
    25   6 C    3.962 --    26 C    0.986    32 C    0.968    55 H    0.951
                            15 N    0.951
    26   6 C    3.986 --    31 C    1.417    27 C    1.411    25 C    0.986
                            29 C    0.110
    27   6 C    3.992 --    28 C    1.448    26 C    1.411    56 H    0.966
                            30 C    0.112
    28   6 C    3.992 --    27 C    1.448    29 C    1.436    57 H    0.971
                            31 C    0.111
    29   6 C    3.991 --    30 C    1.442    28 C    1.436    58 H    0.971
                            26 C    0.110
    30   6 C    3.992 --    29 C    1.442    31 C    1.441    59 H    0.971
                            27 C    0.112
    31   6 C    3.990 --    30 C    1.441    26 C    1.417    60 H    0.968
                            28 C    0.111
    32   6 C    3.960 --    33 C    0.984    25 C    0.968    61 H    0.953
                            10 N    0.946
    33   6 C    3.985 --    38 C    1.419    34 C    1.407    32 C    0.984
                            36 C    0.109
    34   6 C    3.989 --    35 C    1.450    33 C    1.407    62 H    0.966
                            37 C    0.113
    35   6 C    3.991 --    34 C    1.450    36 C    1.434    63 H    0.970
                            38 C    0.110
    36   6 C    3.991 --    37 C    1.444    35 C    1.434    64 H    0.971
                            33 C    0.109
    37   6 C    3.992 --    36 C    1.444    38 C    1.436    65 H    0.971
                            34 C    0.113
    38   6 C    3.991 --    37 C    1.436    33 C    1.419    66 H    0.964
                            35 C    0.110
    39   1 H    0.999 --     4 C    0.967
    40   1 H    0.998 --     5 C    0.968
    41   1 H    0.997 --     7 C    0.977
    42   1 H    0.997 --     7 C    0.967
    43   1 H    0.998 --     7 C    0.984
    44   1 H    0.998 --     8 C    0.969
    45   1 H    0.998 --     9 C    0.969
    46   1 H    0.994 --    11 C    0.919
    47   1 H    0.881 --    13 O    0.856
    48   1 H    0.997 --    18 C    0.968
    49   1 H    0.998 --    19 C    0.968
    50   1 H    0.997 --    21 C    0.966
    51   1 H    0.998 --    21 C    0.983
    52   1 H    0.998 --    21 C    0.981
    53   1 H    0.998 --    22 C    0.968
    54   1 H    0.999 --    23 C    0.968
    55   1 H    0.994 --    25 C    0.951
    56   1 H    0.999 --    27 C    0.966
    57   1 H    0.998 --    28 C    0.971
    58   1 H    0.998 --    29 C    0.971
    59   1 H    0.998 --    30 C    0.971
    60   1 H    0.998 --    31 C    0.968
    61   1 H    0.993 --    32 C    0.953
    62   1 H    0.997 --    34 C    0.966
    63   1 H    0.998 --    35 C    0.970
    64   1 H    0.998 --    36 C    0.971
    65   1 H    0.998 --    37 C    0.971
    66   1 H    0.998 --    38 C    0.964
 ---------------------------------------------------------------------------

molecular dipole:
                 x           y           z       tot (Debye)
 q only:       -0.089      -1.333       1.070
   full:       -0.030      -1.628       1.379       5.425

           -------------------------------------------------
          | TOTAL ENERGY             -104.953756098524 Eh   |
          | GRADIENT NORM               0.000418126062 Eh/Î± |
          | HOMO-LUMO GAP               3.388410599345 eV   |
           -------------------------------------------------

 * finished run on 2022/03/16 at 23:38:20.789
