   * xtb version 6.3.3 (4ae9cef) compiled by 'conda@95abc7406d43' on 2020-10-14
          program call               : xtb acid_261.xyz --opt --chrg 0 --uhf 0 --gfn 2
          number of atoms            :                    78
          number of electrons        :                   250
          charge                     :                     0
          spin                       :                   0.0

   ID    Z sym.   atoms
    1    6 C      1, 2, 6-15, 19-22, 24-32, 34, 35, 39-47
    2    9 F      3-5, 16-18
    3    7 N      23, 38
    4    8 O      33, 36, 37, 48
    5    1 H      49-78

          :  Hamiltonian                  GFN2-xTB          :
 * total energy  :  -142.9622344 Eh     change       -0.1146191E-08 Eh
 * total energy  :  -142.9790064 Eh     change       -0.1677207E-01 Eh
 * total energy  :  -142.9844708 Eh     change       -0.5464386E-02 Eh
 * total energy  :  -142.9864094 Eh     change       -0.1938568E-02 Eh
 * total energy  :  -142.9878818 Eh     change       -0.1472441E-02 Eh
 * total energy  :  -142.9887271 Eh     change       -0.8452695E-03 Eh
 * total energy  :  -142.9893577 Eh     change       -0.6306205E-03 Eh
 * total energy  :  -142.9899940 Eh     change       -0.6362761E-03 Eh
 * total energy  :  -142.9905524 Eh     change       -0.5583976E-03 Eh
 * total energy  :  -142.9909266 Eh     change       -0.3742556E-03 Eh
 * total energy  :  -142.9922384 Eh     change       -0.2890245E-04 Eh
 * total energy  :  -142.9922548 Eh     change       -0.1640829E-04 Eh
 * total energy  :  -142.9922662 Eh     change       -0.1131709E-04 Eh
 * total energy  :  -142.9922849 Eh     change       -0.1877037E-04 Eh
 * total energy  :  -142.9922926 Eh     change       -0.7649992E-05 Eh
 * total energy  :  -142.9923057 Eh     change       -0.1315634E-04 Eh
 * total energy  :  -142.9923175 Eh     change       -0.1179901E-04 Eh
 * total energy  :  -142.9923237 Eh     change       -0.6196600E-05 Eh
 * total energy  :  -142.9923286 Eh     change       -0.4868286E-05 Eh
   *** GEOMETRY OPTIMIZATION CONVERGED AFTER 33 ITERATIONS ***

 final structure:
================
78
 xtb: 6.3.3 (4ae9cef)
C         1.88632017271494   -2.78535253291733    1.10115401698929
C         1.53998814318227   -3.93132130976407    0.19115320318467
F         1.97504031627739   -5.11227514911807    0.65204339887216
F         2.02220708137929   -3.81754672515472   -1.05232409227591
F         0.19693659220084   -4.07694644533430    0.05157303707886
C         2.66943954237204   -3.03989832852895    2.22126282759480
C         2.98867509791431   -2.01804737717238    3.09527956940554
C         2.51305233189221   -0.73950500599535    2.86015074413546
C         1.73406378015097   -0.48478402809978    1.74759140406484
C         1.42240953793941   -1.49501283791633    0.84335867829416
C         0.59898363673646   -1.14254268999294   -0.37355614971992
C        -0.85950718277758   -0.79179673893146    0.00123535375117
C        -1.87289041080993   -1.83362811562962   -0.41556163881753
C        -2.32693336865429   -2.06204424346922   -1.71843832982936
C        -1.87850216165742   -1.25288574812122   -2.90842221969696
F        -2.27031363784354   -1.79316525486038   -4.07181999007561
F        -0.54733166979783   -1.11405116808088   -3.01465468325375
F        -2.38476532055053   -0.00321409138729   -2.90932124638854
C        -3.27635045006974   -3.05015657140320   -1.96359034008164
C        -3.77102076931151   -3.82907643019663   -0.93650303697712
C        -3.31735971919651   -3.62263260100052    0.35315669332156
C        -2.38479581144285   -2.63566212453693    0.60031461472655
N        -1.07338685271124    0.52706802874209   -0.56278235187537
C        -2.04817174808046    1.38783279108769   -0.16237639514473
C        -3.16489334978761    0.73814436675107    0.58608783441124
C        -3.13295825586729    0.69198516045605    1.97958005565624
C        -2.04969352731596    1.39163964111970    2.75020768086194
C        -2.45029750264932    2.84897579889101    2.99313368717338
C        -4.16734161582949    0.04244595260575    2.64151632551994
C        -5.20994654440830   -0.53698104571206    1.94138341981048
C        -5.24678053046511   -0.45724672909937    0.55984652788823
C        -4.22411795622420    0.18108023902961   -0.11744940424254
O        -1.97960006783471    2.56976703164417   -0.43284953325760
C         0.10246237844909    1.07589035681423   -1.20715067680737
C         0.46738435204687    2.41205037467076   -0.52394839278153
O         0.55475295454695    3.40828454028238   -1.38359463294984
O         0.71589420558439    2.49036550908036    0.65084232002047
N         1.11047341119607    0.07031415374324   -0.99869838683280
C         2.42079206355611    0.14365097503810   -1.35956923120567
C         2.79333786728973    1.39654873399938   -2.08149888217293
C         2.38337759130801    1.54229624275389   -3.40160553082949
C         2.73492545934759    2.66965691379038   -4.11972097537630
C         3.49632597904254    3.65568762520057   -3.51581891477298
C         3.91117739773415    3.50495297804071   -2.20531873322121
C         3.57432963572969    2.37589898685516   -1.46842296190831
C         4.06825752322212    2.21089146212527   -0.05999288280629
C         5.35011731685280    1.37586865498579   -0.03665270241757
O         3.19152601279731   -0.76023997940001   -1.11550079313717
H         3.03167317094077   -4.03985755761852    2.40220888002228
H         3.60638544930486   -2.22265585849110    3.95575169675542
H         2.75229778058229    0.06416805529589    3.53972664546473
H         1.37480655437568    0.51773808110531    1.56450067511111
H         0.63698357714953   -1.95183487448718   -1.10833062400131
H        -0.92409597668188   -0.71688743169577    1.09608242767798
H        -3.62607847115832   -3.21154962832605   -2.97130986910421
H        -4.50401977177049   -4.59142883389190   -1.14749411978869
H        -3.69014568346947   -4.22448050125271    1.16683493690605
H        -2.04056347054449   -2.47533798295878    1.61060638282369
H        -1.10901724383219    1.38690608164807    2.19630604650115
H        -1.89132898965801    0.89037440076378    3.70806623813759
H        -3.39228609926906    2.90187011916468    3.53479268278172
H        -1.68215802821955    3.35743623644207    3.57019942600371
H        -2.56601944319464    3.36103636253208    2.04116377650027
H        -4.15238675895997   -0.00490216897116    3.72107747592569
H        -6.00219891775503   -1.04032672964711    2.47523559569648
H        -6.06842324848363   -0.89042959622821    0.01027183844020
H        -4.24588434482291    0.25958182277328   -1.19337979484373
H        -0.08768953800841    1.28355788803564   -2.27082468970768
H         0.73158977462602    4.24764176117052   -0.92951331347495
H         1.80002470639435    0.75918775183880   -3.86413487426480
H         2.41572835655153    2.77853721252143   -5.14491936164837
H         3.77093682656197    4.54179584620940   -4.06877347195749
H         4.51060273293434    4.27492044495523   -1.74016532504837
H         4.26563775381049    3.19397025303876    0.37399254446611
H         3.31018201658392    1.71579067784086    0.54955957019546
H         6.11359190022380    1.83696345957769   -0.65953328793999
H         5.72896450676915    1.29575916077833    0.97963910059317
H         5.14759895083558    0.37717230198880   -0.41408349213300

          :  Hamiltonian                  GFN2-xTB          :
         :: total energy            -142.992328598062 Eh    ::
         :: gradient norm              0.000383564474 Eh/a0 ::
         :: HOMO-LUMO gap              3.184029551717 eV    ::
         :: SCC energy              -144.797241578117 Eh    ::
         :: -> dispersion             -0.118831841242 Eh    ::
         :: repulsion energy           1.799197245431 Eh    ::

    * Orbital Energies and Occupations

         #    Occupation            Energy/Eh            Energy/eV
      -------------------------------------------------------------
         1        2.0000           -0.8862842             -24.1170
       ...           ...                  ...                  ...
       113        2.0000           -0.4384456             -11.9307
       114        2.0000           -0.4336214             -11.7994
       115        2.0000           -0.4319887             -11.7550
       116        2.0000           -0.4276268             -11.6363
       117        2.0000           -0.4235368             -11.5250
       118        2.0000           -0.4197167             -11.4211
       119        2.0000           -0.4194365             -11.4134
       120        2.0000           -0.4126044             -11.2275
       121        2.0000           -0.4096325             -11.1467
       122        2.0000           -0.4071488             -11.0791
       123        2.0000           -0.4013862             -10.9223
       124        2.0000           -0.3998548             -10.8806
       125        2.0000           -0.3936682             -10.7123 (HOMO)
       126                         -0.2766572              -7.5282 (LUMO)
       127                         -0.2670936              -7.2680
       128                         -0.2626087              -7.1459
       129                         -0.2565044              -6.9798
       130                         -0.2537482              -6.9048
       131                         -0.2423117              -6.5936
       132                         -0.2383228              -6.4851
       133                         -0.2377446              -6.4694
       134                         -0.2299302              -6.2567
       135                         -0.2271548              -6.1812
       136                         -0.2104059              -5.7254
       ...                                ...                  ...
       222                          0.6631527              18.0453
      -------------------------------------------------------------
                  HL-Gap            0.1170109 Eh            3.1840 eV

     #   Z          covCN         q      C6AA      Î±(0)
     1   6 C        2.976    -0.026    28.650     8.780
     2   6 C        3.335     0.485    17.306     6.590
     3   9 F        0.792    -0.202    11.260     3.964
     4   9 F        0.791    -0.197    11.201     3.953
     5   9 F        0.791    -0.229    11.542     4.013
     6   6 C        2.923    -0.022    28.547     8.762
     7   6 C        2.920    -0.023    28.591     8.768
     8   6 C        2.918    -0.018    28.457     8.748
     9   6 C        2.926    -0.030    28.757     8.794
    10   6 C        2.972     0.021    27.545     8.609
    11   6 C        3.819     0.051    19.705     6.317
    12   6 C        3.816     0.042    19.864     6.343
    13   6 C        2.966     0.010    27.791     8.647
    14   6 C        2.974    -0.027    28.674     8.784
    15   6 C        3.336     0.488    17.257     6.579
    16   9 F        0.793    -0.203    11.261     3.964
    17   9 F        0.791    -0.210    11.336     3.977
    18   9 F        0.791    -0.212    11.359     3.981
    19   6 C        2.926    -0.022    28.562     8.764
    20   6 C        2.920    -0.021    28.526     8.759
    21   6 C        2.918    -0.015    28.391     8.738
    22   6 C        2.931    -0.025    28.635     8.776
    23   7 N        2.765    -0.119    23.588     7.213
    24   6 C        2.770     0.280    22.254     7.726
    25   6 C        2.983    -0.023    28.579     8.769
    26   6 C        2.973     0.015    27.678     8.630
    27   6 C        3.806    -0.056    21.575     6.612
    28   6 C        3.754    -0.099    22.449     6.756
    29   6 C        2.925    -0.038    28.933     8.821
    30   6 C        2.918    -0.030    28.754     8.793
    31   6 C        2.920    -0.033    28.818     8.803
    32   6 C        2.922    -0.030    28.741     8.792
    33   8 O        0.860    -0.416    21.999     6.289
    34   6 C        3.755     0.097    19.034     6.221
    35   6 C        2.689     0.369    20.737     7.453
    36   8 O        1.660    -0.347    19.855     6.015
    37   8 O        0.856    -0.410    21.874     6.271
    38   7 N        2.765    -0.115    23.503     7.200
    39   6 C        2.765     0.277    22.324     7.738
    40   6 C        2.982    -0.028    28.705     8.789
    41   6 C        2.924    -0.028    28.711     8.787
    42   6 C        2.919    -0.029    28.714     8.787
    43   6 C        2.918    -0.029    28.714     8.787
    44   6 C        2.926    -0.038    28.939     8.822
    45   6 C        2.971     0.018    27.614     8.620
    46   6 C        3.806    -0.054    21.548     6.608
    47   6 C        3.754    -0.103    22.520     6.767
    48   8 O        0.859    -0.419    22.067     6.298
    49   1 H        0.926     0.066     2.132     2.283
    50   1 H        0.926     0.055     2.253     2.347
    51   1 H        0.926     0.057     2.237     2.339
    52   1 H        0.926     0.072     2.069     2.249
    53   1 H        0.924     0.072     2.068     2.249
    54   1 H        0.923     0.057     2.229     2.335
    55   1 H        0.926     0.072     2.067     2.248
    56   1 H        0.926     0.062     2.177     2.308
    57   1 H        0.926     0.061     2.188     2.313
    58   1 H        0.926     0.050     2.319     2.381
    59   1 H        0.924     0.040     2.443     2.444
    60   1 H        0.924     0.036     2.509     2.477
    61   1 H        0.925     0.036     2.500     2.473
    62   1 H        0.925     0.043     2.412     2.429
    63   1 H        0.925     0.053     2.288     2.365
    64   1 H        0.926     0.041     2.441     2.443
    65   1 H        0.926     0.039     2.465     2.455
    66   1 H        0.926     0.038     2.476     2.461
    67   1 H        0.926     0.040     2.442     2.444
    68   1 H        0.923     0.079     1.985     2.203
    69   1 H        0.804     0.349     0.592     1.208
    70   1 H        0.926     0.039     2.460     2.453
    71   1 H        0.926     0.041     2.434     2.440
    72   1 H        0.926     0.038     2.479     2.462
    73   1 H        0.926     0.037     2.485     2.465
    74   1 H        0.924     0.037     2.493     2.469
    75   1 H        0.924     0.035     2.512     2.479
    76   1 H        0.925     0.036     2.501     2.473
    77   1 H        0.925     0.035     2.521     2.483
    78   1 H        0.925     0.060     2.200     2.320

Wiberg/Mayer (AO) data.
largest (>0.10) Wiberg bond orders for each atom

     #   Z sym  total        # sym  WBO       # sym  WBO       # sym  WBO
 ---------------------------------------------------------------------------
     1   6 C    3.969 --     6 C    1.412    10 C    1.387     2 C    0.951
                             8 C    0.105
     2   6 C    3.820 --     4 F    0.955     3 F    0.954     1 C    0.951
                             5 F    0.922
     3   9 F    1.076 --     2 C    0.954
     4   9 F    1.086 --     2 C    0.955
     5   9 F    1.048 --     2 C    0.922
     6   6 C    3.987 --     7 C    1.444     1 C    1.412    49 H    0.966
                             9 C    0.110
     7   6 C    3.988 --     6 C    1.444     8 C    1.432    50 H    0.969
                            10 C    0.108
     8   6 C    3.990 --     9 C    1.448     7 C    1.432    51 H    0.969
                             1 C    0.105
     9   6 C    3.987 --     8 C    1.448    10 C    1.408    52 H    0.956
                             6 C    0.110
    10   6 C    3.986 --     9 C    1.408     1 C    1.387    11 C    0.990
                             7 C    0.108
    11   6 C    3.968 --    10 C    0.990    38 N    0.961    53 H    0.953
                            12 C    0.951
    12   6 C    3.970 --    13 C    0.991    23 N    0.968    11 C    0.951
                            54 H    0.948
    13   6 C    3.986 --    22 C    1.408    14 C    1.387    12 C    0.991
                            20 C    0.108
    14   6 C    3.971 --    19 C    1.411    13 C    1.387    15 C    0.950
                            21 C    0.105
    15   6 C    3.822 --    16 F    0.953    14 C    0.950    17 F    0.944
                            18 F    0.937
    16   9 F    1.075 --    15 C    0.953
    17   9 F    1.072 --    15 C    0.944
    18   9 F    1.068 --    15 C    0.937
    19   6 C    3.987 --    20 C    1.445    14 C    1.411    55 H    0.965
                            22 C    0.109
    20   6 C    3.988 --    19 C    1.445    21 C    1.432    56 H    0.968
                            13 C    0.108
    21   6 C    3.989 --    22 C    1.449    20 C    1.432    57 H    0.968
                            14 C    0.105
    22   6 C    3.988 --    21 C    1.449    13 C    1.408    58 H    0.966
                            19 C    0.109
    23   7 N    3.449 --    24 C    1.202    34 C    0.974    12 C    0.968
                            33 O    0.183
    24   6 C    3.937 --    33 O    1.683    23 N    1.202    25 C    0.959
    25   6 C    3.986 --    32 C    1.409    26 C    1.378    24 C    0.959
                            30 C    0.108
    26   6 C    3.986 --    29 C    1.410    25 C    1.378    27 C    1.014
                            31 C    0.108
    27   6 C    3.997 --    26 C    1.014    28 C    0.996    60 H    0.974
                            59 H    0.966
    28   6 C    3.994 --    27 C    0.996    61 H    0.988    63 H    0.986
                            62 H    0.985
    29   6 C    3.991 --    30 C    1.446    26 C    1.410    64 H    0.968
                            32 C    0.110
    30   6 C    3.991 --    29 C    1.446    31 C    1.435    65 H    0.971
                            25 C    0.108
    31   6 C    3.991 --    32 C    1.440    30 C    1.435    66 H    0.970
                            26 C    0.108
    32   6 C    3.991 --    31 C    1.440    25 C    1.409    67 H    0.969
                            29 C    0.110
    33   8 O    2.050 --    24 C    1.683    23 N    0.183
    34   6 C    3.962 --    38 N    0.987    23 N    0.974    68 H    0.942
                            35 C    0.908
    35   6 C    3.921 --    37 O    1.738    36 O    1.177    34 C    0.908
    36   8 O    2.238 --    35 C    1.177    69 H    0.852    37 O    0.176
    37   8 O    2.039 --    35 C    1.738    36 O    0.176
    38   7 N    3.455 --    39 C    1.196    34 C    0.987    11 C    0.961
                            48 O    0.187
    39   6 C    3.940 --    48 O    1.694    38 N    1.196    40 C    0.961
    40   6 C    3.985 --    41 C    1.404    45 C    1.380    39 C    0.961
                            43 C    0.108
    41   6 C    3.991 --    42 C    1.444    40 C    1.404    70 H    0.969
                            44 C    0.109
    42   6 C    3.991 --    41 C    1.444    43 C    1.432    71 H    0.970
                            45 C    0.107
    43   6 C    3.992 --    44 C    1.448    42 C    1.432    72 H    0.971
                            40 C    0.108
    44   6 C    3.991 --    43 C    1.448    45 C    1.410    73 H    0.968
                            41 C    0.109
    45   6 C    3.987 --    44 C    1.410    40 C    1.380    46 C    1.014
                            42 C    0.107
    46   6 C    3.997 --    45 C    1.014    47 C    0.998    74 H    0.975
                            75 H    0.968
    47   6 C    3.993 --    46 C    0.998    76 H    0.988    77 H    0.986
                            78 H    0.982
    48   8 O    2.029 --    39 C    1.694    38 N    0.187
    49   1 H    0.995 --     6 C    0.966
    50   1 H    0.996 --     7 C    0.969
    51   1 H    0.996 --     8 C    0.969
    52   1 H    0.995 --     9 C    0.956
    53   1 H    0.994 --    11 C    0.953
    54   1 H    0.996 --    12 C    0.948
    55   1 H    0.994 --    19 C    0.965
    56   1 H    0.995 --    20 C    0.968
    57   1 H    0.995 --    21 C    0.968
    58   1 H    0.997 --    22 C    0.966
    59   1 H    0.998 --    27 C    0.966
    60   1 H    0.998 --    27 C    0.974
    61   1 H    0.999 --    28 C    0.988
    62   1 H    0.997 --    28 C    0.985
    63   1 H    0.997 --    28 C    0.986
    64   1 H    0.997 --    29 C    0.968
    65   1 H    0.998 --    30 C    0.971
    66   1 H    0.997 --    31 C    0.970
    67   1 H    0.998 --    32 C    0.969
    68   1 H    0.993 --    34 C    0.942
    69   1 H    0.878 --    36 O    0.852
    70   1 H    0.998 --    41 C    0.969
    71   1 H    0.997 --    42 C    0.970
    72   1 H    0.998 --    43 C    0.971
    73   1 H    0.998 --    44 C    0.968
    74   1 H    0.998 --    46 C    0.975
    75   1 H    0.999 --    46 C    0.968
    76   1 H    0.999 --    47 C    0.988
    77   1 H    0.998 --    47 C    0.986
    78   1 H    0.996 --    47 C    0.982
 ---------------------------------------------------------------------------

molecular dipole:
                 x           y           z       tot (Debye)
 q only:       -0.983       0.059       2.012
   full:       -1.097       0.161       1.845       5.471

           -------------------------------------------------
          | TOTAL ENERGY             -142.992328598062 Eh   |
          | GRADIENT NORM               0.000383564474 Eh/Î± |
          | HOMO-LUMO GAP               3.184029551717 eV   |
           -------------------------------------------------

 * finished run on 2022/03/16 at 23:07:22.077
