   * xtb version 6.3.3 (4ae9cef) compiled by 'conda@95abc7406d43' on 2020-10-14
          program call               : xtb acid_46.xyz --opt --chrg 0 --uhf 0 --gfn 2
          number of atoms            :                    74
          number of electrons        :                   230
          charge                     :                     0
          spin                       :                   0.0

   ID    Z sym.   atoms
    1    6 C      1-22, 24-27, 29-32, 34, 35, 39-46
    2    7 N      23, 28, 38, 47
    3    8 O      33, 36, 37, 48
    4    1 H      49-74

          :  Hamiltonian                  GFN2-xTB          :
 * total energy  :  -126.8075850 Eh     change       -0.5776371E-08 Eh
 * total energy  :  -126.8260842 Eh     change       -0.1849915E-01 Eh
 * total energy  :  -126.8318878 Eh     change       -0.5803642E-02 Eh
 * total energy  :  -126.8334545 Eh     change       -0.1566664E-02 Eh
 * total energy  :  -126.8346436 Eh     change       -0.1189144E-02 Eh
 * total energy  :  -126.8352120 Eh     change       -0.5684436E-03 Eh
 * total energy  :  -126.8354888 Eh     change       -0.2767395E-03 Eh
 * total energy  :  -126.8357312 Eh     change       -0.2423697E-03 Eh
 * total energy  :  -126.8359264 Eh     change       -0.1952458E-03 Eh
 * total energy  :  -126.8361208 Eh     change       -0.1944249E-03 Eh
 * total energy  :  -126.8417677 Eh     change       -0.1505904E-04 Eh
 * total energy  :  -126.8417910 Eh     change       -0.2330445E-04 Eh
 * total energy  :  -126.8418005 Eh     change       -0.9531858E-05 Eh
 * total energy  :  -126.8418091 Eh     change       -0.8537003E-05 Eh
 * total energy  :  -126.8418157 Eh     change       -0.6634527E-05 Eh
 * total energy  :  -126.8418229 Eh     change       -0.7175575E-05 Eh
 * total energy  :  -126.8418324 Eh     change       -0.9470266E-05 Eh
 * total energy  :  -126.8418420 Eh     change       -0.9591446E-05 Eh
 * total energy  :  -126.8418458 Eh     change       -0.3825164E-05 Eh
   *** GEOMETRY OPTIMIZATION CONVERGED AFTER 94 ITERATIONS ***

 final structure:
================
74
 xtb: 6.3.3 (4ae9cef)
C        -0.58938815008230    4.59295483701421   -2.62617436281896
C        -0.95365646253278    4.94389242565468   -1.35766336785671
C        -0.97575889138874    3.97414331468047   -0.34593783497551
C        -0.63638525693805    2.67813308966108   -0.61758780039210
C        -0.26379345227659    2.27449342520363   -1.91817973804617
C        -0.23805122134153    3.26332910774522   -2.94076456935303
C         0.13830101100143    2.90436666182548   -4.25094547257447
C         0.47068855500784    1.61448457881240   -4.54893653158884
C         0.43919194884127    0.63527706876187   -3.54973418691052
C         0.08451951758624    0.94004301697930   -2.25911452203803
C         0.12959017698736   -0.16389263435246   -1.23912469811670
C         1.21821296243995    0.01393105962498   -0.15273682903299
C         2.44598434846317   -0.81052069607033   -0.45466613821934
C         2.61565316199043   -2.03963931480847    0.12751142450416
C         3.72399465787440   -2.84285850762275   -0.17076626156713
C         4.65378018389752   -2.41620013823449   -1.07316754003675
C         4.52284998567700   -1.15721288621555   -1.69524670924614
C         3.41293160951682   -0.32608292835188   -1.37821552948419
C         3.33770427450184    0.94073839460466   -1.99799694901990
C         4.28435140837749    1.34671942836056   -2.89720214245514
C         5.36387845956793    0.51477054260440   -3.22423012330782
C         5.48151546105593   -0.70787967609460   -2.62767577399254
N         0.54176560996796   -0.37705923476544    1.08098303382941
C         1.01760146097717    0.06705225917946    2.27564843497747
C         0.14399236720785   -0.20916853730164    3.46350609031807
C         0.28985089779320   -1.39864008204116    4.18532823522602
C         1.18300848184268   -2.39588670932840    3.73048435277237
N         1.87042233445580   -3.23140166920308    3.35121251925487
C        -0.46841911709969   -1.61943668343918    5.33473060568393
C        -1.36677796074304   -0.65866281538118    5.75764073644343
C        -1.51095310526567    0.52181914666095    5.04465271320739
C        -0.75384989784779    0.75069912458438    3.90711329148970
O         2.07510184556513    0.64588758439620    2.37028788318952
C        -0.78444410325955   -0.87594058790702    0.82033674829575
C        -0.80724882910063   -2.42188151297817    0.75220257520571
O        -0.95610219569356   -2.95345787243825    1.96237173736495
O        -0.73335866590789   -3.05679282707602   -0.25938132336840
N        -1.10689552065534   -0.32003618744243   -0.46855415218583
C        -2.31218625820359   -0.41738893114557   -1.08972037062842
C        -3.44965614340342   -0.89440009545478   -0.23256507054802
C        -4.09401537813971   -2.06436382423763   -0.60970698579293
C        -5.18429063932508   -2.53031882740505    0.10555678385230
C        -5.65903452439190   -1.82001745089268    1.19793854549938
C        -5.04388126913149   -0.64304128760854    1.57696578718862
C        -3.93727731995529   -0.17529083599230    0.86548201220770
C        -3.31927414849915    1.02260836896038    1.29046141040675
N        -2.81948272038671    1.97326343171676    1.69255037091287
O        -2.47985228598840   -0.14880778023815   -2.25724351673544
H        -0.56743853631115    5.33018542561653   -3.41638265545413
H        -1.22588643080881    5.96328952765315   -1.12662428043800
H        -1.26961751443397    4.25136808864872    0.65488102365504
H        -0.67292857892759    1.95680428000132    0.18215425488423
H         0.15463712213677    3.67013743659139   -5.01322278883096
H         0.75678945867376    1.33619036810643   -5.55203477054480
H         0.70316028543181   -0.38074895855920   -3.80405901354365
H         0.31489787801840   -1.11038218250600   -1.76709648683427
H         1.50793569443763    1.06456494407737   -0.03987565475026
H         1.89817411848647   -2.40620880756596    0.84607920234393
H         3.82470543549048   -3.79801255544184    0.32121296356711
H         5.50640434206982   -3.03145698724978   -1.32203714192895
H         2.52649876099614    1.61050737743408   -1.76446696292913
H         4.20256417314410    2.31958148158520   -3.35910054829327
H         6.10092967089240    0.85113525979133   -3.93845250726574
H         6.31597960843352   -1.35481493322848   -2.85845346332997
H        -0.34287797283435   -2.54113373932105    5.88330125993946
H        -1.95351684958750   -0.82894531038988    6.64767980434073
H        -2.21195739337542    1.27243729111784    5.37603038318473
H        -0.86534041598107    1.67281683060058    3.35685913214265
H        -1.47668480069091   -0.56398105612939    1.61261634291689
H        -0.90603956840233   -3.92451178212766    1.92873317856607
H        -3.72702753558547   -2.60332358279361   -1.46966934074107
H        -5.67069460775268   -3.44543610752106   -0.19576551311450
H        -6.51387439649461   -2.17981944600647    1.74994438672527
H        -5.40964815007483   -0.07257319539951    2.41802340419424

          :  Hamiltonian                  GFN2-xTB          :
         :: total energy            -126.841845778111 Eh    ::
         :: gradient norm              0.000318889945 Eh/a0 ::
         :: HOMO-LUMO gap              2.038088418290 eV    ::
         :: SCC energy              -128.999337064981 Eh    ::
         :: -> dispersion             -0.119123967116 Eh    ::
         :: repulsion energy           2.152726553863 Eh    ::

    * Orbital Energies and Occupations

         #    Occupation            Energy/Eh            Energy/eV
      -------------------------------------------------------------
         1        2.0000           -0.7887845             -21.4639
       ...           ...                  ...                  ...
       103        2.0000           -0.4249998             -11.5648
       104        2.0000           -0.4218649             -11.4795
       105        2.0000           -0.4193274             -11.4105
       106        2.0000           -0.4162968             -11.3280
       107        2.0000           -0.4142205             -11.2715
       108        2.0000           -0.4112471             -11.1906
       109        2.0000           -0.4102333             -11.1630
       110        2.0000           -0.4051842             -11.0256
       111        2.0000           -0.4026750             -10.9573
       112        2.0000           -0.3987149             -10.8496
       113        2.0000           -0.3978870             -10.8271
       114        2.0000           -0.3789470             -10.3117
       115        2.0000           -0.3717821             -10.1167 (HOMO)
       116                         -0.2968837              -8.0786 (LUMO)
       117                         -0.2877919              -7.8312
       118                         -0.2781152              -7.5679
       119                         -0.2682993              -7.3008
       120                         -0.2611608              -7.1065
       121                         -0.2584205              -7.0320
       122                         -0.2562569              -6.9731
       123                         -0.2323405              -6.3223
       124                         -0.2291916              -6.2366
       125                         -0.2265443              -6.1646
       126                         -0.2257180              -6.1421
       ...                                ...                  ...
       218                          1.1571471              31.4876
      -------------------------------------------------------------
                  HL-Gap            0.0748984 Eh            2.0381 eV

     #   Z          covCN         q      C6AA      Î±(0)
     1   6 C        2.921    -0.034    28.835     8.806
     2   6 C        2.915    -0.029    28.714     8.787
     3   6 C        2.917    -0.027    28.678     8.782
     4   6 C        2.917    -0.034    28.849     8.808
     5   6 C        2.984     0.012    27.729     8.638
     6   6 C        2.988     0.016    27.641     8.624
     7   6 C        2.920    -0.034    28.836     8.806
     8   6 C        2.914    -0.027    28.668     8.780
     9   6 C        2.924    -0.027    28.665     8.780
    10   6 C        2.966     0.008    27.848     8.656
    11   6 C        3.834     0.048    19.740     6.321
    12   6 C        3.824     0.044    19.818     6.335
    13   6 C        2.967    -0.002    28.067     8.690
    14   6 C        2.921    -0.027    28.669     8.780
    15   6 C        2.914    -0.026    28.661     8.779
    16   6 C        2.920    -0.035    28.873     8.812
    17   6 C        2.988     0.016    27.640     8.624
    18   6 C        2.985     0.009    27.799     8.649
    19   6 C        2.917    -0.036    28.885     8.813
    20   6 C        2.917    -0.028    28.703     8.785
    21   6 C        2.915    -0.029    28.722     8.788
    22   6 C        2.921    -0.034    28.844     8.807
    23   7 N        2.764    -0.120    23.599     7.215
    24   6 C        2.763     0.276    22.338     7.740
    25   6 C        2.981    -0.009    28.227     8.715
    26   6 C        2.976     0.023    27.477     8.598
    27   6 C        1.912     0.117    28.223     8.580
    28   7 N        0.911    -0.234    26.123     7.392
    29   6 C        2.927    -0.018    28.463     8.749
    30   6 C        2.918    -0.025    28.625     8.774
    31   6 C        2.919    -0.019    28.489     8.753
    32   6 C        2.921    -0.024    28.615     8.772
    33   8 O        0.859    -0.400    21.676     6.242
    34   6 C        3.765     0.097    19.015     6.215
    35   6 C        2.687     0.349    21.081     7.514
    36   8 O        1.659    -0.372    20.317     6.085
    37   8 O        0.856    -0.371    21.107     6.160
    38   7 N        2.763    -0.119    23.591     7.214
    39   6 C        2.762     0.277    22.318     7.736
    40   6 C        2.978    -0.012    28.301     8.726
    41   6 C        2.924    -0.018    28.460     8.749
    42   6 C        2.918    -0.019    28.472     8.750
    43   6 C        2.918    -0.024    28.605     8.770
    44   6 C        2.929    -0.019    28.488     8.753
    45   6 C        2.974     0.014    27.704     8.634
    46   6 C        1.912     0.111    28.366     8.601
    47   7 N        0.911    -0.233    26.103     7.389
    48   8 O        0.859    -0.400    21.674     6.242
    49   1 H        0.926     0.033     2.538     2.491
    50   1 H        0.926     0.033     2.548     2.496
    51   1 H        0.926     0.043     2.415     2.430
    52   1 H        0.926     0.026     2.642     2.542
    53   1 H        0.926     0.037     2.492     2.468
    54   1 H        0.926     0.037     2.485     2.465
    55   1 H        0.926     0.034     2.523     2.484
    56   1 H        0.923     0.059     2.210     2.325
    57   1 H        0.924     0.075     2.032     2.229
    58   1 H        0.926     0.025     2.659     2.550
    59   1 H        0.926     0.044     2.400     2.423
    60   1 H        0.926     0.038     2.477     2.461
    61   1 H        0.926     0.029     2.599     2.521
    62   1 H        0.926     0.032     2.551     2.498
    63   1 H        0.926     0.033     2.538     2.491
    64   1 H        0.926     0.035     2.512     2.479
    65   1 H        0.926     0.049     2.335     2.390
    66   1 H        0.926     0.047     2.360     2.402
    67   1 H        0.926     0.052     2.294     2.369
    68   1 H        0.926     0.062     2.173     2.305
    69   1 H        0.924     0.058     2.222     2.331
    70   1 H        0.804     0.350     0.587     1.204
    71   1 H        0.926     0.061     2.187     2.313
    72   1 H        0.926     0.052     2.289     2.366
    73   1 H        0.926     0.049     2.329     2.387
    74   1 H        0.926     0.049     2.334     2.389

Wiberg/Mayer (AO) data.
largest (>0.10) Wiberg bond orders for each atom

     #   Z sym  total        # sym  WBO       # sym  WBO       # sym  WBO
 ---------------------------------------------------------------------------
     1   6 C    3.991 --     2 C    1.556     6 C    1.280    49 H    0.968
                             4 C    0.118
     2   6 C    3.992 --     1 C    1.556     3 C    1.323    50 H    0.971
     3   6 C    3.991 --     4 C    1.552     2 C    1.323    51 H    0.970
     4   6 C    3.992 --     3 C    1.552     5 C    1.285    52 H    0.963
                             1 C    0.118
     5   6 C    3.989 --     4 C    1.285    10 C    1.252     6 C    1.251
     6   6 C    3.990 --     1 C    1.280     7 C    1.280     5 C    1.251
     7   6 C    3.990 --     8 C    1.552     6 C    1.280    53 H    0.968
                            10 C    0.114
     8   6 C    3.992 --     7 C    1.552     9 C    1.329    54 H    0.970
     9   6 C    3.989 --    10 C    1.518     8 C    1.329    55 H    0.967
    10   6 C    3.982 --     9 C    1.518     5 C    1.252    11 C    0.995
                             7 C    0.114
    11   6 C    3.954 --    10 C    0.995    56 H    0.952    12 C    0.949
                            38 N    0.943
    12   6 C    3.953 --    13 C    0.989    23 N    0.952    11 C    0.949
                            57 H    0.944
    13   6 C    3.983 --    14 C    1.531    18 C    1.248    12 C    0.989
                            16 C    0.114
    14   6 C    3.991 --    13 C    1.531    15 C    1.321    58 H    0.964
    15   6 C    3.991 --    16 C    1.558    14 C    1.321    59 H    0.970
    16   6 C    3.990 --    15 C    1.558    17 C    1.277    60 H    0.968
                            13 C    0.114
    17   6 C    3.990 --    22 C    1.281    16 C    1.277    18 C    1.254
    18   6 C    3.989 --    19 C    1.285    17 C    1.254    13 C    1.248
    19   6 C    3.992 --    20 C    1.552    18 C    1.285    61 H    0.962
                            22 C    0.118
    20   6 C    3.992 --    19 C    1.552    21 C    1.324    62 H    0.971
    21   6 C    3.992 --    22 C    1.556    20 C    1.324    63 H    0.971
    22   6 C    3.991 --    21 C    1.556    17 C    1.281    64 H    0.968
                            19 C    0.118
    23   7 N    3.461 --    24 C    1.200    34 C    0.986    12 C    0.952
                            33 O    0.192
    24   6 C    3.947 --    33 O    1.712    23 N    1.200    25 C    0.952
    25   6 C    3.987 --    32 C    1.420    26 C    1.333    24 C    0.952
                            30 C    0.104
    26   6 C    3.989 --    29 C    1.363    25 C    1.333    27 C    1.093
                            31 C    0.100
    27   6 C    3.946 --    28 N    2.801    26 C    1.093
    28   7 N    2.979 --    27 C    2.801
    29   6 C    3.990 --    30 C    1.454    26 C    1.363    65 H    0.969
                            32 C    0.106
    30   6 C    3.991 --    29 C    1.454    31 C    1.430    66 H    0.969
                            25 C    0.104
    31   6 C    3.965 --    32 C    1.433    30 C    1.430    67 H    0.969
                            26 C    0.100
    32   6 C    3.988 --    31 C    1.433    25 C    1.420    68 H    0.964
                            29 C    0.106
    33   8 O    2.043 --    24 C    1.712    23 N    0.192
    34   6 C    3.975 --    38 N    0.991    23 N    0.986    69 H    0.938
                            35 C    0.902
    35   6 C    3.918 --    37 O    1.793    36 O    1.151    34 C    0.902
    36   8 O    2.215 --    35 C    1.151    70 H    0.850    37 O    0.184
    37   8 O    2.075 --    35 C    1.793    36 O    0.184
    38   7 N    3.453 --    39 C    1.202    34 C    0.991    11 C    0.943
                            48 O    0.190
    39   6 C    3.949 --    48 O    1.709    38 N    1.202    40 C    0.957
    40   6 C    3.985 --    41 C    1.418    45 C    1.331    39 C    0.957
                            43 C    0.103
    41   6 C    3.989 --    42 C    1.437    40 C    1.418    71 H    0.966
                            44 C    0.105
    42   6 C    3.964 --    41 C    1.437    43 C    1.427    72 H    0.969
    43   6 C    3.991 --    44 C    1.455    42 C    1.427    73 H    0.969
                            40 C    0.103
    44   6 C    3.990 --    43 C    1.455    45 C    1.359    74 H    0.969
                            41 C    0.105
    45   6 C    3.989 --    44 C    1.359    40 C    1.331    46 C    1.096
    46   6 C    3.947 --    47 N    2.792    45 C    1.096
    47   7 N    2.979 --    46 C    2.792
    48   8 O    2.045 --    39 C    1.709    38 N    0.190
    49   1 H    0.998 --     1 C    0.968
    50   1 H    0.998 --     2 C    0.971
    51   1 H    0.998 --     3 C    0.970
    52   1 H    0.999 --     4 C    0.963
    53   1 H    0.998 --     7 C    0.968
    54   1 H    0.997 --     8 C    0.970
    55   1 H    0.998 --     9 C    0.967
    56   1 H    0.996 --    11 C    0.952
    57   1 H    0.994 --    12 C    0.944
    58   1 H    0.999 --    14 C    0.964
    59   1 H    0.997 --    15 C    0.970
    60   1 H    0.997 --    16 C    0.968
    61   1 H    0.999 --    19 C    0.962
    62   1 H    0.998 --    20 C    0.971
    63   1 H    0.998 --    21 C    0.971
    64   1 H    0.998 --    22 C    0.968
    65   1 H    0.997 --    29 C    0.969
    66   1 H    0.996 --    30 C    0.969
    67   1 H    0.997 --    31 C    0.969
    68   1 H    0.995 --    32 C    0.964
    69   1 H    0.996 --    34 C    0.938
    70   1 H    0.876 --    36 O    0.850
    71   1 H    0.995 --    41 C    0.966
    72   1 H    0.997 --    42 C    0.969
    73   1 H    0.996 --    43 C    0.969
    74   1 H    0.997 --    44 C    0.969
 ---------------------------------------------------------------------------

molecular dipole:
                 x           y           z       tot (Debye)
 q only:       -1.409      -0.722       0.780
   full:       -2.226      -1.080       1.181       6.968

           -------------------------------------------------
          | TOTAL ENERGY             -126.841845778111 Eh   |
          | GRADIENT NORM               0.000318889945 Eh/Î± |
          | HOMO-LUMO GAP               2.038088418290 eV   |
           -------------------------------------------------

 * finished run on 2022/03/17 at 01:27:56.125
