   * xtb version 6.3.3 (4ae9cef) compiled by 'conda@95abc7406d43' on 2020-10-14
          program call               : xtb acid_334.xyz --opt --chrg 0 --uhf 0 --gfn 2
          number of atoms            :                    54
          number of electrons        :                   170
          charge                     :                     0
          spin                       :                   0.0

   ID    Z sym.   atoms
    1    6 C      1-14, 16-20, 23, 24, 28-32
    2    7 N      15, 27
    3   16 S      21, 33
    4    8 O      22, 25, 26, 34
    5    1 H      35-54

          :  Hamiltonian                  GFN2-xTB          :
 * total energy  :   -94.4681319 Eh     change       -0.1647791E-08 Eh
 * total energy  :   -94.4812039 Eh     change       -0.1307199E-01 Eh
 * total energy  :   -94.4850469 Eh     change       -0.3842947E-02 Eh
 * total energy  :   -94.4859409 Eh     change       -0.8939690E-03 Eh
 * total energy  :   -94.4863743 Eh     change       -0.4334687E-03 Eh
 * total energy  :   -94.4866604 Eh     change       -0.2860491E-03 Eh
 * total energy  :   -94.4869316 Eh     change       -0.2712438E-03 Eh
 * total energy  :   -94.4871921 Eh     change       -0.2605237E-03 Eh
 * total energy  :   -94.4874317 Eh     change       -0.2395916E-03 Eh
 * total energy  :   -94.4876246 Eh     change       -0.1929052E-03 Eh
 * total energy  :   -94.4907641 Eh     change       -0.2228975E-04 Eh
 * total energy  :   -94.4907782 Eh     change       -0.1418585E-04 Eh
 * total energy  :   -94.4907906 Eh     change       -0.1232287E-04 Eh
 * total energy  :   -94.4907970 Eh     change       -0.6383543E-05 Eh
 * total energy  :   -94.4908088 Eh     change       -0.1186554E-04 Eh
 * total energy  :   -94.4908167 Eh     change       -0.7838991E-05 Eh
 * total energy  :   -94.4908242 Eh     change       -0.7583138E-05 Eh
 * total energy  :   -94.4908301 Eh     change       -0.5815223E-05 Eh
 * total energy  :   -94.4908332 Eh     change       -0.3102263E-05 Eh
   *** GEOMETRY OPTIMIZATION CONVERGED AFTER 51 ITERATIONS ***

 final structure:
================
54
 xtb: 6.3.3 (4ae9cef)
C         1.61335391943241    3.35927216447606   -1.46057717190589
C         1.91870109751836    3.88618447769797   -2.70218016974993
C         1.84858181771295    3.08783666828157   -3.83128145340266
C         1.47195716838890    1.76167186989465   -3.71167324082620
C         1.16420133154344    1.23383376215252   -2.47005215980511
C         1.23435459861255    2.02920899787836   -1.33432595895213
C         0.86668981180727    1.48893906430954    0.02742179897059
C        -0.65341400296002    1.52368927130496    0.23799557586432
C        -1.11881861067087    1.63157344641657    1.67343740189005
C        -2.45221097825577    1.96194359687161    1.89790531546081
C        -2.95620143274341    2.01301423251587    3.18411268920890
C        -2.13358351620697    1.73526025399900    4.26364819414361
C        -0.80705174371470    1.40757912813976    4.04751617996262
C        -0.29910199808313    1.35277804253644    2.75960395693399
N        -1.03290542666731    0.22410626598912   -0.31176754886397
C        -2.19678948896084    0.03092518601091   -0.97962502316409
C        -2.43180223174181   -1.29958442707482   -1.58046777241698
C        -3.60718128871697   -1.98871412835370   -1.51667025380519
C        -3.59321251210379   -3.18164604956594   -2.27002396065884
C        -2.41932505198117   -3.37114250306376   -2.92323051644830
S        -1.29922959729099   -2.10505859490053   -2.62164763737486
O        -3.02021878242572    0.91814387628812   -1.08947127591187
C        -0.02309168662532   -0.72582069332824    0.06229183986968
C        -0.35885179881984   -1.39132605751619    1.41745026174334
O        -1.64828777222239   -1.70869770079708    1.47992521144915
O         0.43654978453065   -1.62819166470922    2.28034035584921
N         1.17929274519989    0.06652906885212    0.14176674681779
C         2.42419755561254   -0.31291247830057    0.54666223936717
C         2.76380798860270   -1.74251650272184    0.59130830822465
C         3.80083899956110   -2.23469617033765    1.33504563438248
C         4.00003806219766   -3.61897286661005    1.17377540012393
C         3.12774541095494   -4.16868046157658    0.29066961232063
S         2.03440769606115   -3.00880249831001   -0.34571119907959
O         3.25928409096730    0.52400453125205    0.83855136701568
H         1.67247743285757    3.98142857977345   -0.57940707343747
H         2.21563763196440    4.92087841237931   -2.78825835129364
H         2.08979838111371    3.49764971672433   -4.80079122748215
H         1.41645199522297    1.13244906185898   -4.58761143012053
H         0.87666363866508    0.19558514666113   -2.39203669396268
H         1.41073994902862    2.04776530421805    0.79342562104421
H        -1.13513924682191    2.29801418980163   -0.36598359221723
H        -3.09207767835553    2.16612929580653    1.05275745236800
H        -3.99245711204407    2.27130419158604    3.34426913568350
H        -2.52499652606590    1.77548831012955    5.26952584700319
H        -0.15855064102931    1.18815141820921    4.88241769134829
H         0.73808551199471    1.08743847246604    2.62419836154506
H        -4.44497271530941   -1.64797388692104   -0.93641569113647
H        -4.42460197741491   -3.86047515026913   -2.32845849540458
H        -2.13444479932534   -4.17355631884481   -3.57411093213111
H         0.05617443097085   -1.53370315571666   -0.67649964761865
H        -1.86207539949813   -2.12528623630476    2.33091997689518
H         4.38795340573265   -1.60475214577381    1.97778526671696
H         4.76049746300051   -4.17869353162772    1.68748134655650
H         3.05210909680011   -5.18757178187029   -0.03393231159083

          :  Hamiltonian                  GFN2-xTB          :
         :: total energy             -94.490833166421 Eh    ::
         :: gradient norm              0.000412736223 Eh/a0 ::
         :: HOMO-LUMO gap              3.228332013410 eV    ::
         :: SCC energy               -95.849346415080 Eh    ::
         :: -> dispersion             -0.081240769412 Eh    ::
         :: repulsion energy           1.356202579113 Eh    ::

    * Orbital Energies and Occupations

         #    Occupation            Energy/Eh            Energy/eV
      -------------------------------------------------------------
         1        2.0000           -0.7789189             -21.1955
       ...           ...                  ...                  ...
        73        2.0000           -0.4258181             -11.5871
        74        2.0000           -0.4181655             -11.3789
        75        2.0000           -0.4148506             -11.2887
        76        2.0000           -0.4114553             -11.1963
        77        2.0000           -0.4112683             -11.1912
        78        2.0000           -0.4090817             -11.1317
        79        2.0000           -0.4081905             -11.1074
        80        2.0000           -0.4074676             -11.0878
        81        2.0000           -0.4057558             -11.0412
        82        2.0000           -0.4048157             -11.0156
        83        2.0000           -0.4003453             -10.8940
        84        2.0000           -0.4000354             -10.8855
        85        2.0000           -0.3935472             -10.7090 (HOMO)
        86                         -0.2749082              -7.4806 (LUMO)
        87                         -0.2736982              -7.4477
        88                         -0.2667369              -7.2583
        89                         -0.2359704              -6.4211
        90                         -0.2290092              -6.2317
        91                         -0.2274530              -6.1893
        92                         -0.2267710              -6.1708
        93                         -0.2256823              -6.1411
        94                         -0.2158377              -5.8732
        95                         -0.2089161              -5.6849
        96                         -0.2032229              -5.5300
       ...                                ...                  ...
       166                          0.6930633              18.8592
      -------------------------------------------------------------
                  HL-Gap            0.1186390 Eh            3.2283 eV

     #   Z          covCN         q      C6AA      Î±(0)
     1   6 C        2.925    -0.033    28.820     8.804
     2   6 C        2.920    -0.026    28.651     8.778
     3   6 C        2.920    -0.029    28.714     8.787
     4   6 C        2.920    -0.027    28.669     8.780
     5   6 C        2.923    -0.031    28.771     8.796
     6   6 C        2.974     0.006    27.889     8.663
     7   6 C        3.841     0.037    19.927     6.350
     8   6 C        3.845     0.036    19.936     6.351
     9   6 C        2.971    -0.003    28.104     8.696
    10   6 C        2.925    -0.035    28.867     8.811
    11   6 C        2.919    -0.029    28.714     8.787
    12   6 C        2.919    -0.031    28.766     8.795
    13   6 C        2.920    -0.029    28.718     8.788
    14   6 C        2.921    -0.037    28.926     8.820
    15   7 N        2.779    -0.104    23.271     7.165
    16   6 C        2.770     0.273    22.385     7.749
    17   6 C        2.990    -0.013    28.322     8.730
    18   6 C        3.121    -0.031    28.598     8.758
    19   6 C        3.114    -0.041    28.857     8.800
    20   6 C        2.941    -0.016    28.420     8.743
    21  16 S        2.324    -0.021   141.916    20.050
    22   8 O        0.860    -0.422    22.117     6.305
    23   6 C        3.773     0.084    19.208     6.245
    24   6 C        2.687     0.354    20.996     7.499
    25   8 O        1.660    -0.364    20.163     6.062
    26   8 O        0.856    -0.381    21.310     6.189
    27   7 N        2.768    -0.113    23.471     7.195
    28   6 C        2.772     0.273    22.389     7.750
    29   6 C        2.987    -0.004    28.108     8.697
    30   6 C        3.129    -0.025    28.410     8.727
    31   6 C        3.112    -0.039    28.802     8.792
    32   6 C        2.943    -0.011    28.288     8.723
    33  16 S        2.324    -0.045   142.925    20.121
    34   8 O        0.861    -0.429    22.261     6.326
    35   1 H        0.926     0.036     2.497     2.471
    36   1 H        0.926     0.038     2.473     2.459
    37   1 H        0.926     0.036     2.497     2.471
    38   1 H        0.926     0.036     2.498     2.472
    39   1 H        0.926     0.030     2.593     2.518
    40   1 H        0.924     0.081     1.967     2.193
    41   1 H        0.924     0.078     1.995     2.209
    42   1 H        0.926     0.058     2.226     2.333
    43   1 H        0.926     0.037     2.484     2.465
    44   1 H        0.926     0.035     2.521     2.483
    45   1 H        0.926     0.039     2.467     2.456
    46   1 H        0.926     0.042     2.417     2.431
    47   1 H        0.926     0.056     2.248     2.345
    48   1 H        0.926     0.047     2.354     2.399
    49   1 H        0.926     0.053     2.279     2.361
    50   1 H        0.924     0.090     1.884     2.146
    51   1 H        0.804     0.345     0.601     1.218
    52   1 H        0.926     0.066     2.128     2.281
    53   1 H        0.926     0.048     2.347     2.396
    54   1 H        0.926     0.052     2.297     2.370

Wiberg/Mayer (AO) data.
largest (>0.10) Wiberg bond orders for each atom

     #   Z sym  total        # sym  WBO       # sym  WBO       # sym  WBO
 ---------------------------------------------------------------------------
     1   6 C    3.990 --     2 C    1.447     6 C    1.410    35 H    0.969
                             4 C    0.112
     2   6 C    3.992 --     1 C    1.447     3 C    1.436    36 H    0.971
                             5 C    0.111
     3   6 C    3.991 --     4 C    1.441     2 C    1.436    37 H    0.971
                             6 C    0.109
     4   6 C    3.992 --     5 C    1.442     3 C    1.441    38 H    0.971
                             1 C    0.112
     5   6 C    3.991 --     4 C    1.442     6 C    1.416    39 H    0.967
                             2 C    0.111
     6   6 C    3.985 --     5 C    1.416     1 C    1.410     7 C    0.985
                             3 C    0.109
     7   6 C    3.960 --     6 C    0.985     8 C    0.964    27 N    0.958
                            40 H    0.947
     8   6 C    3.958 --     9 C    0.982     7 C    0.964    41 H    0.953
                            15 N    0.946
     9   6 C    3.984 --    14 C    1.420    10 C    1.405     8 C    0.982
                            12 C    0.109
    10   6 C    3.988 --    11 C    1.451     9 C    1.405    42 H    0.965
                            13 C    0.113
    11   6 C    3.992 --    10 C    1.451    12 C    1.433    43 H    0.970
                            14 C    0.110
    12   6 C    3.991 --    13 C    1.445    11 C    1.433    44 H    0.971
                             9 C    0.109
    13   6 C    3.992 --    12 C    1.445    14 C    1.436    45 H    0.971
                            10 C    0.113
    14   6 C    3.991 --    13 C    1.436     9 C    1.420    46 H    0.965
                            11 C    0.110
    15   7 N    3.477 --    16 C    1.209    23 C    0.995     8 C    0.946
                            22 O    0.188
    16   6 C    3.953 --    22 O    1.664    15 N    1.209    17 C    0.997
    17   6 C    3.944 --    18 C    1.580    21 S    1.145    16 C    0.997
                            20 C    0.115
    18   6 C    3.986 --    17 C    1.580    19 C    1.279    47 H    0.963
    19   6 C    3.987 --    20 C    1.624    18 C    1.279    48 H    0.964
    20   6 C    3.948 --    19 C    1.624    21 S    1.194    49 H    0.969
                            17 C    0.115
    21  16 S    2.643 --    20 C    1.194    17 C    1.145
    22   8 O    2.016 --    16 C    1.664    15 N    0.188
    23   6 C    3.974 --    15 N    0.995    27 N    0.991    50 H    0.911
                            24 C    0.907
    24   6 C    3.918 --    26 O    1.783    25 O    1.154    23 C    0.907
    25   8 O    2.217 --    24 C    1.154    51 H    0.855    26 O    0.181
    26   8 O    2.071 --    24 C    1.783    25 O    0.181
    27   7 N    3.453 --    28 C    1.190    23 C    0.991     7 C    0.958
                            34 O    0.180
    28   6 C    3.954 --    34 O    1.653    27 N    1.190    29 C    1.027
    29   6 C    3.944 --    30 C    1.558    33 S    1.140    28 C    1.027
                            32 C    0.113
    30   6 C    3.986 --    29 C    1.558    31 C    1.290    52 H    0.961
    31   6 C    3.988 --    32 C    1.613    30 C    1.290    53 H    0.964
    32   6 C    3.949 --    31 C    1.613    33 S    1.197    54 H    0.969
                            29 C    0.113
    33  16 S    2.632 --    32 C    1.197    29 C    1.140
    34   8 O    2.007 --    28 C    1.653    27 N    0.180
    35   1 H    0.999 --     1 C    0.969
    36   1 H    0.998 --     2 C    0.971
    37   1 H    0.998 --     3 C    0.971
    38   1 H    0.998 --     4 C    0.971
    39   1 H    0.999 --     5 C    0.967
    40   1 H    0.992 --     7 C    0.947
    41   1 H    0.993 --     8 C    0.953
    42   1 H    0.997 --    10 C    0.965
    43   1 H    0.998 --    11 C    0.970
    44   1 H    0.998 --    12 C    0.971
    45   1 H    0.998 --    13 C    0.971
    46   1 H    0.998 --    14 C    0.965
    47   1 H    0.997 --    18 C    0.963
    48   1 H    0.997 --    19 C    0.964
    49   1 H    0.996 --    20 C    0.969
    50   1 H    0.992 --    23 C    0.911
    51   1 H    0.881 --    25 O    0.855
    52   1 H    0.996 --    30 C    0.961
    53   1 H    0.997 --    31 C    0.964
    54   1 H    0.997 --    32 C    0.969
 ---------------------------------------------------------------------------

molecular dipole:
                 x           y           z       tot (Debye)
 q only:       -0.660      -1.136      -0.097
   full:       -0.848      -1.662       0.219       4.776

           -------------------------------------------------
          | TOTAL ENERGY              -94.490833166421 Eh   |
          | GRADIENT NORM               0.000412736223 Eh/Î± |
          | HOMO-LUMO GAP               3.228332013410 eV   |
           -------------------------------------------------

 * finished run on 2022/03/16 at 23:56:53.585
