   * xtb version 6.3.3 (4ae9cef) compiled by 'conda@95abc7406d43' on 2020-10-14
          program call               : xtb acid_247.xyz --opt --chrg 0 --uhf 0 --gfn 2
          number of atoms            :                    84
          number of electrons        :                   238
          charge                     :                     0
          spin                       :                   0.0

   ID    Z sym.   atoms
    1    6 C      1-22, 24-32, 34, 35, 39-47
    2    7 N      23, 38
    3    8 O      33, 36, 37, 48
    4    1 H      49-84

          :  Hamiltonian                  GFN2-xTB          :
 * total energy  :  -130.4372927 Eh     change       -0.1030088E-07 Eh
 * total energy  :  -130.4590189 Eh     change       -0.2172615E-01 Eh
 * total energy  :  -130.4653197 Eh     change       -0.6300789E-02 Eh
 * total energy  :  -130.4674488 Eh     change       -0.2129118E-02 Eh
 * total energy  :  -130.4691066 Eh     change       -0.1657804E-02 Eh
 * total energy  :  -130.4703348 Eh     change       -0.1228216E-02 Eh
 * total energy  :  -130.4715814 Eh     change       -0.1246630E-02 Eh
 * total energy  :  -130.4730737 Eh     change       -0.1492273E-02 Eh
 * total energy  :  -130.4745887 Eh     change       -0.1514961E-02 Eh
 * total energy  :  -130.4762958 Eh     change       -0.1707141E-02 Eh
 * total energy  :  -130.5010809 Eh     change       -0.5989176E-05 Eh
 * total energy  :  -130.5010946 Eh     change       -0.1373494E-04 Eh
 * total energy  :  -130.5011047 Eh     change       -0.1011010E-04 Eh
 * total energy  :  -130.5011152 Eh     change       -0.1049048E-04 Eh
 * total energy  :  -130.5011268 Eh     change       -0.1155775E-04 Eh
 * total energy  :  -130.5011371 Eh     change       -0.1035592E-04 Eh
 * total energy  :  -130.5011449 Eh     change       -0.7771214E-05 Eh
 * total energy  :  -130.5011505 Eh     change       -0.5628131E-05 Eh
 * total energy  :  -130.5011538 Eh     change       -0.3244651E-05 Eh
   *** GEOMETRY OPTIMIZATION CONVERGED AFTER 80 ITERATIONS ***

 final structure:
================
84
 xtb: 6.3.3 (4ae9cef)
C         2.88834893630105    3.44531529823113    1.67152005074158
C         2.56694010480158    3.02658478456836    2.93019081251545
C         1.88372619663762    1.81486402372906    3.10671481556345
C         1.56146079873336    1.03331203781829    2.03296248996992
C         1.90155198428418    1.41942890258456    0.71819623029006
C         2.55622359746066    2.66993451005894    0.54070378448770
C         2.86031412844419    3.12471012857568   -0.75762171966521
C         2.52882857149465    2.37711203026799   -1.85086015532227
C         1.92196582895361    1.12850491471047   -1.68124290966522
C         1.63276058389359    0.63334687215454   -0.43251311698984
C         1.02773901522418   -0.74348566835415   -0.34212010958786
C        -0.40778023734480   -0.76504587101979   -0.92491238057052
C        -1.47061662965401   -0.64224245312730    0.13693824943707
C        -1.65927150015521   -1.70159037242935    0.99136892787169
C        -2.68433790504252   -1.69697014422436    1.94393948591932
C        -3.53189085473354   -0.62996893606409    2.02517037753398
C        -3.35379001771114    0.49305714712776    1.19232733501667
C        -2.28851335381320    0.51328643050200    0.24998049429124
C        -2.11060656422774    1.68370093862896   -0.51929194001553
C        -2.96097763401397    2.74679345742101   -0.39938461752950
C        -4.03526099224680    2.70553620688089    0.49985327231838
C        -4.21806472053200    1.60415662993506    1.28526839568981
N        -0.48011043282866   -2.04618744960475   -1.61743441147501
C        -1.57430544749632   -2.57506728858773   -2.19612577632891
C        -2.77315750452988   -1.69349220419415   -2.20112281777631
C        -3.86077876130198   -2.02227882698287   -1.40342472117779
C        -4.96716316105621   -1.19198484391380   -1.32390545166294
C        -6.10838542081107   -1.54747231153825   -0.42368833262681
C        -4.99971482268481   -0.02109149340974   -2.08807362568004
C        -6.17340453651494    0.90386658586446   -2.01251503328901
C        -3.92973503697312    0.27305793913345   -2.92104936885052
C        -2.81773319226896   -0.54545328775636   -2.97893504050489
O        -1.56299342914026   -3.71288455963563   -2.65884865479015
C         0.80665429474780   -2.71951513280259   -1.61937417186476
C         0.80115043009306   -3.92236263415952   -0.62730704037255
O         0.05085266738900   -4.93674417617909   -0.99771729088534
O         1.42147667166920   -3.88398697863057    0.39860976009309
N         1.72516638876585   -1.70930311992060   -1.17378581397842
C         3.07311475169494   -1.89555442112173   -1.29675988002952
C         3.90557164554663   -1.01412712619455   -0.42982773303355
C         4.75716603974884   -0.06240897543343   -0.97022947341418
C         5.49398368246902    0.74761115357692   -0.12767028733224
C         5.42570290870555    0.60597695976623    1.25126926348023
C         6.21779265783583    1.51094208555638    2.14336699992180
C         4.61591706576545   -0.39585446473691    1.79496038428150
C         4.55597723133449   -0.60828673686629    3.27591620088208
C         3.85959647158840   -1.18989091215459    0.94729584128871
O         3.52168967883328   -2.71717245451775   -2.06779411176146
H         3.40027406758742    4.38454998618242    1.51821106920525
H         2.82447335356276    3.62505100148745    3.79197837449780
H         1.61073261246594    1.49991632559768    4.10334732422579
H         1.02728421548224    0.11267814819084    2.20622431554578
H         3.35627508186635    4.07770486837767   -0.87053225543002
H         2.74802313735776    2.72947999482759   -2.84763577964062
H         1.71084792228313    0.52652210522241   -2.55406822647272
H         1.00215244955174   -1.10525955408908    0.69041338918056
H        -0.50756266615998    0.03256598824044   -1.66575903363760
H        -1.02198294901044   -2.57164273411996    0.91935083344634
H        -2.80520057236546   -2.55038074089919    2.59377800804049
H        -4.34626375696485   -0.62581882058123    2.73517163219941
H        -1.27971608458546    1.76180530350800   -1.20292746069900
H        -2.80501973101683    3.63151678318475   -0.99860211543543
H        -4.70253720983510    3.55155751554865    0.57354347702490
H        -5.02746218151343    1.56700610215344    2.00107987382250
H        -3.82798948627245   -2.92997486180868   -0.81870937105897
H        -6.28396032140129   -0.75056804134302    0.29757432889849
H        -7.02354710374493   -1.68266557366486   -0.99922466276573
H        -5.89934577607457   -2.46649827218843    0.11676056259551
H        -6.04152954131702    1.74956130999612   -2.68192975950619
H        -6.29134830672689    1.28101084112289   -0.99729134839712
H        -7.09153756743135    0.38440573767559   -2.28377164599862
H        -3.96216405347863    1.16606081798584   -3.52824261357244
H        -1.99565052759079   -0.29963082758313   -3.63531234532041
H         1.07324665226969   -3.08566166794790   -2.62182438994878
H        -0.51644760080210   -4.71549647732340   -1.79089227712991
H         4.82371808250635    0.05321983196380   -2.04126946443298
H         6.13733388718804    1.50627445238075   -0.55019473063326
H         6.91766593430275    0.93742530040974    2.75022696333850
H         5.55535153130948    2.05046524348245    2.81972271288491
H         6.77965149465775    2.23376731728628    1.55755695311078
H         3.88182767268718   -1.42510982771150    3.51849792342105
H         4.20687943962657    0.29406005859694    3.77701614505735
H         5.54416411931480   -0.84633536065471    3.66804435562087
H         3.23628160488135   -1.97223846690474    1.35667605254803

          :  Hamiltonian                  GFN2-xTB          :
         :: total energy            -130.501153768296 Eh    ::
         :: gradient norm              0.000484003300 Eh/a0 ::
         :: HOMO-LUMO gap              2.792850264673 eV    ::
         :: SCC energy              -132.635783727266 Eh    ::
         :: -> dispersion             -0.135647427713 Eh    ::
         :: repulsion energy           2.127344247174 Eh    ::

    * Orbital Energies and Occupations

         #    Occupation            Energy/Eh            Energy/eV
      -------------------------------------------------------------
         1        2.0000           -0.7414889             -20.1769
       ...           ...                  ...                  ...
       107        2.0000           -0.4197525             -11.4220
       108        2.0000           -0.4178110             -11.3692
       109        2.0000           -0.4165329             -11.3344
       110        2.0000           -0.4144955             -11.2790
       111        2.0000           -0.4122873             -11.2189
       112        2.0000           -0.4103169             -11.1653
       113        2.0000           -0.4037819             -10.9875
       114        2.0000           -0.3980663             -10.8319
       115        2.0000           -0.3948974             -10.7457
       116        2.0000           -0.3929495             -10.6927
       117        2.0000           -0.3892335             -10.5916
       118        2.0000           -0.3834630             -10.4346
       119        2.0000           -0.3828426             -10.4177 (HOMO)
       120                         -0.2802073              -7.6248 (LUMO)
       121                         -0.2739550              -7.4547
       122                         -0.2517341              -6.8500
       123                         -0.2456806              -6.6853
       124                         -0.2419803              -6.5846
       125                         -0.2380872              -6.4787
       126                         -0.2339572              -6.3663
       127                         -0.2319688              -6.3122
       128                         -0.2206824              -6.0051
       129                         -0.2174304              -5.9166
       130                         -0.2090674              -5.6890
       ...                                ...                  ...
       228                          0.6848523              18.6358
      -------------------------------------------------------------
                  HL-Gap            0.1026354 Eh            2.7929 eV

     #   Z          covCN         q      C6AA      Î±(0)
     1   6 C        2.921    -0.033    28.816     8.803
     2   6 C        2.915    -0.030    28.743     8.791
     3   6 C        2.917    -0.028    28.693     8.784
     4   6 C        2.917    -0.033    28.822     8.804
     5   6 C        2.984     0.009    27.808     8.650
     6   6 C        2.989     0.016    27.646     8.625
     7   6 C        2.921    -0.035    28.864     8.810
     8   6 C        2.914    -0.030    28.744     8.792
     9   6 C        2.924    -0.035    28.881     8.813
    10   6 C        2.968    -0.006    28.169     8.706
    11   6 C        3.829     0.042    19.852     6.340
    12   6 C        3.824     0.039    19.904     6.349
    13   6 C        2.968    -0.010    28.263     8.720
    14   6 C        2.923    -0.034    28.841     8.807
    15   6 C        2.914    -0.028    28.707     8.786
    16   6 C        2.921    -0.034    28.855     8.809
    17   6 C        2.989     0.016    27.657     8.627
    18   6 C        2.984     0.008    27.843     8.656
    19   6 C        2.917    -0.035    28.862     8.810
    20   6 C        2.917    -0.027    28.684     8.783
    21   6 C        2.915    -0.029    28.714     8.787
    22   6 C        2.921    -0.034    28.851     8.808
    23   7 N        2.765    -0.115    23.495     7.199
    24   6 C        2.764     0.270    22.440     7.758
    25   6 C        2.978    -0.019    28.488     8.755
    26   6 C        2.929    -0.034    28.841     8.807
    27   6 C        2.970     0.013    27.724     8.637
    28   6 C        3.758    -0.110    22.646     6.784
    29   6 C        2.971     0.012    27.732     8.638
    30   6 C        3.758    -0.110    22.652     6.786
    31   6 C        2.924    -0.038    28.956     8.825
    32   6 C        2.921    -0.034    28.857     8.809
    33   8 O        0.859    -0.457    22.859     6.410
    34   6 C        3.771     0.084    19.212     6.246
    35   6 C        2.686     0.355    20.972     7.495
    36   8 O        1.654    -0.369    20.254     6.075
    37   8 O        0.856    -0.379    21.257     6.181
    38   7 N        2.768    -0.120    23.604     7.216
    39   6 C        2.764     0.278    22.303     7.734
    40   6 C        2.976    -0.019    28.487     8.755
    41   6 C        2.920    -0.029    28.737     8.791
    42   6 C        2.925    -0.040    28.999     8.831
    43   6 C        2.971     0.009    27.810     8.650
    44   6 C        3.758    -0.108    22.613     6.780
    45   6 C        2.970     0.011    27.778     8.645
    46   6 C        3.758    -0.109    22.631     6.782
    47   6 C        2.929    -0.041    29.012     8.833
    48   8 O        0.859    -0.424    22.160     6.312
    49   1 H        0.926     0.037     2.491     2.468
    50   1 H        0.926     0.033     2.538     2.491
    51   1 H        0.926     0.035     2.517     2.481
    52   1 H        0.926     0.032     2.558     2.501
    53   1 H        0.926     0.039     2.459     2.452
    54   1 H        0.926     0.039     2.466     2.456
    55   1 H        0.926     0.034     2.525     2.485
    56   1 H        0.924     0.057     2.229     2.335
    57   1 H        0.924     0.054     2.266     2.354
    58   1 H        0.926     0.038     2.475     2.460
    59   1 H        0.926     0.043     2.413     2.429
    60   1 H        0.926     0.039     2.459     2.452
    61   1 H        0.926     0.027     2.622     2.532
    62   1 H        0.926     0.035     2.510     2.478
    63   1 H        0.926     0.036     2.508     2.476
    64   1 H        0.926     0.034     2.525     2.485
    65   1 H        0.926     0.040     2.454     2.450
    66   1 H        0.925     0.049     2.330     2.387
    67   1 H        0.925     0.053     2.283     2.363
    68   1 H        0.925     0.046     2.376     2.410
    69   1 H        0.925     0.044     2.399     2.422
    70   1 H        0.925     0.049     2.332     2.388
    71   1 H        0.925     0.053     2.286     2.365
    72   1 H        0.926     0.038     2.482     2.464
    73   1 H        0.926     0.031     2.577     2.510
    74   1 H        0.923     0.081     1.964     2.192
    75   1 H        0.799     0.366     0.554     1.169
    76   1 H        0.926     0.036     2.498     2.472
    77   1 H        0.926     0.033     2.545     2.495
    78   1 H        0.925     0.050     2.325     2.385
    79   1 H        0.925     0.045     2.388     2.417
    80   1 H        0.925     0.041     2.435     2.440
    81   1 H        0.925     0.046     2.376     2.411
    82   1 H        0.925     0.045     2.387     2.416
    83   1 H        0.925     0.050     2.324     2.384
    84   1 H        0.926     0.047     2.356     2.400

Wiberg/Mayer (AO) data.
largest (>0.10) Wiberg bond orders for each atom

     #   Z sym  total        # sym  WBO       # sym  WBO       # sym  WBO
 ---------------------------------------------------------------------------
     1   6 C    3.991 --     2 C    1.558     6 C    1.278    49 H    0.968
                             4 C    0.119
     2   6 C    3.992 --     1 C    1.558     3 C    1.320    50 H    0.971
     3   6 C    3.990 --     4 C    1.555     2 C    1.320    51 H    0.971
     4   6 C    3.992 --     3 C    1.555     5 C    1.282    52 H    0.961
                             1 C    0.119
     5   6 C    3.989 --     4 C    1.282    10 C    1.257     6 C    1.251
     6   6 C    3.990 --     7 C    1.282     1 C    1.278     5 C    1.251
     7   6 C    3.990 --     8 C    1.547     6 C    1.282    53 H    0.968
                            10 C    0.115
     8   6 C    3.991 --     7 C    1.547     9 C    1.333    54 H    0.970
     9   6 C    3.991 --    10 C    1.515     8 C    1.333    55 H    0.967
    10   6 C    3.984 --     9 C    1.515     5 C    1.257    11 C    0.994
                             7 C    0.115
    11   6 C    3.967 --    10 C    0.994    38 N    0.966    12 C    0.948
                            56 H    0.945
    12   6 C    3.962 --    13 C    0.992    23 N    0.956    11 C    0.948
                            57 H    0.945
    13   6 C    3.984 --    14 C    1.519    18 C    1.254    12 C    0.992
                            16 C    0.115
    14   6 C    3.991 --    13 C    1.519    15 C    1.330    58 H    0.966
    15   6 C    3.991 --    16 C    1.550    14 C    1.330    59 H    0.970
    16   6 C    3.990 --    15 C    1.550    17 C    1.281    60 H    0.968
                            13 C    0.115
    17   6 C    3.990 --    16 C    1.281    22 C    1.279    18 C    1.251
    18   6 C    3.989 --    19 C    1.283    13 C    1.254    17 C    1.251
    19   6 C    3.992 --    20 C    1.555    18 C    1.283    61 H    0.961
                            22 C    0.118
    20   6 C    3.990 --    19 C    1.555    21 C    1.321    62 H    0.971
    21   6 C    3.992 --    22 C    1.557    20 C    1.321    63 H    0.971
    22   6 C    3.991 --    21 C    1.557    17 C    1.279    64 H    0.968
                            19 C    0.118
    23   7 N    3.495 --    24 C    1.265    34 C    0.965    12 C    0.956
                            33 O    0.186
    24   6 C    3.941 --    33 O    1.602    23 N    1.265    25 C    0.973
    25   6 C    3.986 --    32 C    1.400    26 C    1.397    24 C    0.973
                            29 C    0.103
    26   6 C    3.989 --    27 C    1.425    25 C    1.397    65 H    0.967
                            31 C    0.103
    27   6 C    3.988 --    26 C    1.425    29 C    1.369    28 C    1.029
                            32 C    0.104
    28   6 C    3.995 --    27 C    1.029    68 H    0.985    66 H    0.969
                            67 H    0.968
    29   6 C    3.988 --    31 C    1.418    27 C    1.369    30 C    1.031
                            25 C    0.103
    30   6 C    3.996 --    29 C    1.031    69 H    0.985    71 H    0.969
                            70 H    0.967
    31   6 C    3.991 --    32 C    1.441    29 C    1.418    72 H    0.967
                            26 C    0.103
    32   6 C    3.990 --    31 C    1.441    25 C    1.400    73 H    0.969
                            27 C    0.104
    33   8 O    2.012 --    24 C    1.602    23 N    0.186
    34   6 C    3.955 --    38 N    0.995    23 N    0.965    74 H    0.940
                            35 C    0.889
    35   6 C    3.928 --    37 O    1.769    36 O    1.207    34 C    0.889
    36   8 O    2.238 --    35 C    1.207    75 H    0.768    37 O    0.181
    37   8 O    2.068 --    35 C    1.769    36 O    0.181
    38   7 N    3.439 --    39 C    1.181    34 C    0.995    11 C    0.966
                            48 O    0.181
    39   6 C    3.940 --    48 O    1.700    38 N    1.181    40 C    0.969
    40   6 C    3.987 --    41 C    1.402    47 C    1.396    39 C    0.969
                            43 C    0.104
    41   6 C    3.990 --    42 C    1.443    40 C    1.402    76 H    0.970
                            45 C    0.104
    42   6 C    3.991 --    41 C    1.443    43 C    1.418    77 H    0.968
                            47 C    0.104
    43   6 C    3.989 --    42 C    1.418    45 C    1.370    44 C    1.029
                            40 C    0.104
    44   6 C    3.996 --    43 C    1.029    80 H    0.985    79 H    0.970
                            78 H    0.969
    45   6 C    3.989 --    47 C    1.426    43 C    1.370    46 C    1.028
                            41 C    0.104
    46   6 C    3.995 --    45 C    1.028    81 H    0.985    83 H    0.970
                            82 H    0.968
    47   6 C    3.989 --    45 C    1.426    40 C    1.396    84 H    0.965
                            42 C    0.104
    48   8 O    2.017 --    39 C    1.700    38 N    0.181
    49   1 H    0.998 --     1 C    0.968
    50   1 H    0.998 --     2 C    0.971
    51   1 H    0.998 --     3 C    0.971
    52   1 H    0.999 --     4 C    0.961
    53   1 H    0.997 --     7 C    0.968
    54   1 H    0.997 --     8 C    0.970
    55   1 H    0.998 --     9 C    0.967
    56   1 H    0.996 --    11 C    0.945
    57   1 H    0.997 --    12 C    0.945
    58   1 H    0.998 --    14 C    0.966
    59   1 H    0.997 --    15 C    0.970
    60   1 H    0.997 --    16 C    0.968
    61   1 H    0.999 --    19 C    0.961
    62   1 H    0.998 --    20 C    0.971
    63   1 H    0.998 --    21 C    0.971
    64   1 H    0.998 --    22 C    0.968
    65   1 H    0.998 --    26 C    0.967
    66   1 H    0.997 --    28 C    0.969
    67   1 H    0.997 --    28 C    0.968
    68   1 H    0.998 --    28 C    0.985
    69   1 H    0.998 --    30 C    0.985
    70   1 H    0.997 --    30 C    0.967
    71   1 H    0.997 --    30 C    0.969
    72   1 H    0.998 --    31 C    0.967
    73   1 H    0.998 --    32 C    0.969
    74   1 H    0.993 --    34 C    0.940
    75   1 H    0.866 --    36 O    0.768
    76   1 H    0.998 --    41 C    0.970
    77   1 H    0.998 --    42 C    0.968
    78   1 H    0.997 --    44 C    0.969
    79   1 H    0.997 --    44 C    0.970
    80   1 H    0.998 --    44 C    0.985
    81   1 H    0.998 --    46 C    0.985
    82   1 H    0.998 --    46 C    0.968
    83   1 H    0.997 --    46 C    0.970
    84   1 H    0.997 --    47 C    0.965
 ---------------------------------------------------------------------------

molecular dipole:
                 x           y           z       tot (Debye)
 q only:       -1.953       3.503       1.277
   full:       -2.067       3.679       1.074      11.067

           -------------------------------------------------
          | TOTAL ENERGY             -130.501153768296 Eh   |
          | GRADIENT NORM               0.000484003300 Eh/Î± |
          | HOMO-LUMO GAP               2.792850264673 eV   |
           -------------------------------------------------

 * finished run on 2022/03/16 at 22:56:49.523
