   * xtb version 6.3.3 (4ae9cef) compiled by 'conda@95abc7406d43' on 2020-10-14
          program call               : xtb acid_402.xyz --opt --chrg 0 --uhf 0 --gfn 2
          number of atoms            :                    60
          number of electrons        :                   190
          charge                     :                     0
          spin                       :                   0.0

   ID    Z sym.   atoms
    1    6 C      1-14, 16-20, 22, 23, 25, 26, 30-34, 36, 37
    2    7 N      15, 29
    3   53 I      21, 35
    4    8 O      24, 27, 28, 38
    5    1 H      39-60

          :  Hamiltonian                  GFN2-xTB          :
 * total energy  :  -105.2051637 Eh     change       -0.8926406E-09 Eh
 * total energy  :  -105.2184836 Eh     change       -0.1331993E-01 Eh
 * total energy  :  -105.2219610 Eh     change       -0.3477400E-02 Eh
 * total energy  :  -105.2228186 Eh     change       -0.8576293E-03 Eh
 * total energy  :  -105.2232387 Eh     change       -0.4200651E-03 Eh
 * total energy  :  -105.2234399 Eh     change       -0.2012099E-03 Eh
 * total energy  :  -105.2236332 Eh     change       -0.1933491E-03 Eh
 * total energy  :  -105.2238358 Eh     change       -0.2025379E-03 Eh
 * total energy  :  -105.2240206 Eh     change       -0.1848528E-03 Eh
 * total energy  :  -105.2241295 Eh     change       -0.1088440E-03 Eh
 * total energy  :  -105.2269847 Eh     change       -0.7637333E-05 Eh
 * total energy  :  -105.2269919 Eh     change       -0.7176909E-05 Eh
 * total energy  :  -105.2270022 Eh     change       -0.1034580E-04 Eh
 * total energy  :  -105.2270131 Eh     change       -0.1086234E-04 Eh
 * total energy  :  -105.2270233 Eh     change       -0.1019193E-04 Eh
 * total energy  :  -105.2270332 Eh     change       -0.9932953E-05 Eh
 * total energy  :  -105.2270417 Eh     change       -0.8484919E-05 Eh
 * total energy  :  -105.2270484 Eh     change       -0.6697937E-05 Eh
 * total energy  :  -105.2270533 Eh     change       -0.4942342E-05 Eh
   *** GEOMETRY OPTIMIZATION CONVERGED AFTER 82 ITERATIONS ***

 final structure:
================
60
 xtb: 6.3.3 (4ae9cef)
C        -2.69973857886927   -3.12042329235301    0.69883773564618
C        -3.88196719283851   -3.46133527490364    0.06687468314243
C        -4.36742985592770   -2.68045531744265   -0.96769589062120
C        -3.66472794358711   -1.55737489214590   -1.36791522782659
C        -2.48232342281780   -1.21740297748631   -0.73661027834957
C        -1.99066232107297   -1.99513351120002    0.30323735779641
C        -0.68627999240675   -1.64984377174688    0.98090773839977
C         0.51843387265525   -2.03358221300835    0.09272884299582
C         1.76905950906820   -2.48994745287753    0.80656633092970
C         2.00079391744144   -2.29123582320301    2.16080469477447
C         3.20529369329227   -2.67989846988402    2.72599943914959
C         4.18860784058499   -3.26302340478546    1.94745189345279
C         3.96443383004216   -3.46186281851382    0.59450147010720
C         2.76349405465930   -3.07748718905150    0.02939860549049
N         0.80317808709942   -0.78039673246780   -0.60856968423351
C         0.69970247235408   -0.68828962446313   -1.96753080397468
C         0.59742345885090    0.70889668367264   -2.49079914347640
C        -0.51791589933809    1.03702406073919   -3.25462640638231
C        -0.71369024368237    2.33705118801161   -3.68329152866988
C         0.22236831314655    3.30529757291827   -3.36205366601186
I        -0.10590051592881    5.30941916673485   -3.95084779423632
C         1.36489407998272    2.98306203075385   -2.64969624091701
C         1.55036104297493    1.68343133429372   -2.21287399030339
O         0.66774374471922   -1.66945146911339   -2.67537052423477
C         0.57310083538315    0.27383388346242    0.33453519897083
C         1.80870284381586    0.53826774184061    1.22049783818069
O         2.93835861299444    0.46478522250189    0.52375628648304
O         1.75023395074222    0.83322947824167    2.37910026746736
N        -0.53270429071292   -0.20517199247973    1.13127178033192
C        -1.42090488704441    0.56340369731277    1.81511312535348
C        -1.21129199545066    2.03378912026612    1.59463733881799
C        -1.67022932138933    2.60821335814049    0.41273662167503
C        -1.44832054328515    3.94812550914801    0.15269192097565
C        -0.76621759504966    4.71115520187181    1.08407939072180
I        -0.36525597990550    6.74394584655758    0.65839997165171
C        -0.33422778225274    4.16233735583022    2.27820460387760
C        -0.56150177851335    2.82062472626289    2.53411542228079
O        -2.30118922230148    0.09317966163317    2.49696621701210
H        -2.32574259666275   -3.72819458889013    1.50965650801891
H        -4.42802898168283   -4.33594496914653    0.38709332254933
H        -5.29255730134441   -2.94299519222129   -1.45832666173799
H        -4.04037571092760   -0.94250241396021   -2.17280602473786
H        -1.94323622751271   -0.33531011399528   -1.05356519667918
H        -0.65357072657418   -2.14067039694264    1.95696787862063
H         0.23590783487963   -2.77571622511021   -0.66118367004080
H         1.25794664423249   -1.82897185824611    2.79255573005501
H         3.37163960814288   -2.52010023105552    3.78083624695952
H         5.12560513222665   -3.56286469881456    2.39241082840205
H         4.72598123700186   -3.91814128641624   -0.01989477031341
H         2.58615636686289   -3.22494401753503   -1.02566434146908
H        -1.23589745705995    0.26910592118365   -3.50121247654950
H        -1.59020611348429    2.59202423975745   -4.25876884240768
H         2.10201234297484    3.73905697227168   -2.42724108096571
H         2.43823069388852    1.42276479699556   -1.65702672216917
H         0.33900937731112    1.22598035219920   -0.16064843712556
H         3.70924155189754    0.62374753190488    1.09382676911844
H        -2.20829310583760    2.00724421228366   -0.30681187870379
H        -1.80149747101243    4.38938873451135   -0.76674136971515
H         0.18118701703966    4.77054836993468    3.00518600920310
H        -0.21721891178644    2.37974024823226    3.45582558324501

          :  Hamiltonian                  GFN2-xTB          :
         :: total energy            -105.227053340831 Eh    ::
         :: gradient norm              0.000620952296 Eh/a0 ::
         :: HOMO-LUMO gap              3.398602031444 eV    ::
         :: SCC energy              -106.770312781500 Eh    ::
         :: -> dispersion             -0.095363587865 Eh    ::
         :: repulsion energy           1.539586923923 Eh    ::

    * Orbital Energies and Occupations

         #    Occupation            Energy/Eh            Energy/eV
      -------------------------------------------------------------
         1        2.0000           -0.7897375             -21.4899
       ...           ...                  ...                  ...
        83        2.0000           -0.4359594             -11.8631
        84        2.0000           -0.4316265             -11.7452
        85        2.0000           -0.4265526             -11.6071
        86        2.0000           -0.4241066             -11.5405
        87        2.0000           -0.4205866             -11.4447
        88        2.0000           -0.4180471             -11.3756
        89        2.0000           -0.4168615             -11.3434
        90        2.0000           -0.4157999             -11.3145
        91        2.0000           -0.4146707             -11.2838
        92        2.0000           -0.4124412             -11.2231
        93        2.0000           -0.4103009             -11.1649
        94        2.0000           -0.4075919             -11.0911
        95        2.0000           -0.4058524             -11.0438 (HOMO)
        96                         -0.2809561              -7.6452 (LUMO)
        97                         -0.2780792              -7.5669
        98                         -0.2659570              -7.2371
        99                         -0.2636569              -7.1745
       100                         -0.2584146              -7.0318
       101                         -0.2470077              -6.7214
       102                         -0.2415577              -6.5731
       103                         -0.2387918              -6.4979
       104                         -0.2382719              -6.4837
       105                         -0.2355335              -6.4092
       106                         -0.2327839              -6.3344
       ...                                ...                  ...
       184                          0.6533428              17.7784
      -------------------------------------------------------------
                  HL-Gap            0.1248963 Eh            3.3986 eV

     #   Z          covCN         q      C6AA      Î±(0)
     1   6 C        2.925    -0.030    28.745     8.792
     2   6 C        2.920    -0.024    28.597     8.769
     3   6 C        2.921    -0.027    28.667     8.780
     4   6 C        2.920    -0.025    28.638     8.776
     5   6 C        2.924    -0.027    28.673     8.781
     6   6 C        2.974     0.007    27.857     8.657
     7   6 C        3.826     0.040    19.885     6.345
     8   6 C        3.853     0.035    19.956     6.354
     9   6 C        2.972    -0.001    28.058     8.689
    10   6 C        2.921    -0.038    28.945     8.823
    11   6 C        2.920    -0.029    28.726     8.789
    12   6 C        2.920    -0.030    28.751     8.793
    13   6 C        2.919    -0.027    28.678     8.782
    14   6 C        2.927    -0.032    28.808     8.802
    15   7 N        2.770    -0.115    23.495     7.199
    16   6 C        2.761     0.275    22.355     7.743
    17   6 C        2.974    -0.018    28.449     8.749
    18   6 C        2.927    -0.021    28.521     8.758
    19   6 C        3.048    -0.031    28.727     8.790
    20   6 C        2.957     0.060    26.660     8.469
    21  53 I        1.222    -0.112   380.273    33.663
    22   6 C        3.049    -0.032    28.759     8.795
    23   6 C        2.923    -0.034    28.856     8.809
    24   8 O        0.859    -0.408    21.838     6.265
    25   6 C        3.785     0.091    19.087     6.223
    26   6 C        2.688     0.351    21.043     7.507
    27   8 O        1.659    -0.361    20.107     6.053
    28   8 O        0.856    -0.381    21.301     6.188
    29   7 N        2.770    -0.121    23.627     7.219
    30   6 C        2.759     0.278    22.305     7.734
    31   6 C        2.977    -0.017    28.437     8.747
    32   6 C        2.927    -0.032    28.789     8.799
    33   6 C        3.051    -0.034    28.797     8.801
    34   6 C        2.958     0.058    26.700     8.475
    35  53 I        1.223    -0.119   380.788    33.686
    36   6 C        3.047    -0.031    28.720     8.790
    37   6 C        2.924    -0.020    28.518     8.758
    38   8 O        0.859    -0.405    21.779     6.257
    39   1 H        0.926     0.038     2.481     2.463
    40   1 H        0.926     0.041     2.430     2.438
    41   1 H        0.926     0.040     2.452     2.449
    42   1 H        0.926     0.034     2.523     2.484
    43   1 H        0.925     0.013     2.844     2.637
    44   1 H        0.924     0.069     2.098     2.265
    45   1 H        0.924     0.083     1.949     2.183
    46   1 H        0.926     0.041     2.441     2.443
    47   1 H        0.926     0.041     2.441     2.443
    48   1 H        0.926     0.038     2.470     2.458
    49   1 H        0.926     0.041     2.438     2.442
    50   1 H        0.926     0.049     2.329     2.387
    51   1 H        0.926     0.060     2.203     2.321
    52   1 H        0.926     0.060     2.195     2.317
    53   1 H        0.926     0.058     2.227     2.334
    54   1 H        0.926     0.053     2.281     2.362
    55   1 H        0.923     0.064     2.154     2.295
    56   1 H        0.804     0.346     0.597     1.214
    57   1 H        0.926     0.037     2.485     2.465
    58   1 H        0.926     0.056     2.248     2.344
    59   1 H        0.926     0.060     2.196     2.317
    60   1 H        0.926     0.067     2.117     2.276

Wiberg/Mayer (AO) data.
largest (>0.10) Wiberg bond orders for each atom

     #   Z sym  total        # sym  WBO       # sym  WBO       # sym  WBO
 ---------------------------------------------------------------------------
     1   6 C    3.990 --     2 C    1.445     6 C    1.413    39 H    0.968
                             4 C    0.111
     2   6 C    3.992 --     1 C    1.445     3 C    1.439    40 H    0.970
                             5 C    0.111
     3   6 C    3.990 --     2 C    1.439     4 C    1.438    41 H    0.971
                             6 C    0.110
     4   6 C    3.992 --     5 C    1.445     3 C    1.438    42 H    0.971
                             1 C    0.111
     5   6 C    3.992 --     4 C    1.445     6 C    1.413    43 H    0.966
                             2 C    0.111
     6   6 C    3.986 --     5 C    1.413     1 C    1.413     7 C    0.988
                             3 C    0.110
     7   6 C    3.961 --     6 C    0.988     8 C    0.960    29 N    0.955
                            44 H    0.950
     8   6 C    3.957 --     9 C    0.985     7 C    0.960    45 H    0.950
                            15 N    0.947
     9   6 C    3.984 --    10 C    1.421    14 C    1.403     8 C    0.985
                            12 C    0.109
    10   6 C    3.991 --    11 C    1.433     9 C    1.421    46 H    0.964
                            13 C    0.109
    11   6 C    3.992 --    12 C    1.447    10 C    1.433    47 H    0.971
                            14 C    0.113
    12   6 C    3.991 --    11 C    1.447    13 C    1.431    48 H    0.971
                             9 C    0.109
    13   6 C    3.992 --    14 C    1.454    12 C    1.431    49 H    0.970
                            10 C    0.109
    14   6 C    3.989 --    13 C    1.454     9 C    1.403    50 H    0.968
                            11 C    0.113
    15   7 N    3.455 --    16 C    1.186    25 C    0.999     8 C    0.947
                            24 O    0.187
    16   6 C    3.945 --    24 O    1.707    15 N    1.186    17 C    0.969
    17   6 C    3.988 --    18 C    1.399    23 C    1.394    16 C    0.969
    18   6 C    3.989 --    19 C    1.442    17 C    1.399    51 H    0.965
                            22 C    0.108
    19   6 C    3.989 --    18 C    1.442    20 C    1.418    52 H    0.967
                            23 C    0.108
    20   6 C    3.957 --    19 C    1.418    22 C    1.417    21 I    0.982
    21  53 I    1.104 --    20 C    0.982
    22   6 C    3.989 --    23 C    1.443    20 C    1.417    53 H    0.968
                            18 C    0.108
    23   6 C    3.990 --    22 C    1.443    17 C    1.394    54 H    0.964
                            19 C    0.108
    24   8 O    2.032 --    16 C    1.707    15 N    0.187
    25   6 C    3.977 --    15 N    0.999    29 N    0.983    55 H    0.920
                            26 C    0.912
    26   6 C    3.921 --    28 O    1.782    27 O    1.154    25 C    0.912
    27   8 O    2.220 --    26 C    1.154    56 H    0.854    28 O    0.181
    28   8 O    2.066 --    26 C    1.782    27 O    0.181
    29   7 N    3.458 --    30 C    1.203    25 C    0.983     7 C    0.955
                            38 O    0.193
    30   6 C    3.947 --    38 O    1.713    29 N    1.203    31 C    0.951
    31   6 C    3.988 --    37 C    1.412    32 C    1.397    30 C    0.951
                            34 C    0.102
    32   6 C    3.991 --    33 C    1.442    31 C    1.397    57 H    0.966
                            36 C    0.109
    33   6 C    3.990 --    32 C    1.442    34 C    1.418    58 H    0.967
                            37 C    0.109
    34   6 C    3.955 --    36 C    1.425    33 C    1.418    35 I    0.975
                            31 C    0.102
    35  53 I    1.092 --    34 C    0.975
    36   6 C    3.989 --    37 C    1.434    34 C    1.425    59 H    0.967
                            32 C    0.109
    37   6 C    3.988 --    36 C    1.434    31 C    1.412    60 H    0.964
                            33 C    0.109
    38   8 O    2.035 --    30 C    1.713    29 N    0.193
    39   1 H    0.999 --     1 C    0.968
    40   1 H    0.998 --     2 C    0.970
    41   1 H    0.998 --     3 C    0.971
    42   1 H    0.998 --     4 C    0.971
    43   1 H    1.000 --     5 C    0.966
    44   1 H    0.995 --     7 C    0.950
    45   1 H    0.992 --     8 C    0.950
    46   1 H    0.998 --    10 C    0.964
    47   1 H    0.998 --    11 C    0.971
    48   1 H    0.998 --    12 C    0.971
    49   1 H    0.998 --    13 C    0.970
    50   1 H    0.998 --    14 C    0.968
    51   1 H    0.996 --    18 C    0.965
    52   1 H    0.996 --    19 C    0.967
    53   1 H    0.996 --    22 C    0.968
    54   1 H    0.997 --    23 C    0.964
    55   1 H    0.996 --    25 C    0.920
    56   1 H    0.879 --    27 O    0.854
    57   1 H    0.999 --    32 C    0.966
    58   1 H    0.996 --    33 C    0.967
    59   1 H    0.996 --    36 C    0.967
    60   1 H    0.995 --    37 C    0.964
 ---------------------------------------------------------------------------

molecular dipole:
                 x           y           z       tot (Debye)
 q only:        1.225      -0.957      -0.003
   full:        1.411      -1.635       0.187       5.511

           -------------------------------------------------
          | TOTAL ENERGY             -105.227053340831 Eh   |
          | GRADIENT NORM               0.000620952296 Eh/Î± |
          | HOMO-LUMO GAP               3.398602031444 eV   |
           -------------------------------------------------

 * finished run on 2022/03/17 at 00:46:42.217
