   * xtb version 6.3.3 (4ae9cef) compiled by 'conda@95abc7406d43' on 2020-10-14
          program call               : xtb acid_198.xyz --opt --chrg 0 --uhf 0 --gfn 2
          number of atoms            :                    60
          number of electrons        :                   230
          charge                     :                     0
          spin                       :                   0.0

   ID    Z sym.   atoms
    1    6 C      1, 2, 6-15, 19-22, 24-26, 28, 29, 32, 33, 37-39, 41, 42
    2    9 F      3-5, 16-18
    3    7 N      23, 36
    4   16 S      27, 40
    5   35 Br     30, 43
    6    8 O      31, 34, 35, 44
    7    1 H      45-60

          :  Hamiltonian                  GFN2-xTB          :
 * total energy  :  -133.3079725 Eh     change       -0.1235293E-08 Eh
 * total energy  :  -133.3222259 Eh     change       -0.1425340E-01 Eh
 * total energy  :  -133.3262120 Eh     change       -0.3986099E-02 Eh
 * total energy  :  -133.3274220 Eh     change       -0.1209960E-02 Eh
 * total energy  :  -133.3281436 Eh     change       -0.7216540E-03 Eh
 * total energy  :  -133.3286712 Eh     change       -0.5276091E-03 Eh
 * total energy  :  -133.3292336 Eh     change       -0.5623435E-03 Eh
 * total energy  :  -133.3297638 Eh     change       -0.5301898E-03 Eh
 * total energy  :  -133.3302356 Eh     change       -0.4717884E-03 Eh
 * total energy  :  -133.3305576 Eh     change       -0.3220455E-03 Eh
 * total energy  :  -133.3375134 Eh     change       -0.2299527E-04 Eh
 * total energy  :  -133.3375338 Eh     change       -0.2035853E-04 Eh
 * total energy  :  -133.3375516 Eh     change       -0.1779115E-04 Eh
 * total energy  :  -133.3375680 Eh     change       -0.1643212E-04 Eh
 * total energy  :  -133.3375674 Eh     change        0.6569805E-06 Eh
 * total energy  :  -133.3375783 Eh     change       -0.1094149E-04 Eh
 * total energy  :  -133.3375953 Eh     change       -0.1704069E-04 Eh
 * total energy  :  -133.3376034 Eh     change       -0.8019581E-05 Eh
 * total energy  :  -133.3376082 Eh     change       -0.4830181E-05 Eh
   *** GEOMETRY OPTIMIZATION CONVERGED AFTER 63 ITERATIONS ***

 final structure:
================
60
 xtb: 6.3.3 (4ae9cef)
C         2.47434343962899   -2.13153144248309    1.28366058875277
C         2.16252534852180   -3.30348824655036    0.39426978135556
F         2.84022728172859   -4.40694887838615    0.72347844961062
F         2.42098266955024   -3.08196975119594   -0.90612757139688
F         0.85347578029154   -3.64971719569551    0.44319565052679
C         3.41383550049433   -2.29530824508242    2.29346221887581
C         3.70659740987442   -1.25050955137528    3.14947090367490
C         3.05340818903270   -0.03963717619634    3.00497458260886
C         2.11752604472038    0.12337616674776    2.00172534722383
C         1.81870642725927   -0.91086226867163    1.12308639475583
C         0.78390974972044   -0.67302375839910    0.05072873760700
C        -0.63976559978351   -0.54105129211340    0.63434673188890
C        -1.47576755057153   -1.76885258660867    0.37684644710232
C        -1.84994912580802   -2.64870555366726    1.39286110050556
C        -1.43939421475528   -2.40596359226511    2.81927260340935
F        -0.09481804510486   -2.33537032341705    2.96330645607592
F        -1.84110220446918   -3.37099806969137    3.65169240658659
F        -1.91412479185461   -1.25550944798061    3.32744769811926
C        -2.59898628434593   -3.78156505259703    1.10187010162683
C        -2.97873421518416   -4.05177178529126   -0.19882478948355
C        -2.60604915587654   -3.19060098303863   -1.21530071230467
C        -1.85927386684737   -2.06561027622412   -0.92555895851947
N        -1.18453763729746    0.63702496887466   -0.03985252576701
C        -2.50781546438887    0.95212322070803    0.07911741097826
C        -2.88311121555401    2.28479078266801   -0.47553845347606
C        -3.61606491366439    2.47007696850048   -1.60857298063287
S        -3.91414778490866    4.12545192479235   -1.93549563072663
C        -3.08831129646326    4.60071485873111   -0.51329732692040
C        -2.59716108519640    3.52577372528659    0.15523927709351
Br       -1.64946132120542    3.66859289246121    1.78196868765659
O        -3.31023832631127    0.19211240629354    0.56584370341390
C        -0.12900876376979    1.49864516330702   -0.52389747662903
C        -0.49614965904315    2.10477405019712   -1.90432586531428
O        -0.70365424697048    1.20607273585724   -2.85675111080538
O        -0.59623893276586    3.28237504720214   -2.09071124803963
N         1.00248720821400    0.60471106563809   -0.62541089708810
C         2.23210343938045    0.92612658267608   -1.12282157959546
C         2.28524466308756    2.27454368786033   -1.76108619279042
C         2.37708971336377    3.46739054630981   -1.11174537748874
S         2.45070205298843    4.79613479160087   -2.19318692465295
C         2.37394196140516    3.75522868722731   -3.55010302011373
C         2.29716111837321    2.45271480883231   -3.17191832650411
Br        2.16601878511686    1.01168761658172   -4.38197074814276
O         3.16414486100611    0.16154659070064   -1.08477688887838
H         3.91383691263023   -3.24429482887956    2.40660345177321
H         4.43951583773252   -1.38571578501740    3.92901388814586
H         3.26873443715518    0.77922840310854    3.67404233201655
H         1.61015088706918    1.07164616793034    1.89825543898065
H         0.81846149988525   -1.46610742169120   -0.70292971023218
H        -0.57907821061766   -0.32207262712645    1.70554842811798
H        -2.88224472634823   -4.45107818660570    1.89865812057979
H        -3.56168597220611   -4.93265691868632   -0.41597440304838
H        -2.89417985103759   -3.39413581320438   -2.23524962297263
H        -1.58320368679480   -1.39576489944229   -1.72776870327952
H        -3.97745582840473    1.71653713465931   -2.27940348353345
H        -3.00099883312526    5.63443791199973   -0.24580543528612
H         0.08027514268898    2.33495599568226    0.16640165107061
H        -0.47071580759807    0.30147410424195   -2.59127681661759
H         2.41433841956421    3.64068850028546   -0.05477170293864
H         2.38368783778561    4.14986345063041   -4.54593610694969

          :  Hamiltonian                  GFN2-xTB          :
         :: total energy            -133.337608198720 Eh    ::
         :: gradient norm              0.000794498201 Eh/a0 ::
         :: HOMO-LUMO gap              3.099513716220 eV    ::
         :: SCC energy              -134.731312602637 Eh    ::
         :: -> dispersion             -0.104720326079 Eh    ::
         :: repulsion energy           1.389555303323 Eh    ::

    * Orbital Energies and Occupations

         #    Occupation            Energy/Eh            Energy/eV
      -------------------------------------------------------------
         1        2.0000           -0.8836218             -24.0446
       ...           ...                  ...                  ...
       103        2.0000           -0.4487401             -12.2108
       104        2.0000           -0.4474898             -12.1768
       105        2.0000           -0.4456095             -12.1257
       106        2.0000           -0.4423636             -12.0373
       107        2.0000           -0.4369312             -11.8895
       108        2.0000           -0.4347627             -11.8305
       109        2.0000           -0.4330844             -11.7848
       110        2.0000           -0.4290907             -11.6762
       111        2.0000           -0.4285738             -11.6621
       112        2.0000           -0.4253666             -11.5748
       113        2.0000           -0.4251177             -11.5680
       114        2.0000           -0.4159276             -11.3180
       115        2.0000           -0.4104779             -11.1697 (HOMO)
       116                         -0.2965728              -8.0702 (LUMO)
       117                         -0.2841129              -7.7311
       118                         -0.2784050              -7.5758
       119                         -0.2747827              -7.4772
       120                         -0.2706328              -7.3643
       121                         -0.2656923              -7.2299
       122                         -0.2624988              -7.1430
       123                         -0.2600900              -7.0774
       124                         -0.2554266              -6.9505
       125                         -0.2468470              -6.7170
       126                         -0.2427059              -6.6044
       ...                                ...                  ...
       212                          0.6702907              18.2395
      -------------------------------------------------------------
                  HL-Gap            0.1139050 Eh            3.0995 eV

     #   Z          covCN         q      C6AA      Î±(0)
     1   6 C        2.976    -0.021    28.513     8.759
     2   6 C        3.335     0.486    17.292     6.587
     3   9 F        0.792    -0.197    11.199     3.953
     4   9 F        0.791    -0.203    11.265     3.965
     5   9 F        0.791    -0.225    11.496     4.005
     6   6 C        2.923    -0.017    28.427     8.743
     7   6 C        2.920    -0.018    28.468     8.750
     8   6 C        2.919    -0.016    28.405     8.740
     9   6 C        2.927    -0.024    28.606     8.771
    10   6 C        2.972     0.021    27.538     8.608
    11   6 C        3.818     0.047    19.774     6.329
    12   6 C        3.823     0.048    19.757     6.325
    13   6 C        2.971     0.025    27.445     8.593
    14   6 C        2.977    -0.020    28.497     8.757
    15   6 C        3.335     0.486    17.288     6.586
    16   9 F        0.791    -0.223    11.479     4.002
    17   9 F        0.792    -0.197    11.201     3.953
    18   9 F        0.791    -0.203    11.271     3.966
    19   6 C        2.923    -0.016    28.406     8.740
    20   6 C        2.921    -0.018    28.460     8.748
    21   6 C        2.919    -0.015    28.394     8.738
    22   6 C        2.927    -0.022    28.557     8.764
    23   7 N        2.765    -0.129    23.797     7.245
    24   6 C        2.758     0.281    22.234     7.722
    25   6 C        3.201    -0.043    28.477     8.695
    26   6 C        2.950    -0.025    28.621     8.775
    27  16 S        2.324     0.078   137.897    19.764
    28   6 C        2.999    -0.031    28.758     8.797
    29   6 C        3.139     0.065    26.319     8.396
    30  35 Br       1.028    -0.150   189.166    22.176
    31   8 O        0.859    -0.396    21.604     6.232
    32   6 C        3.746     0.076    19.374     6.279
    33   6 C        2.686     0.350    21.056     7.509
    34   8 O        1.659    -0.340    19.724     5.995
    35   8 O        0.856    -0.364    20.982     6.141
    36   7 N        2.767    -0.138    23.981     7.273
    37   6 C        2.758     0.280    22.258     7.726
    38   6 C        3.209    -0.046    28.475     8.688
    39   6 C        2.947    -0.032    28.789     8.800
    40  16 S        2.324     0.075   138.036    19.774
    41   6 C        2.994    -0.033    28.803     8.804
    42   6 C        3.135     0.068    26.258     8.388
    43  35 Br       1.027    -0.139   188.869    22.159
    44   8 O        0.859    -0.389    21.464     6.212
    45   1 H        0.926     0.073     2.057     2.243
    46   1 H        0.926     0.062     2.171     2.304
    47   1 H        0.926     0.060     2.198     2.318
    48   1 H        0.926     0.046     2.367     2.406
    49   1 H        0.924     0.067     2.122     2.278
    50   1 H        0.924     0.069     2.099     2.266
    51   1 H        0.926     0.073     2.049     2.239
    52   1 H        0.926     0.063     2.164     2.301
    53   1 H        0.926     0.060     2.200     2.319
    54   1 H        0.926     0.036     2.503     2.474
    55   1 H        0.926     0.067     2.119     2.276
    56   1 H        0.926     0.076     2.026     2.226
    57   1 H        0.923     0.069     2.100     2.266
    58   1 H        0.804     0.344     0.603     1.219
    59   1 H        0.926     0.062     2.180     2.309
    60   1 H        0.926     0.076     2.024     2.225

Wiberg/Mayer (AO) data.
largest (>0.10) Wiberg bond orders for each atom

     #   Z sym  total        # sym  WBO       # sym  WBO       # sym  WBO
 ---------------------------------------------------------------------------
     1   6 C    3.971 --     6 C    1.415    10 C    1.385     2 C    0.951
                             8 C    0.105
     2   6 C    3.823 --     3 F    0.960     1 C    0.951     4 F    0.946
                             5 F    0.926
     3   9 F    1.083 --     2 C    0.960
     4   9 F    1.077 --     2 C    0.946
     5   9 F    1.053 --     2 C    0.926
     6   6 C    3.986 --     7 C    1.442     1 C    1.415    45 H    0.965
                             9 C    0.109
     7   6 C    3.988 --     6 C    1.442     8 C    1.435    46 H    0.968
                            10 C    0.109
     8   6 C    3.990 --     9 C    1.446     7 C    1.435    47 H    0.968
                             1 C    0.105
     9   6 C    3.990 --     8 C    1.446    10 C    1.413    48 H    0.967
                             6 C    0.109
    10   6 C    3.986 --     9 C    1.413     1 C    1.385    11 C    0.991
                             7 C    0.109
    11   6 C    3.964 --    10 C    0.991    49 H    0.954    12 C    0.953
                            36 N    0.952
    12   6 C    3.964 --    13 C    0.995    11 C    0.953    50 H    0.952
                            23 N    0.952
    13   6 C    3.986 --    22 C    1.410    14 C    1.385    12 C    0.995
                            20 C    0.109
    14   6 C    3.971 --    19 C    1.415    13 C    1.385    15 C    0.951
                            21 C    0.105
    15   6 C    3.823 --    17 F    0.960    14 C    0.951    18 F    0.946
                            16 F    0.928
    16   9 F    1.055 --    15 C    0.928
    17   9 F    1.083 --    15 C    0.960
    18   9 F    1.077 --    15 C    0.946
    19   6 C    3.986 --    20 C    1.442    14 C    1.415    51 H    0.965
                            22 C    0.108
    20   6 C    3.988 --    19 C    1.442    21 C    1.433    52 H    0.968
                            13 C    0.109
    21   6 C    3.990 --    22 C    1.448    20 C    1.433    53 H    0.968
                            14 C    0.105
    22   6 C    3.991 --    21 C    1.448    13 C    1.410    54 H    0.964
                            19 C    0.108
    23   7 N    3.441 --    24 C    1.188    32 C    0.983    12 C    0.952
                            31 O    0.191
    24   6 C    3.949 --    31 O    1.718    23 N    1.188    25 C    0.957
    25   6 C    3.979 --    26 C    1.578    29 C    1.220    24 C    0.957
    26   6 C    3.956 --    25 C    1.578    27 S    1.221    55 H    0.968
                            28 C    0.104
    27  16 S    2.694 --    26 C    1.221    28 C    1.210
    28   6 C    3.952 --    29 C    1.586    27 S    1.210    56 H    0.967
                            26 C    0.104
    29   6 C    3.932 --    28 C    1.586    25 C    1.220    30 Br   0.982
    30  35 Br   1.135 --    29 C    0.982
    31   8 O    2.057 --    24 C    1.718    23 N    0.191
    32   6 C    3.961 --    23 N    0.983    36 N    0.981    57 H    0.935
                            33 C    0.902
    33   6 C    3.928 --    35 O    1.782    34 O    1.166    32 C    0.902
    34   8 O    2.247 --    33 C    1.166    58 H    0.849    35 O    0.172
    35   8 O    2.078 --    33 C    1.782    34 O    0.172
    36   7 N    3.440 --    37 C    1.184    32 C    0.981    11 C    0.952
                            44 O    0.192
    37   6 C    3.949 --    44 O    1.726    36 N    1.184    38 C    0.953
    38   6 C    3.980 --    39 C    1.581    42 C    1.217    37 C    0.953
    39   6 C    3.954 --    38 C    1.581    40 S    1.217    59 H    0.968
                            41 C    0.106
    40  16 S    2.694 --    39 C    1.217    41 C    1.210
    41   6 C    3.951 --    42 C    1.583    40 S    1.210    60 H    0.967
                            39 C    0.106
    42   6 C    3.937 --    41 C    1.583    38 C    1.217    43 Br   0.992
    43  35 Br   1.144 --    42 C    0.992
    44   8 O    2.062 --    37 C    1.726    36 N    0.192
    45   1 H    0.994 --     6 C    0.965
    46   1 H    0.995 --     7 C    0.968
    47   1 H    0.996 --     8 C    0.968
    48   1 H    0.997 --     9 C    0.967
    49   1 H    0.995 --    11 C    0.954
    50   1 H    0.995 --    12 C    0.952
    51   1 H    0.994 --    19 C    0.965
    52   1 H    0.995 --    20 C    0.968
    53   1 H    0.996 --    21 C    0.968
    54   1 H    0.998 --    22 C    0.964
    55   1 H    0.996 --    26 C    0.968
    56   1 H    0.993 --    28 C    0.967
    57   1 H    0.995 --    32 C    0.935
    58   1 H    0.882 --    34 O    0.849
    59   1 H    0.996 --    39 C    0.968
    60   1 H    0.993 --    41 C    0.967
 ---------------------------------------------------------------------------

molecular dipole:
                 x           y           z       tot (Debye)
 q only:       -0.305       1.064      -0.448
   full:       -0.408       1.089      -0.284       3.043

           -------------------------------------------------
          | TOTAL ENERGY             -133.337608198720 Eh   |
          | GRADIENT NORM               0.000794498201 Eh/Î± |
          | HOMO-LUMO GAP               3.099513716220 eV   |
           -------------------------------------------------

 * finished run on 2022/03/16 at 22:24:34.960
