   * xtb version 6.3.3 (4ae9cef) compiled by 'conda@95abc7406d43' on 2020-10-14
          program call               : xtb acid_59.xyz --opt --chrg 0 --uhf 0 --gfn 2
          number of atoms            :                    70
          number of electrons        :                   182
          charge                     :                     0
          spin                       :                   0.0

   ID    Z sym.   atoms
    1    8 O      1, 11, 12, 20
    2    6 C      2-7, 9, 10, 14-19, 21-34
    3    7 N      8, 13
    4    1 H      35-70

          :  Hamiltonian                  GFN2-xTB          :
 * total energy  :  -100.4869197 Eh     change       -0.5719585E-09 Eh
 * total energy  :  -100.4963541 Eh     change       -0.9434384E-02 Eh
 * total energy  :  -100.4993279 Eh     change       -0.2973807E-02 Eh
 * total energy  :  -100.5003643 Eh     change       -0.1036381E-02 Eh
 * total energy  :  -100.5007612 Eh     change       -0.3969411E-03 Eh
 * total energy  :  -100.5009586 Eh     change       -0.1973431E-03 Eh
 * total energy  :  -100.5011420 Eh     change       -0.1834744E-03 Eh
 * total energy  :  -100.5013191 Eh     change       -0.1770437E-03 Eh
 * total energy  :  -100.5015195 Eh     change       -0.2003891E-03 Eh
 * total energy  :  -100.5017521 Eh     change       -0.2326641E-03 Eh
 * total energy  :  -100.5039468 Eh     change       -0.1843959E-04 Eh
 * total energy  :  -100.5039598 Eh     change       -0.1306381E-04 Eh
 * total energy  :  -100.5039726 Eh     change       -0.1274965E-04 Eh
 * total energy  :  -100.5039858 Eh     change       -0.1320031E-04 Eh
 * total energy  :  -100.5039981 Eh     change       -0.1227444E-04 Eh
 * total energy  :  -100.5040091 Eh     change       -0.1106189E-04 Eh
 * total energy  :  -100.5040198 Eh     change       -0.1063789E-04 Eh
 * total energy  :  -100.5040313 Eh     change       -0.1157701E-04 Eh
 * total energy  :  -100.5040357 Eh     change       -0.4402173E-05 Eh
   *** GEOMETRY OPTIMIZATION CONVERGED AFTER 44 ITERATIONS ***

 final structure:
================
70
 xtb: 6.3.3 (4ae9cef)
O        -2.29297326940663    2.15402603055034   -1.65677145692175
C        -2.35780009689958    1.18549574056735   -0.91577036212020
C        -3.62722061520793    0.74976999193293   -0.22875063517469
C        -4.42540440067869    1.96295219629661    0.25545704889798
C        -3.67969018969435    2.80095618983049    1.29560105889292
C        -3.24064547538234    2.04236449224217    2.54944095999574
C        -4.40049594017711    1.40478358929531    3.30572091812424
N        -1.22707014841052    0.48333461733588   -0.66931634004063
C        -0.02353122792030    0.96841356355173   -1.31654375192863
C        -0.37705866708727    1.32299462949398   -2.77867583091967
O         0.07248067011875    2.52333849244762   -3.12547417303583
O        -0.89578859144660    0.54761279588288   -3.53486203259513
N         0.90723009138661   -0.11850394669657   -1.20697920123925
C         2.14205941687831   -0.24339565937211   -1.76983738675181
C         2.74205461318809    1.00238833588785   -2.38890344983894
C         4.23962712871814    1.06024409759509   -2.07817758742098
C         4.49052223584932    1.26265282190496   -0.58565096791231
C         5.97946650930581    1.32913687680866   -0.25693931235439
C         6.21897063187173    1.48047832611780    1.24020270690597
O         2.72424896541147   -1.30633130728266   -1.72994259651778
C         0.34321406198933   -1.27391611678502   -0.52141968244595
C         1.20937565012848   -1.69752006253180    0.63816048371591
C         1.79718113508877   -0.74359244896930    1.45912799962315
C         2.58954307095899   -1.13107201151333    2.52431285129778
C         2.78845249301864   -2.47566123217442    2.78774557372580
C         2.19095544962131   -3.43002282238709    1.98245665767107
C         1.40618000840981   -3.04304939539436    0.91062890203394
C        -1.06055395455396   -0.82051649462321   -0.05752449695180
C        -2.09843980653709   -1.82943373678654   -0.47973558556406
C        -2.63631912174654   -2.70466712345386    0.45370713678696
C        -3.55851983001946   -3.65987469934975    0.06322125632814
C        -3.94897516140602   -3.74489949227234   -1.26208340586971
C        -3.40812851001599   -2.87811861366165   -2.19759243420275
C        -2.48147070596050   -1.92601322406601   -1.81246018079159
H        -3.41008687805310    0.07501450415266    0.59585448601683
H        -4.22137477202293    0.20156228632146   -0.96476241307434
H        -4.63723485982245    2.59991601766249   -0.60472349936102
H        -5.37631555548697    1.61844428143129    0.66384459715054
H        -4.33084333198907    3.62543017084483    1.59574736810466
H        -2.79683804865445    3.23603531226289    0.82230352678921
H        -2.73504129790068    2.75015976262084    3.21090485207366
H        -2.51073654724762    1.27441184293646    2.28436126859039
H        -5.15951614227957    2.14983339044052    3.53356299753159
H        -4.86127149343261    0.61114224129880    2.72293935676761
H        -4.05019251336507    0.97625878364136    4.24230987618407
H         0.33263148152610    1.88788946779449   -0.82008683871753
H        -0.21889466094913    2.74705710344254   -4.02354169779358
H         2.24891561773592    1.90323374109384   -2.02705500011592
H         2.59395905318185    0.93988945590893   -3.46995860222302
H         4.69630177697551    0.12120346322491   -2.39355534881993
H         4.69612491530563    1.87481142497789   -2.64423875451215
H         4.00682117236908    2.18661733208258   -0.25555248951358
H         4.04240299943902    0.43163328287727   -0.03616694762079
H         6.43172472456913    2.17147261834098   -0.78608600164765
H         6.46310681598680    0.41626715015751   -0.60998056216272
H         7.28395513523652    1.52143064410454    1.45664628792823
H         5.79073748865212    0.63696464769466    1.77754939692866
H         5.75840895123554    2.39394550618478    1.61128852493855
H         0.26186000229493   -2.10718791435743   -1.23112577702375
H         1.64472052775893    0.30696852907201    1.25520254110521
H         3.05438039429645   -0.38145383615580    3.14810961486606
H         3.41070239915102   -2.77821867414329    3.61688563199703
H         2.34386587058798   -4.47985720465399    2.18383928503054
H         0.95015732598807   -3.78713796429433    0.27450458714531
H        -1.06619612576227   -0.71611635184131    1.03827046192915
H        -2.32910106141612   -2.63956574301558    1.48828426021820
H        -3.97268855325249   -4.33663325846781    0.79567411431911
H        -4.67159036057602   -4.48748399329842   -1.56585560480677
H        -3.70581798462050   -2.94479265395231   -3.23314105300057
H        -2.05850588484761   -1.25349776681481   -2.54462712862759

          :  Hamiltonian                  GFN2-xTB          :
         :: total energy            -100.504035741375 Eh    ::
         :: gradient norm              0.000263491132 Eh/a0 ::
         :: HOMO-LUMO gap              3.916917208086 eV    ::
         :: SCC energy              -101.940803215496 Eh    ::
         :: -> dispersion             -0.082089921886 Eh    ::
         :: repulsion energy           1.434133207673 Eh    ::

    * Orbital Energies and Occupations

         #    Occupation            Energy/Eh            Energy/eV
      -------------------------------------------------------------
         1        2.0000           -0.7538876             -20.5143
       ...           ...                  ...                  ...
        79        2.0000           -0.4300071             -11.7011
        80        2.0000           -0.4295635             -11.6890
        81        2.0000           -0.4282166             -11.6524
        82        2.0000           -0.4271838             -11.6243
        83        2.0000           -0.4190372             -11.4026
        84        2.0000           -0.4158446             -11.3157
        85        2.0000           -0.4148344             -11.2882
        86        2.0000           -0.4115921             -11.2000
        87        2.0000           -0.4096628             -11.1475
        88        2.0000           -0.4075055             -11.0888
        89        2.0000           -0.4033928             -10.9769
        90        2.0000           -0.3923713             -10.6770
        91        2.0000           -0.3903088             -10.6208 (HOMO)
        92                         -0.2463647              -6.7039 (LUMO)
        93                         -0.2389016              -6.5008
        94                         -0.2340898              -6.3699
        95                         -0.2295553              -6.2465
        96                         -0.2281176              -6.2074
        97                         -0.2209901              -6.0134
        98                         -0.2094827              -5.7003
        99                         -0.1096479              -2.9837
       100                         -0.1016143              -2.7651
       101                         -0.0271402              -0.7385
       102                         -0.0147770              -0.4021
       ...                                ...                  ...
       172                          0.6594293              17.9440
      -------------------------------------------------------------
                  HL-Gap            0.1439441 Eh            3.9169 eV

     #   Z          covCN         q      C6AA      Î±(0)
     1   8 O        0.862    -0.436    22.416     6.348
     2   6 C        2.770     0.276    22.328     7.739
     3   6 C        3.805    -0.081    22.033     6.682
     4   6 C        3.803    -0.054    21.538     6.607
     5   6 C        3.801    -0.060    21.648     6.624
     6   6 C        3.799    -0.051    21.494     6.601
     7   6 C        3.751    -0.103    22.522     6.768
     8   7 N        2.764    -0.112    23.452     7.193
     9   6 C        3.765     0.099    18.985     6.210
    10   6 C        2.690     0.368    20.754     7.456
    11   8 O        1.659    -0.361    20.104     6.053
    12   8 O        0.856    -0.404    21.754     6.253
    13   7 N        2.758    -0.122    23.640     7.221
    14   6 C        2.761     0.272    22.401     7.751
    15   6 C        3.805    -0.087    22.154     6.701
    16   6 C        3.805    -0.055    21.555     6.609
    17   6 C        3.803    -0.058    21.612     6.618
    18   6 C        3.801    -0.054    21.537     6.607
    19   6 C        3.752    -0.102    22.504     6.765
    20   8 O        0.860    -0.424    22.164     6.312
    21   6 C        3.829     0.048    19.741     6.322
    22   6 C        2.974     0.011    27.770     8.644
    23   6 C        2.924    -0.031    28.785     8.798
    24   6 C        2.920    -0.028    28.691     8.784
    25   6 C        2.920    -0.029    28.723     8.789
    26   6 C        2.920    -0.025    28.632     8.775
    27   6 C        2.924    -0.028    28.707     8.787
    28   6 C        3.811     0.041    19.885     6.347
    29   6 C        2.975    -0.002    28.078     8.692
    30   6 C        2.923    -0.037    28.926     8.820
    31   6 C        2.919    -0.028    28.705     8.786
    32   6 C        2.920    -0.029    28.734     8.790
    33   6 C        2.920    -0.026    28.653     8.778
    34   6 C        2.922    -0.037    28.928     8.820
    35   1 H        0.925     0.049     2.327     2.386
    36   1 H        0.924     0.063     2.169     2.303
    37   1 H        0.924     0.055     2.262     2.352
    38   1 H        0.924     0.040     2.444     2.445
    39   1 H        0.924     0.036     2.497     2.471
    40   1 H        0.924     0.035     2.511     2.478
    41   1 H        0.924     0.030     2.581     2.512
    42   1 H        0.924     0.022     2.701     2.570
    43   1 H        0.925     0.036     2.496     2.471
    44   1 H        0.925     0.034     2.527     2.486
    45   1 H        0.925     0.032     2.561     2.503
    46   1 H        0.923     0.060     2.202     2.321
    47   1 H        0.804     0.344     0.601     1.218
    48   1 H        0.925     0.045     2.387     2.416
    49   1 H        0.924     0.057     2.240     2.340
    50   1 H        0.924     0.057     2.232     2.336
    51   1 H        0.924     0.034     2.524     2.484
    52   1 H        0.924     0.025     2.653     2.547
    53   1 H        0.924     0.036     2.496     2.471
    54   1 H        0.924     0.029     2.603     2.523
    55   1 H        0.924     0.034     2.531     2.488
    56   1 H        0.925     0.034     2.534     2.490
    57   1 H        0.925     0.034     2.525     2.485
    58   1 H        0.925     0.032     2.558     2.501
    59   1 H        0.924     0.064     2.152     2.294
    60   1 H        0.926     0.030     2.590     2.517
    61   1 H        0.926     0.035     2.512     2.479
    62   1 H        0.926     0.036     2.501     2.473
    63   1 H        0.926     0.038     2.470     2.458
    64   1 H        0.926     0.037     2.487     2.466
    65   1 H        0.923     0.044     2.398     2.422
    66   1 H        0.926     0.029     2.598     2.521
    67   1 H        0.926     0.037     2.487     2.466
    68   1 H        0.926     0.038     2.482     2.464
    69   1 H        0.926     0.042     2.424     2.434
    70   1 H        0.926     0.061     2.183     2.310

Wiberg/Mayer (AO) data.
largest (>0.10) Wiberg bond orders for each atom

     #   Z sym  total        # sym  WBO       # sym  WBO       # sym  WBO
 ---------------------------------------------------------------------------
     1   8 O    2.037 --     2 C    1.646     8 N    0.180
     2   6 C    3.940 --     1 O    1.646     8 N    1.231     3 C    0.980
     3   6 C    3.994 --     4 C    0.995     2 C    0.980    35 H    0.967
                            36 H    0.949
     4   6 C    3.993 --     5 C    1.008     3 C    0.995    38 H    0.975
                            37 H    0.975
     5   6 C    3.997 --     4 C    1.008     6 C    1.008    39 H    0.977
                            40 H    0.977
     6   6 C    3.998 --     7 C    1.020     5 C    1.008    41 H    0.978
                            42 H    0.976
     7   6 C    3.997 --     6 C    1.020    45 H    0.988    43 H    0.988
                            44 H    0.986
     8   7 N    3.467 --     2 C    1.231     9 C    0.975    28 C    0.965
                             1 O    0.180
     9   6 C    3.967 --    13 N    0.991     8 N    0.975    46 H    0.943
                            10 C    0.906
    10   6 C    3.923 --    12 O    1.752    11 O    1.151     9 C    0.906
    11   8 O    2.213 --    10 C    1.151    47 H    0.856    12 O    0.170
    12   8 O    2.048 --    10 C    1.752    11 O    0.170
    13   7 N    3.451 --    14 C    1.197     9 C    0.991    21 C    0.959
                            20 O    0.182
    14   6 C    3.944 --    20 O    1.699    13 N    1.197    15 C    0.972
    15   6 C    3.995 --    16 C    0.997    14 C    0.972    48 H    0.970
                            49 H    0.954
    16   6 C    3.993 --    17 C    1.008    15 C    0.997    51 H    0.977
                            50 H    0.974
    17   6 C    3.997 --    16 C    1.008    18 C    1.008    52 H    0.977
                            53 H    0.975
    18   6 C    3.998 --    19 C    1.019    17 C    1.008    54 H    0.979
                            55 H    0.978
    19   6 C    3.997 --    18 C    1.019    58 H    0.988    57 H    0.988
                            56 H    0.988
    20   8 O    2.017 --    14 C    1.699    13 N    0.182
    21   6 C    3.964 --    22 C    0.988    13 N    0.959    59 H    0.953
                            28 C    0.950
    22   6 C    3.985 --    27 C    1.415    23 C    1.411    21 C    0.988
                            25 C    0.110
    23   6 C    3.992 --    24 C    1.446    22 C    1.411    60 H    0.969
                            26 C    0.111
    24   6 C    3.992 --    23 C    1.446    25 C    1.437    61 H    0.971
                            27 C    0.111
    25   6 C    3.991 --    26 C    1.440    24 C    1.437    62 H    0.971
                            22 C    0.110
    26   6 C    3.992 --    27 C    1.443    25 C    1.440    63 H    0.971
                            23 C    0.111
    27   6 C    3.990 --    26 C    1.443    22 C    1.415    64 H    0.968
                            24 C    0.111
    28   6 C    3.965 --    29 C    0.988     8 N    0.965    65 H    0.953
                            21 C    0.950
    29   6 C    3.985 --    30 C    1.415    34 C    1.408    28 C    0.988
                            32 C    0.109
    30   6 C    3.990 --    31 C    1.441    29 C    1.415    66 H    0.969
                            33 C    0.110
    31   6 C    3.992 --    32 C    1.441    30 C    1.441    67 H    0.971
                            34 C    0.112
    32   6 C    3.990 --    31 C    1.441    33 C    1.436    68 H    0.971
                            29 C    0.109
    33   6 C    3.992 --    34 C    1.447    32 C    1.436    69 H    0.970
                            30 C    0.110
    34   6 C    3.988 --    33 C    1.447    29 C    1.408    70 H    0.962
                            31 C    0.112
    35   1 H    0.998 --     3 C    0.967
    36   1 H    0.996 --     3 C    0.949
    37   1 H    0.997 --     4 C    0.975
    38   1 H    0.998 --     4 C    0.975
    39   1 H    0.999 --     5 C    0.977
    40   1 H    0.999 --     5 C    0.977
    41   1 H    0.999 --     6 C    0.978
    42   1 H    1.000 --     6 C    0.976
    43   1 H    0.999 --     7 C    0.988
    44   1 H    0.999 --     7 C    0.986
    45   1 H    0.999 --     7 C    0.988
    46   1 H    0.996 --     9 C    0.943
    47   1 H    0.881 --    11 O    0.856
    48   1 H    0.998 --    15 C    0.970
    49   1 H    0.996 --    15 C    0.954
    50   1 H    0.997 --    16 C    0.974
    51   1 H    0.998 --    16 C    0.977
    52   1 H    0.999 --    17 C    0.977
    53   1 H    0.999 --    17 C    0.975
    54   1 H    0.999 --    18 C    0.979
    55   1 H    0.999 --    18 C    0.978
    56   1 H    0.999 --    19 C    0.988
    57   1 H    0.999 --    19 C    0.988
    58   1 H    0.999 --    19 C    0.988
    59   1 H    0.996 --    21 C    0.953
    60   1 H    0.999 --    23 C    0.969
    61   1 H    0.998 --    24 C    0.971
    62   1 H    0.998 --    25 C    0.971
    63   1 H    0.998 --    26 C    0.971
    64   1 H    0.999 --    27 C    0.968
    65   1 H    0.998 --    28 C    0.953
    66   1 H    0.999 --    30 C    0.969
    67   1 H    0.998 --    31 C    0.971
    68   1 H    0.998 --    32 C    0.971
    69   1 H    0.998 --    33 C    0.970
    70   1 H    0.996 --    34 C    0.962
 ---------------------------------------------------------------------------

molecular dipole:
                 x           y           z       tot (Debye)
 q only:       -0.584       0.009       1.274
   full:       -0.720       0.191       1.172       3.529

           -------------------------------------------------
          | TOTAL ENERGY             -100.504035741375 Eh   |
          | GRADIENT NORM               0.000263491132 Eh/Î± |
          | HOMO-LUMO GAP               3.916917208086 eV   |
           -------------------------------------------------

 * finished run on 2022/03/17 at 01:52:50.993
