   * xtb version 6.3.3 (4ae9cef) compiled by 'conda@95abc7406d43' on 2020-10-14
          program call               : xtb acid_315.xyz --opt --chrg 0 --uhf 0 --gfn 2
          number of atoms            :                    74
          number of electrons        :                   230
          charge                     :                     0
          spin                       :                   0.0

   ID    Z sym.   atoms
    1    6 C      1-22, 24-26, 28, 29, 31, 33, 34, 38-40, 42, 43, 45
    2    7 N      23, 37
    3   16 S      27, 41
    4    8 O      30, 32, 35, 36, 44, 46
    5    1 H      47-74

          :  Hamiltonian                  GFN2-xTB          :
 * total energy  :  -128.0842398 Eh     change       -0.2377107E-08 Eh
 * total energy  :  -128.1028369 Eh     change       -0.1859706E-01 Eh
 * total energy  :  -128.1080448 Eh     change       -0.5207872E-02 Eh
 * total energy  :  -128.1105007 Eh     change       -0.2455945E-02 Eh
 * total energy  :  -128.1118156 Eh     change       -0.1314901E-02 Eh
 * total energy  :  -128.1126351 Eh     change       -0.8194649E-03 Eh
 * total energy  :  -128.1131539 Eh     change       -0.5188637E-03 Eh
 * total energy  :  -128.1136524 Eh     change       -0.4985122E-03 Eh
 * total energy  :  -128.1141746 Eh     change       -0.5221904E-03 Eh
 * total energy  :  -128.1147054 Eh     change       -0.5307426E-03 Eh
 * total energy  :  -128.1403693 Eh     change       -0.8253965E-05 Eh
 * total energy  :  -128.1403774 Eh     change       -0.8076627E-05 Eh
 * total energy  :  -128.1403948 Eh     change       -0.1737871E-04 Eh
 * total energy  :  -128.1404064 Eh     change       -0.1164536E-04 Eh
 * total energy  :  -128.1404178 Eh     change       -0.1136864E-04 Eh
 * total energy  :  -128.1404267 Eh     change       -0.8968596E-05 Eh
 * total energy  :  -128.1404331 Eh     change       -0.6411451E-05 Eh
 * total energy  :  -128.1404387 Eh     change       -0.5525491E-05 Eh
 * total energy  :  -128.1404430 Eh     change       -0.4378011E-05 Eh
   *** GEOMETRY OPTIMIZATION CONVERGED AFTER 194 ITERATIONS ***

 final structure:
================
74
 xtb: 6.3.3 (4ae9cef)
C        -5.58805978579603    1.02811819321072   -1.54118268204385
C        -5.35516488693080    2.32647907936080   -1.89073333429109
C        -4.17825574650705    2.95394121247184   -1.46088406709904
C        -3.24720042416399    2.27402249040997   -0.72572740139643
C        -3.42873633802554    0.91471735410145   -0.37682883381790
C        -4.65423615190732    0.29867386177182   -0.77419300350462
C        -4.94231639077787   -1.02610383725480   -0.39235722102057
C        -4.06612674524469   -1.72630527918186    0.38539742791373
C        -2.85306520598711   -1.13994321472888    0.75645560430009
C        -2.50062614929281    0.13267221214428    0.36387818585764
C        -1.09353812698052    0.52109271425637    0.77966468276110
C        -0.03416038949937   -0.37497309107597    0.05306826680857
C         0.78839627236898   -1.16683582536085    1.03624596242775
C         1.63209309762428   -0.47110913011825    1.86975901236527
C         2.47052446955885   -1.13092700431051    2.77417703460029
C         2.46812459489955   -2.49514909880784    2.83642376427446
C         1.59678055817772   -3.24803101797890    2.02397330530625
C         0.71692296992243   -2.58404266763347    1.12388938189214
C        -0.16624457606359   -3.38059061098447    0.36084313893508
C        -0.15863157086833   -4.74402340830950    0.45951120383789
C         0.73280459537250   -5.39420196050113    1.32426170748952
C         1.58660568780300   -4.65742855864330    2.09287185905950
N         0.79565933929428    0.57759856732272   -0.69734706191080
C         1.97221517597340    0.26124077977108   -1.23729732037402
C         2.38562222421599   -1.16461744422460   -1.18124221658904
C         3.53932426222922   -1.60545169573037   -0.60910789179647
S         3.78644031627843   -3.28058825502696   -0.84182439059961
C         2.35404996455803   -3.40455740254373   -1.78576416076923
C         1.70501348024721   -2.21117708723068   -1.88273454018245
O         0.55712905568603   -1.93718994710958   -2.55316716727565
C         0.00871751101630   -2.98353306488681   -3.32289891311925
O         2.72396269859998    1.06886387600874   -1.79018247635363
C         0.00252580958666    1.81378387625766   -0.79581802388685
C         0.48133076009922    3.20249077378297   -1.30955176615619
O         1.67194530605419    3.34212819941959   -1.80249751059388
O        -0.34299430025982    4.07900718586040   -1.29605353400310
N        -0.62441629848787    1.86203197497296    0.50265572112520
C        -0.43645349801230    2.70379900525982    1.56677189003220
C         0.41665096149356    3.89913751834969    1.37763490517367
C        -0.01900847457843    5.17267521303712    1.57410690882288
S         1.22976586983740    6.32377961021608    1.38761979438071
C         2.38904681510124    5.08720817989865    1.09377995651554
C         1.82113669315099    3.85022333891451    1.11040203072198
O         2.43497000312801    2.64567107290805    0.93703994574768
C         3.82709995087949    2.68211110470017    0.71896968375018
O        -0.97535444151240    2.46903779946782    2.62866419719516
H        -6.50243163028270    0.53317018710007   -1.83688134915139
H        -6.07519486853038    2.87736971248753   -2.47752902215143
H        -4.00227519532129    3.98993965769820   -1.70757032166963
H        -2.38040778356573    2.81448432767591   -0.39068598471098
H        -5.87607698472946   -1.46676256624598   -0.71056651678381
H        -4.29181647960178   -2.73036252753330    0.71246782444617
H        -2.16836011775660   -1.70809683285614    1.37008271154287
H        -1.02975646843219    0.38222696659677    1.86616878329265
H        -0.53894263963735   -1.02063143446758   -0.66958016920438
H         1.67171236553277    0.60616027047645    1.81085803136639
H         3.12283407331963   -0.55078373079358    3.40912383256312
H         3.12736923593702   -3.01965073476695    3.51235030294854
H        -0.87478064217324   -2.91464629497646   -0.30608686465928
H        -0.84759619969258   -5.33112936399609   -0.13085802071718
H         0.73096124765873   -6.47229911645263    1.38144343459367
H         2.27087058358997   -5.14210956352780    2.77383822273660
H         4.23912919481990   -1.03535238222000   -0.03270919596073
H         2.08457162744168   -4.35365215423705   -2.20014722661594
H        -0.27682655076972   -3.83046832983540   -2.69158784078815
H         0.71605064512740   -3.32357299500126   -4.08456544228369
H        -0.87529237608885   -2.56867735931747   -3.80364031660162
H        -0.80416957763693    1.57672837153948   -1.52242804119564
H         2.21002422383886    2.46171423458832   -1.82365466371781
H        -1.02071685715070    5.48749315344845    1.78421964522610
H         3.40906982353003    5.35809625248581    0.91600531079046
H         4.34642644558454    3.11781503714579    1.57807975894772
H         4.06794674945996    3.25157449892928   -0.18246245613517
H         4.13741021318626    1.64769212375576    0.58564151934316

          :  Hamiltonian                  GFN2-xTB          :
         :: total energy            -128.140443049610 Eh    ::
         :: gradient norm              0.000373532615 Eh/a0 ::
         :: HOMO-LUMO gap              2.671424372907 eV    ::
         :: SCC energy              -129.962449731180 Eh    ::
         :: -> dispersion             -0.124880985206 Eh    ::
         :: repulsion energy           1.816842927826 Eh    ::

    * Orbital Energies and Occupations

         #    Occupation            Energy/Eh            Energy/eV
      -------------------------------------------------------------
         1        2.0000           -0.7529171             -20.4879
       ...           ...                  ...                  ...
       103        2.0000           -0.4245177             -11.5517
       104        2.0000           -0.4204368             -11.4407
       105        2.0000           -0.4192648             -11.4088
       106        2.0000           -0.4172859             -11.3549
       107        2.0000           -0.4166100             -11.3365
       108        2.0000           -0.4048604             -11.0168
       109        2.0000           -0.4045420             -11.0081
       110        2.0000           -0.4005353             -10.8991
       111        2.0000           -0.3992069             -10.8630
       112        2.0000           -0.3932518             -10.7009
       113        2.0000           -0.3912177             -10.6456
       114        2.0000           -0.3801442             -10.3443
       115        2.0000           -0.3788709             -10.3096 (HOMO)
       116                         -0.2806978              -7.6382 (LUMO)
       117                         -0.2717878              -7.3957
       118                         -0.2648417              -7.2067
       119                         -0.2521700              -6.8619
       120                         -0.2469181              -6.7190
       121                         -0.2435029              -6.6261
       122                         -0.2330434              -6.3414
       123                         -0.2323490              -6.3225
       124                         -0.2223171              -6.0496
       125                         -0.2196722              -5.9776
       126                         -0.2097364              -5.7072
       ...                                ...                  ...
       222                          0.7048009              19.1786
      -------------------------------------------------------------
                  HL-Gap            0.0981730 Eh            2.6714 eV

     #   Z          covCN         q      C6AA      Î±(0)
     1   6 C        2.923    -0.035    28.878     8.813
     2   6 C        2.914    -0.028    28.696     8.784
     3   6 C        2.917    -0.027    28.673     8.781
     4   6 C        2.916    -0.040    29.000     8.831
     5   6 C        2.979     0.011    27.755     8.642
     6   6 C        2.989     0.013    27.712     8.635
     7   6 C        2.922    -0.037    28.922     8.819
     8   6 C        2.913    -0.032    28.796     8.799
     9   6 C        2.932    -0.042    29.054     8.840
    10   6 C        2.962    -0.007    28.188     8.708
    11   6 C        3.860     0.038    19.901     6.344
    12   6 C        3.837     0.032    20.014     6.364
    13   6 C        2.967    -0.009    28.238     8.716
    14   6 C        2.923    -0.038    28.941     8.822
    15   6 C        2.914    -0.029    28.714     8.787
    16   6 C        2.921    -0.036    28.887     8.814
    17   6 C        2.989     0.014    27.681     8.630
    18   6 C        2.982     0.005    27.906     8.665
    19   6 C        2.917    -0.038    28.945     8.822
    20   6 C        2.917    -0.030    28.751     8.793
    21   6 C        2.915    -0.029    28.731     8.790
    22   6 C        2.921    -0.032    28.805     8.801
    23   7 N        2.758    -0.100    23.204     7.154
    24   6 C        2.756     0.281    22.241     7.723
    25   6 C        3.169    -0.042    28.662     8.747
    26   6 C        2.940    -0.019    28.473     8.751
    27  16 S        2.308     0.015   140.428    19.945
    28   6 C        2.933    -0.069    29.717     8.940
    29   6 C        3.070     0.134    25.011     8.200
    30   8 O        1.704    -0.273    18.529     5.812
    31   6 C        3.652     0.035    20.282     6.468
    32   8 O        0.886    -0.446    22.603     6.375
    33   6 C        3.791     0.075    19.337     6.262
    34   6 C        2.683     0.366    20.800     7.464
    35   8 O        1.645    -0.384    20.550     6.119
    36   8 O        0.858    -0.400    21.687     6.244
    37   7 N        2.764    -0.109    23.384     7.182
    38   6 C        2.764     0.283    22.215     7.719
    39   6 C        3.170    -0.047    28.775     8.764
    40   6 C        2.941    -0.011    28.286     8.723
    41  16 S        2.314     0.020   140.251    19.932
    42   6 C        2.933    -0.066    29.652     8.930
    43   6 C        3.074     0.131    25.062     8.208
    44   8 O        1.704    -0.286    18.753     5.847
    45   6 C        3.653     0.040    20.197     6.454
    46   8 O        0.860    -0.417    22.014     6.291
    47   1 H        0.926     0.032     2.555     2.499
    48   1 H        0.926     0.033     2.539     2.492
    49   1 H        0.926     0.042     2.424     2.434
    50   1 H        0.926     0.052     2.291     2.367
    51   1 H        0.926     0.035     2.520     2.482
    52   1 H        0.926     0.033     2.549     2.497
    53   1 H        0.926     0.029     2.594     2.518
    54   1 H        0.924     0.085     1.929     2.172
    55   1 H        0.924     0.062     2.180     2.309
    56   1 H        0.926     0.050     2.315     2.379
    57   1 H        0.926     0.040     2.454     2.450
    58   1 H        0.926     0.040     2.452     2.449
    59   1 H        0.926     0.031     2.571     2.507
    60   1 H        0.926     0.030     2.592     2.518
    61   1 H        0.926     0.036     2.506     2.476
    62   1 H        0.926     0.039     2.467     2.456
    63   1 H        0.927     0.059     2.206     2.323
    64   1 H        0.927     0.055     2.255     2.348
    65   1 H        0.924     0.044     2.391     2.418
    66   1 H        0.924     0.047     2.358     2.402
    67   1 H        0.925     0.068     2.103     2.268
    68   1 H        0.921     0.070     2.081     2.256
    69   1 H        0.817     0.377     0.527     1.139
    70   1 H        0.927     0.067     2.115     2.274
    71   1 H        0.927     0.054     2.267     2.354
    72   1 H        0.924     0.041     2.437     2.441
    73   1 H        0.924     0.053     2.284     2.363
    74   1 H        0.925     0.058     2.218     2.329

Wiberg/Mayer (AO) data.
largest (>0.10) Wiberg bond orders for each atom

     #   Z sym  total        # sym  WBO       # sym  WBO       # sym  WBO
 ---------------------------------------------------------------------------
     1   6 C    3.991 --     2 C    1.558     6 C    1.278    47 H    0.968
                             4 C    0.119
     2   6 C    3.992 --     1 C    1.558     3 C    1.322    48 H    0.971
     3   6 C    3.990 --     4 C    1.554     2 C    1.322    49 H    0.970
     4   6 C    3.990 --     3 C    1.554     5 C    1.280    50 H    0.958
                             1 C    0.119
     5   6 C    3.988 --     4 C    1.280    10 C    1.264     6 C    1.244
     6   6 C    3.989 --     7 C    1.287     1 C    1.278     5 C    1.244
     7   6 C    3.991 --     8 C    1.543     6 C    1.287    51 H    0.968
                            10 C    0.116
     8   6 C    3.992 --     7 C    1.543     9 C    1.338    52 H    0.970
     9   6 C    3.990 --    10 C    1.509     8 C    1.338    53 H    0.967
    10   6 C    3.982 --     9 C    1.509     5 C    1.264    11 C    0.986
                             7 C    0.116
    11   6 C    3.958 --    10 C    0.986    37 N    0.974    54 H    0.943
                            12 C    0.936
    12   6 C    3.956 --    13 C    0.996    23 N    0.951    55 H    0.945
                            11 C    0.936
    13   6 C    3.984 --    14 C    1.513    18 C    1.253    12 C    0.996
                            16 C    0.115
    14   6 C    3.989 --    13 C    1.513    15 C    1.334    56 H    0.962
    15   6 C    3.992 --    16 C    1.547    14 C    1.334    57 H    0.970
    16   6 C    3.989 --    15 C    1.547    17 C    1.281    58 H    0.968
                            13 C    0.115
    17   6 C    3.990 --    16 C    1.281    22 C    1.278    18 C    1.252
    18   6 C    3.988 --    19 C    1.282    13 C    1.253    17 C    1.252
    19   6 C    3.992 --    20 C    1.554    18 C    1.282    59 H    0.959
                            22 C    0.118
    20   6 C    3.990 --    19 C    1.554    21 C    1.321    60 H    0.971
    21   6 C    3.992 --    22 C    1.558    20 C    1.321    61 H    0.971
    22   6 C    3.991 --    21 C    1.558    17 C    1.278    62 H    0.968
                            19 C    0.118
    23   7 N    3.525 --    24 C    1.318    12 C    0.951    33 C    0.942
                            32 O    0.189
    24   6 C    3.948 --    32 O    1.553    23 N    1.318    25 C    0.976
    25   6 C    3.977 --    26 C    1.583    29 C    1.175    24 C    0.976
                            27 S    0.101
    26   6 C    3.953 --    25 C    1.583    27 S    1.217    63 H    0.969
                            28 C    0.109
    27  16 S    2.646 --    26 C    1.217    28 C    1.171    25 C    0.101
    28   6 C    3.929 --    29 C    1.553    27 S    1.171    64 H    0.968
                            26 C    0.109
    29   6 C    3.936 --    28 C    1.553    25 C    1.175    30 O    1.057
    30   8 O    2.225 --    29 C    1.057    31 C    0.977
    31   6 C    3.939 --    67 H    0.980    66 H    0.978    30 O    0.977
                            65 H    0.976
    32   8 O    2.068 --    24 C    1.553    23 N    0.189    69 H    0.154
    33   6 C    3.943 --    37 N    0.991    23 N    0.942    68 H    0.924
                            34 C    0.903
    34   6 C    3.939 --    36 O    1.729    35 O    1.255    33 C    0.903
    35   8 O    2.234 --    34 C    1.255    69 H    0.679    36 O    0.186
    36   8 O    2.043 --    34 C    1.729    35 O    0.186
    37   7 N    3.461 --    38 C    1.180    33 C    0.991    11 C    0.974
                            46 O    0.179
    38   6 C    3.946 --    46 O    1.695    37 N    1.180    39 C    0.980
    39   6 C    3.978 --    40 C    1.586    43 C    1.177    38 C    0.980
    40   6 C    3.955 --    39 C    1.586    41 S    1.218    70 H    0.969
                            42 C    0.109
    41  16 S    2.648 --    40 C    1.218    42 C    1.173
    42   6 C    3.930 --    43 C    1.556    41 S    1.173    71 H    0.968
                            40 C    0.109
    43   6 C    3.934 --    42 C    1.556    39 C    1.177    44 O    1.043
    44   8 O    2.208 --    43 C    1.043    45 C    0.978
    45   6 C    3.940 --    74 H    0.980    44 O    0.978    72 H    0.978
                            73 H    0.976
    46   8 O    2.025 --    38 C    1.695    37 N    0.179
    47   1 H    0.998 --     1 C    0.968
    48   1 H    0.998 --     2 C    0.971
    49   1 H    0.998 --     3 C    0.970
    50   1 H    0.997 --     4 C    0.958
    51   1 H    0.998 --     7 C    0.968
    52   1 H    0.998 --     8 C    0.970
    53   1 H    0.999 --     9 C    0.967
    54   1 H    0.992 --    11 C    0.943
    55   1 H    0.996 --    12 C    0.945
    56   1 H    0.997 --    14 C    0.962
    57   1 H    0.997 --    15 C    0.970
    58   1 H    0.997 --    16 C    0.968
    59   1 H    0.999 --    19 C    0.959
    60   1 H    0.999 --    20 C    0.971
    61   1 H    0.998 --    21 C    0.971
    62   1 H    0.998 --    22 C    0.968
    63   1 H    0.996 --    26 C    0.969
    64   1 H    0.996 --    28 C    0.968
    65   1 H    0.998 --    31 C    0.976
    66   1 H    0.998 --    31 C    0.978
    67   1 H    0.995 --    31 C    0.980
    68   1 H    0.994 --    33 C    0.924
    69   1 H    0.857 --    35 O    0.679    32 O    0.154
    70   1 H    0.995 --    40 C    0.969
    71   1 H    0.996 --    42 C    0.968
    72   1 H    0.998 --    45 C    0.978
    73   1 H    0.997 --    45 C    0.976
    74   1 H    0.996 --    45 C    0.980
 ---------------------------------------------------------------------------

molecular dipole:
                 x           y           z       tot (Debye)
 q only:        0.536      -2.787      -0.447
   full:        0.503      -3.300      -0.695       8.666

           -------------------------------------------------
          | TOTAL ENERGY             -128.140443049610 Eh   |
          | GRADIENT NORM               0.000373532615 Eh/Î± |
          | HOMO-LUMO GAP               2.671424372907 eV   |
           -------------------------------------------------

 * finished run on 2022/03/16 at 23:43:50.689
