   * xtb version 6.3.3 (4ae9cef) compiled by 'conda@95abc7406d43' on 2020-10-14
          program call               : xtb acid_167.xyz --opt --chrg 0 --uhf 0 --gfn 2
          number of atoms            :                    66
          number of electrons        :                   218
          charge                     :                     0
          spin                       :                   0.0

   ID    Z sym.   atoms
    1    6 C      1-22, 24-26, 29, 30, 32, 33, 37-39, 42, 43
    2    7 N      23, 36
    3   35 Br     27, 40
    4    8 O      28, 31, 34, 35, 41, 44
    5    1 H      45-66

          :  Hamiltonian                  GFN2-xTB          :
 * total energy  :  -122.4368064 Eh     change       -0.9973320E-09 Eh
 * total energy  :  -122.4574845 Eh     change       -0.2067814E-01 Eh
 * total energy  :  -122.4635674 Eh     change       -0.6082890E-02 Eh
 * total energy  :  -122.4651303 Eh     change       -0.1562949E-02 Eh
 * total energy  :  -122.4662363 Eh     change       -0.1105933E-02 Eh
 * total energy  :  -122.4668950 Eh     change       -0.6587422E-03 Eh
 * total energy  :  -122.4675419 Eh     change       -0.6469116E-03 Eh
 * total energy  :  -122.4681687 Eh     change       -0.6267811E-03 Eh
 * total energy  :  -122.4687345 Eh     change       -0.5657871E-03 Eh
 * total energy  :  -122.4692260 Eh     change       -0.4915183E-03 Eh
 * total energy  :  -122.4759696 Eh     change       -0.2545371E-04 Eh
 * total energy  :  -122.4759793 Eh     change       -0.9724114E-05 Eh
 * total energy  :  -122.4759877 Eh     change       -0.8409185E-05 Eh
 * total energy  :  -122.4759943 Eh     change       -0.6593534E-05 Eh
 * total energy  :  -122.4760005 Eh     change       -0.6202517E-05 Eh
 * total energy  :  -122.4760061 Eh     change       -0.5576343E-05 Eh
 * total energy  :  -122.4760127 Eh     change       -0.6635315E-05 Eh
 * total energy  :  -122.4760211 Eh     change       -0.8448442E-05 Eh
 * total energy  :  -122.4760241 Eh     change       -0.2936150E-05 Eh
   *** GEOMETRY OPTIMIZATION CONVERGED AFTER 68 ITERATIONS ***

 final structure:
================
66
 xtb: 6.3.3 (4ae9cef)
C         5.07604847597905   -2.58645141576250   -0.43720550049847
C         4.54787509944069   -3.27692650081685   -1.48994607598842
C         3.26464821060775   -2.95962056910058   -1.95664016962263
C         2.53229426329725   -1.96722797551005   -1.36705781651170
C         3.03984519720358   -1.23928893777263   -0.26814753851537
C         4.34467248457594   -1.56140750025772    0.19909671048870
C         4.88893019774322   -0.86188296293939    1.29553995942566
C         4.16771709110505    0.11038872792653    1.92524763973098
C         2.87625914577833    0.42027235507331    1.48174939125017
C         2.31734048314688   -0.21644923667205    0.40293691708496
C         0.90730046409827    0.12101669497927   -0.01402697104442
C        -0.11117597456443   -0.75766979668298    0.73555957164810
C        -0.47418233046882   -2.01742006267143   -0.00393373659551
C        -0.02189507321692   -3.20540159284238    0.51392085550671
C        -0.25577485136430   -4.42292295830922   -0.13517404591558
C        -0.95506727005095   -4.44630652634061   -1.30659879307654
C        -1.43989102916286   -3.25189860652828   -1.87673624723699
C        -1.19268038691171   -2.00834880525703   -1.23050211623686
C        -1.67760855575522   -0.83634008073101   -1.85052409703467
C        -2.37595660981338   -0.88994608504219   -3.02497401779149
C        -2.62751065953916   -2.11783142886578   -3.65090364642669
C        -2.16438668860330   -3.27222988002289   -3.08709190479846
N        -1.21717247036620    0.15814983974700    1.00230379884302
C        -2.43856442570281   -0.29078493018314    1.38459988060286
C        -3.42708464398189    0.78470295252065    1.68182620769733
C        -4.47213775093941    1.18130740870542    0.89304485265417
Br       -4.94909086485664    0.69182955171862   -0.83560750383429
O        -5.21854373631842    2.11417438712444    1.50416181024380
C        -4.67483400971963    2.31053834426496    2.71962774181923
C        -3.57854884463998    1.52553807554142    2.88831998042120
O        -2.71529442456292   -1.46332310461386    1.47948643519249
C        -0.76166683327478    1.53028597053863    1.02571120312237
C        -1.71678271406594    2.46391509362127    0.25321740887949
O        -2.18029326950130    3.45540932999007    1.01936552310464
O        -1.98753929826554    2.33844961185720   -0.90489520078962
N         0.52305944425650    1.47705725362260    0.36339520344409
C         1.15172370097231    2.52460292785155   -0.23952523465525
C         0.70662658976557    3.86493023781102    0.21546910496793
C         0.34662320268974    4.91799265150259   -0.58290870298954
Br        0.09410785055925    5.02129616328474   -2.41987072490686
O         0.07901970193421    6.01272636417334    0.14243182010930
C         0.29848550495195    5.68826671298786    1.43039804021260
C         0.68144179053759    4.38981010243351    1.54010511121640
O         2.04446579655077    2.37062719302827   -1.04021014040600
H         6.06591090614880   -2.81584574585945   -0.06900025198792
H         5.11154305632373   -4.06364419602730   -1.96919447947830
H         2.85249293327598   -3.50548559348610   -2.79223781235906
H         1.55037866795253   -1.75145527875077   -1.75519438455101
H         5.88496170799019   -1.11386796170637    1.62962961284994
H         4.58006141834503    0.64521341443677    2.76801388891870
H         2.31915347223010    1.18689920428221    2.00137348133307
H         0.80327594926672    0.02290366151973   -1.09936212700750
H         0.32452084332109   -1.04742756847311    1.70478616732174
H         0.52950813255282   -3.20816947754880    1.44336874159023
H         0.11813930235830   -5.33564923219667    0.30365434128899
H        -1.15016368563042   -5.37923804354435   -1.81567435319236
H        -1.51138544592153    0.12845218197309   -1.40351461935882
H        -2.74014638719359    0.02379742243335   -3.46915195601832
H        -3.18545670076272   -2.14164539749769   -4.57510106104566
H        -2.34759964889021   -4.22741769276623   -3.55861731446435
H        -5.15647552369701    3.02077192265425    3.36052121949779
H        -2.95494572710838    1.46140589467701    3.75547490054838
H        -0.67281730145903    1.91012583593912    2.05977607919295
H        -2.76678604614661    4.03889255232295    0.50745520710610
H         0.15186223856898    6.45906304293035    2.15950324023712
H         0.93916785891037    3.86870906134896    2.43845749676743

          :  Hamiltonian                  GFN2-xTB          :
         :: total energy            -122.476024087191 Eh    ::
         :: gradient norm              0.000313715002 Eh/a0 ::
         :: HOMO-LUMO gap              2.321969293726 eV    ::
         :: SCC energy              -124.184898054865 Eh    ::
         :: -> dispersion             -0.110275430356 Eh    ::
         :: repulsion energy           1.705118799842 Eh    ::

    * Orbital Energies and Occupations

         #    Occupation            Energy/Eh            Energy/eV
      -------------------------------------------------------------
         1        2.0000           -0.8546357             -23.2558
       ...           ...                  ...                  ...
        97        2.0000           -0.4256123             -11.5815
        98        2.0000           -0.4247098             -11.5569
        99        2.0000           -0.4212661             -11.4632
       100        2.0000           -0.4168815             -11.3439
       101        2.0000           -0.4148255             -11.2880
       102        2.0000           -0.4134264             -11.2499
       103        2.0000           -0.4114480             -11.1961
       104        2.0000           -0.4109019             -11.1812
       105        2.0000           -0.4071393             -11.0788
       106        2.0000           -0.4060838             -11.0501
       107        2.0000           -0.3983139             -10.8387
       108        2.0000           -0.3846753             -10.4675
       109        2.0000           -0.3746293             -10.1942 (HOMO)
       110                         -0.2892985              -7.8722 (LUMO)
       111                         -0.2681853              -7.2977
       112                         -0.2669398              -7.2638
       113                         -0.2591767              -7.0526
       114                         -0.2584935              -7.0340
       115                         -0.2444854              -6.6528
       116                         -0.2411339              -6.5616
       117                         -0.2347122              -6.3868
       118                         -0.2262707              -6.1571
       119                         -0.2190913              -5.9618
       120                         -0.2166001              -5.8940
       ...                                ...                  ...
       208                          0.6980519              18.9950
      -------------------------------------------------------------
                  HL-Gap            0.0853308 Eh            2.3220 eV

     #   Z          covCN         q      C6AA      Î±(0)
     1   6 C        2.921    -0.033    28.834     8.806
     2   6 C        2.915    -0.027    28.686     8.783
     3   6 C        2.917    -0.027    28.664     8.780
     4   6 C        2.917    -0.034    28.838     8.806
     5   6 C        2.984     0.012    27.751     8.641
     6   6 C        2.988     0.017    27.623     8.621
     7   6 C        2.921    -0.035    28.863     8.810
     8   6 C        2.914    -0.030    28.750     8.792
     9   6 C        2.922    -0.033    28.814     8.803
    10   6 C        2.968     0.003    27.963     8.674
    11   6 C        3.826     0.046    19.784     6.329
    12   6 C        3.829     0.051    19.706     6.316
    13   6 C        2.966     0.006    27.890     8.662
    14   6 C        2.925    -0.030    28.739     8.791
    15   6 C        2.914    -0.028    28.702     8.785
    16   6 C        2.921    -0.033    28.815     8.803
    17   6 C        2.988     0.017    27.626     8.622
    18   6 C        2.983     0.014    27.692     8.632
    19   6 C        2.917    -0.038    28.949     8.823
    20   6 C        2.917    -0.025    28.633     8.775
    21   6 C        2.915    -0.027    28.677     8.781
    22   6 C        2.921    -0.033    28.824     8.804
    23   7 N        2.764    -0.113    23.464     7.194
    24   6 C        2.756     0.281    22.247     7.724
    25   6 C        3.101    -0.061    29.376     8.882
    26   6 C        3.080     0.181    24.052     8.040
    27  35 Br       0.990    -0.084   187.287    22.066
    28   8 O        1.764    -0.169    16.837     5.541
    29   6 C        3.071     0.069    26.383     8.422
    30   6 C        3.025    -0.059    29.449     8.901
    31   8 O        0.859    -0.396    21.608     6.232
    32   6 C        3.750     0.095    19.070     6.228
    33   6 C        2.688     0.348    21.083     7.514
    34   8 O        1.659    -0.381    20.490     6.111
    35   8 O        0.856    -0.364    20.977     6.141
    36   7 N        2.766    -0.119    23.589     7.213
    37   6 C        2.761     0.279    22.280     7.730
    38   6 C        3.100    -0.061    29.384     8.883
    39   6 C        3.082     0.186    23.959     8.024
    40  35 Br       0.991    -0.078   187.135    22.057
    41   8 O        1.765    -0.167    16.807     5.536
    42   6 C        3.071     0.069    26.375     8.421
    43   6 C        3.025    -0.061    29.494     8.908
    44   8 O        0.859    -0.396    21.601     6.231
    45   1 H        0.926     0.036     2.497     2.471
    46   1 H        0.926     0.036     2.505     2.475
    47   1 H        0.926     0.036     2.507     2.476
    48   1 H        0.926     0.032     2.551     2.498
    49   1 H        0.926     0.038     2.473     2.459
    50   1 H        0.926     0.034     2.524     2.484
    51   1 H        0.926     0.023     2.694     2.567
    52   1 H        0.924     0.073     2.052     2.240
    53   1 H        0.923     0.047     2.362     2.404
    54   1 H        0.926     0.028     2.611     2.527
    55   1 H        0.926     0.036     2.503     2.474
    56   1 H        0.926     0.038     2.482     2.464
    57   1 H        0.926     0.040     2.449     2.447
    58   1 H        0.926     0.044     2.399     2.422
    59   1 H        0.926     0.035     2.519     2.482
    60   1 H        0.926     0.034     2.533     2.489
    61   1 H        0.926     0.072     2.059     2.244
    62   1 H        0.927     0.057     2.238     2.339
    63   1 H        0.922     0.056     2.245     2.343
    64   1 H        0.804     0.348     0.593     1.210
    65   1 H        0.926     0.073     2.056     2.242
    66   1 H        0.927     0.054     2.273     2.357

Wiberg/Mayer (AO) data.
largest (>0.10) Wiberg bond orders for each atom

     #   Z sym  total        # sym  WBO       # sym  WBO       # sym  WBO
 ---------------------------------------------------------------------------
     1   6 C    3.991 --     2 C    1.557     6 C    1.279    45 H    0.968
                             4 C    0.119
     2   6 C    3.992 --     1 C    1.557     3 C    1.323    46 H    0.971
     3   6 C    3.992 --     4 C    1.554     2 C    1.323    47 H    0.971
     4   6 C    3.992 --     3 C    1.554     5 C    1.284    48 H    0.961
                             1 C    0.119
     5   6 C    3.989 --     4 C    1.284     6 C    1.253    10 C    1.252
     6   6 C    3.990 --     7 C    1.280     1 C    1.279     5 C    1.253
     7   6 C    3.990 --     8 C    1.553     6 C    1.280    49 H    0.968
                            10 C    0.114
     8   6 C    3.992 --     7 C    1.553     9 C    1.326    50 H    0.970
     9   6 C    3.990 --    10 C    1.525     8 C    1.326    51 H    0.968
    10   6 C    3.983 --     9 C    1.525     5 C    1.252    11 C    0.989
                             7 C    0.114
    11   6 C    3.955 --    10 C    0.989    36 N    0.952    12 C    0.952
                            52 H    0.944
    12   6 C    3.956 --    13 C    0.993    53 H    0.952    11 C    0.952
                            23 N    0.945
    13   6 C    3.981 --    14 C    1.519    18 C    1.251    12 C    0.993
                            16 C    0.114
    14   6 C    3.989 --    13 C    1.519    15 C    1.327    54 H    0.967
    15   6 C    3.992 --    16 C    1.552    14 C    1.327    55 H    0.970
    16   6 C    3.990 --    15 C    1.552    17 C    1.280    56 H    0.968
                            13 C    0.114
    17   6 C    3.990 --    22 C    1.281    16 C    1.280    18 C    1.250
    18   6 C    3.989 --    19 C    1.286    13 C    1.251    17 C    1.250
    19   6 C    3.991 --    20 C    1.550    18 C    1.286    57 H    0.960
                            22 C    0.118
    20   6 C    3.991 --    19 C    1.550    21 C    1.325    58 H    0.970
    21   6 C    3.992 --    22 C    1.555    20 C    1.325    59 H    0.971
    22   6 C    3.991 --    21 C    1.555    17 C    1.281    60 H    0.968
                            19 C    0.118
    23   7 N    3.466 --    24 C    1.212    32 C    0.984    12 C    0.945
                            31 O    0.199
    24   6 C    3.954 --    31 O    1.707    23 N    1.212    25 C    0.959
    25   6 C    3.973 --    26 C    1.515    30 C    1.251    24 C    0.959
    26   6 C    3.887 --    25 C    1.515    28 O    1.131    27 Br   1.028
                            29 C    0.132
    27  35 Br   1.197 --    26 C    1.028
    28   8 O    2.453 --    26 C    1.131    29 C    1.119
    29   6 C    3.899 --    30 C    1.617    28 O    1.119    61 H    0.963
                            26 C    0.132
    30   6 C    3.981 --    29 C    1.617    25 C    1.251    62 H    0.972
    31   8 O    2.050 --    24 C    1.707    23 N    0.199
    32   6 C    3.973 --    23 N    0.984    36 N    0.984    63 H    0.944
                            33 C    0.913
    33   6 C    3.922 --    35 O    1.791    34 O    1.135    32 C    0.913
    34   8 O    2.198 --    33 C    1.135    64 H    0.853    35 O    0.179
    35   8 O    2.087 --    33 C    1.791    34 O    0.179
    36   7 N    3.448 --    37 C    1.192    32 C    0.984    11 C    0.952
                            44 O    0.191
    37   6 C    3.954 --    44 O    1.707    36 N    1.192    38 C    0.979
    38   6 C    3.974 --    39 C    1.507    43 C    1.245    37 C    0.979
    39   6 C    3.889 --    38 C    1.507    41 O    1.136    40 Br   1.031
                            42 C    0.129
    40  35 Br   1.198 --    39 C    1.031
    41   8 O    2.456 --    39 C    1.136    42 C    1.117
    42   6 C    3.899 --    43 C    1.622    41 O    1.117    65 H    0.963
                            39 C    0.129
    43   6 C    3.982 --    42 C    1.622    38 C    1.245    66 H    0.971
    44   8 O    2.046 --    37 C    1.707    36 N    0.191
    45   1 H    0.998 --     1 C    0.968
    46   1 H    0.998 --     2 C    0.971
    47   1 H    0.998 --     3 C    0.971
    48   1 H    0.998 --     4 C    0.961
    49   1 H    0.997 --     7 C    0.968
    50   1 H    0.998 --     8 C    0.970
    51   1 H    0.999 --     9 C    0.968
    52   1 H    0.994 --    11 C    0.944
    53   1 H    0.997 --    12 C    0.952
    54   1 H    0.999 --    14 C    0.967
    55   1 H    0.998 --    15 C    0.970
    56   1 H    0.998 --    16 C    0.968
    57   1 H    0.998 --    19 C    0.960
    58   1 H    0.998 --    20 C    0.970
    59   1 H    0.998 --    21 C    0.971
    60   1 H    0.998 --    22 C    0.968
    61   1 H    0.994 --    29 C    0.963
    62   1 H    0.997 --    30 C    0.972
    63   1 H    0.997 --    32 C    0.944
    64   1 H    0.878 --    34 O    0.853
    65   1 H    0.994 --    42 C    0.963
    66   1 H    0.997 --    43 C    0.971
 ---------------------------------------------------------------------------

molecular dipole:
                 x           y           z       tot (Debye)
 q only:        0.327       0.394       1.763
   full:        0.338       0.847       2.955       7.859

           -------------------------------------------------
          | TOTAL ENERGY             -122.476024087191 Eh   |
          | GRADIENT NORM               0.000313715002 Eh/Î± |
          | HOMO-LUMO GAP               2.321969293726 eV   |
           -------------------------------------------------

 * finished run on 2022/03/16 at 22:01:00.087
