   * xtb version 6.3.3 (4ae9cef) compiled by 'conda@95abc7406d43' on 2020-10-14
          program call               : xtb acid_452.xyz --opt --chrg 0 --uhf 0 --gfn 2
          number of atoms            :                    60
          number of electrons        :                   242
          charge                     :                     0
          spin                       :                   0.0

   ID    Z sym.   atoms
    1    6 C      1, 2, 6-15, 19-22, 24-26, 29, 31, 33, 34, 38-40, 43, 45
    2    9 F      3-5, 16-18
    3    7 N      23, 37
    4   17 Cl     27, 30, 41, 44
    5   16 S      28, 42
    6    8 O      32, 35, 36, 46
    7    1 H      47-60

          :  Hamiltonian                  GFN2-xTB          :
 * total energy  :  -142.3439150 Eh     change       -0.7934375E-08 Eh
 * total energy  :  -142.3599237 Eh     change       -0.1600868E-01 Eh
 * total energy  :  -142.3656858 Eh     change       -0.5762039E-02 Eh
 * total energy  :  -142.3673101 Eh     change       -0.1624319E-02 Eh
 * total energy  :  -142.3681717 Eh     change       -0.8616585E-03 Eh
 * total energy  :  -142.3686558 Eh     change       -0.4840449E-03 Eh
 * total energy  :  -142.3690923 Eh     change       -0.4365080E-03 Eh
 * total energy  :  -142.3695077 Eh     change       -0.4154453E-03 Eh
 * total energy  :  -142.3698407 Eh     change       -0.3329368E-03 Eh
 * total energy  :  -142.3700296 Eh     change       -0.1888819E-03 Eh
 * total energy  :  -142.3708267 Eh     change       -0.7786195E-05 Eh
 * total energy  :  -142.3708485 Eh     change       -0.2184755E-04 Eh
 * total energy  :  -142.3708602 Eh     change       -0.1162391E-04 Eh
 * total energy  :  -142.3708760 Eh     change       -0.1583158E-04 Eh
 * total energy  :  -142.3708849 Eh     change       -0.8928211E-05 Eh
 * total energy  :  -142.3708927 Eh     change       -0.7725918E-05 Eh
 * total energy  :  -142.3709011 Eh     change       -0.8421411E-05 Eh
 * total energy  :  -142.3709063 Eh     change       -0.5224910E-05 Eh
 * total energy  :  -142.3709110 Eh     change       -0.4662461E-05 Eh
   *** GEOMETRY OPTIMIZATION CONVERGED AFTER 32 ITERATIONS ***

 final structure:
================
60
 xtb: 6.3.3 (4ae9cef)
C         1.02167029517781   -3.06524514908175   -0.36354071053065
C         0.71369331483249   -3.10213903452316   -1.83541907389923
F         0.66642749473980   -4.34535550789607   -2.32734382769892
F        -0.49682007207668   -2.55729018964733   -2.11714790337767
F         1.59219782615072   -2.43345304521063   -2.59437733043210
C         1.29044759224566   -4.26122164067567    0.28961260242090
C         1.55184412038721   -4.27168080721040    1.64656036165121
C         1.53933429626580   -3.08538420368425    2.35840807748439
C         1.27276023847373   -1.89575058208839    1.70896231501956
C         1.01858964387948   -1.86300307734159    0.34310225181771
C         0.74484310718809   -0.52877770527522   -0.30171051072546
C        -0.60702375933792    0.08899226319400    0.13878546678391
C        -1.65711662181369   -0.05655808852219   -0.93754482785762
C        -2.71770129866366   -0.96274752271040   -0.86032200256032
C        -2.86942196254526   -1.90113039445040    0.30523647971214
F        -3.93208035877108   -2.70147027206794    0.19974711671316
F        -1.80501078392986   -2.70801444677553    0.46998464120075
F        -3.01422896632822   -1.26185390325992    1.48824335981205
C        -3.64026611930377   -1.05275490147848   -1.89610605718639
C        -3.51048908148785   -0.25939555621763   -3.02025674282344
C        -2.44701467512933    0.61920231180917   -3.11988590941963
C        -1.53513281165591    0.71781681183118   -2.08598766771160
N        -0.27424806563475    1.48978951856088    0.37275942907208
C        -1.10745871435284    2.46341852583367    0.77934560924863
C        -2.47867086389613    2.04451439458046    1.17211729145529
C        -3.59304112477737    2.29253594956717    0.42352877845663
Cl       -3.63591458766396    3.00510984880915   -1.12274555126808
S        -5.04652363956912    1.76719430748998    1.21097628809262
C        -4.12183432170329    1.25507183113691    2.59015501600654
Cl       -4.88339399181412    0.56840665793979    3.94311862815678
C        -2.78759475076611    1.45637213896514    2.42504969891107
O        -0.74035344187286    3.63046837386289    0.84047742162836
C         1.14002705522233    1.76204357827985    0.17395879886263
C         1.41701992940589    2.55768910415829   -1.14730122500336
O         0.94902949543967    3.78428920964780   -1.15723832443391
O         2.03014609534263    2.05983839216744   -2.04621135133360
N         1.73044962157194    0.45546285883832    0.13746814871144
C         3.05814252996439    0.20038079791081   -0.09247905000440
C         3.96972757063903    1.33744815992738    0.21213734905507
C         4.90880663991539    1.78083189914333   -0.67808258970828
Cl        5.14691100203105    1.21572774894595   -2.25500668975542
S         5.85221275952841    3.09179005783436   -0.03996519949491
C         4.98428810632522    2.99450911328471    1.46404998880631
Cl        5.36383611225996    4.02829237588646    2.76457130484341
C         4.02399444581589    2.03367379770470    1.44874448210032
O         3.44568911537323   -0.88547720098546   -0.44923149352228
H         1.29433142770352   -5.18389730633800   -0.26892734686037
H         1.76316660877351   -5.20477808077727    2.14451710259138
H         1.73875478929788   -3.08541330168457    3.41914051660785
H         1.27473603622246   -0.96863939293471    2.26321639502914
H         0.78163076040357   -0.60084547901010   -1.39441336451341
H        -0.93243969373220   -0.36189850620160    1.08129122342721
H        -4.45550207693513   -1.75500786822010   -1.82277068967697
H        -4.23028813635932   -0.34012333582130   -3.81902845916456
H        -2.32101776724226    1.22815179426753   -4.00136013536068
H        -0.70643080397147    1.40311204743364   -2.17949192965024
H        -2.05364032957770    1.20900190972640    3.16873361934268
H         1.51946063170220    2.36877835591748    1.01078419301586
H         0.38483568354529    3.99266577191256   -0.36041702971366
H         3.41165247508836    1.79672559354086    2.29952603764871

          :  Hamiltonian                  GFN2-xTB          :
         :: total energy            -142.370910967179 Eh    ::
         :: gradient norm              0.000519793897 Eh/a0 ::
         :: HOMO-LUMO gap              2.799392502379 eV    ::
         :: SCC energy              -143.723846083021 Eh    ::
         :: -> dispersion             -0.107933660933 Eh    ::
         :: repulsion energy           1.348507038471 Eh    ::

    * Orbital Energies and Occupations

         #    Occupation            Energy/Eh            Energy/eV
      -------------------------------------------------------------
         1        2.0000           -1.0953393             -29.8057
       ...           ...                  ...                  ...
       109        2.0000           -0.4512830             -12.2800
       110        2.0000           -0.4487735             -12.2117
       111        2.0000           -0.4470323             -12.1644
       112        2.0000           -0.4464488             -12.1485
       113        2.0000           -0.4454639             -12.1217
       114        2.0000           -0.4443521             -12.0914
       115        2.0000           -0.4415674             -12.0157
       116        2.0000           -0.4338142             -11.8047
       117        2.0000           -0.4309766             -11.7275
       118        2.0000           -0.4217585             -11.4766
       119        2.0000           -0.4171423             -11.3510
       120        2.0000           -0.4162555             -11.3269
       121        2.0000           -0.4005871             -10.9005 (HOMO)
       122                         -0.2977113              -8.1011 (LUMO)
       123                         -0.2860412              -7.7836
       124                         -0.2838209              -7.7232
       125                         -0.2793307              -7.6010
       126                         -0.2759204              -7.5082
       127                         -0.2696569              -7.3377
       128                         -0.2676991              -7.2845
       129                         -0.2618392              -7.1250
       130                         -0.2569391              -6.9917
       131                         -0.2555753              -6.9546
       132                         -0.2420758              -6.5872
       ...                                ...                  ...
       228                          0.6534777              17.7820
      -------------------------------------------------------------
                  HL-Gap            0.1028758 Eh            2.7994 eV

     #   Z          covCN         q      C6AA      Î±(0)
     1   6 C        2.976    -0.018    28.464     8.751
     2   6 C        3.335     0.486    17.290     6.587
     3   9 F        0.792    -0.198    11.216     3.956
     4   9 F        0.791    -0.228    11.527     4.011
     5   9 F        0.791    -0.196    11.198     3.953
     6   6 C        2.923    -0.017    28.426     8.743
     7   6 C        2.921    -0.019    28.486     8.752
     8   6 C        2.919    -0.016    28.420     8.742
     9   6 C        2.927    -0.025    28.632     8.775
    10   6 C        2.973     0.024    27.460     8.596
    11   6 C        3.834     0.051    19.698     6.314
    12   6 C        3.814     0.035    19.968     6.360
    13   6 C        2.970     0.006    27.885     8.662
    14   6 C        2.975    -0.031    28.774     8.799
    15   6 C        3.336     0.485    17.303     6.589
    16   9 F        0.792    -0.193    11.164     3.947
    17   9 F        0.791    -0.213    11.368     3.983
    18   9 F        0.791    -0.221    11.459     3.999
    19   6 C        2.923    -0.019    28.482     8.752
    20   6 C        2.920    -0.018    28.447     8.746
    21   6 C        2.918    -0.012    28.305     8.724
    22   6 C        2.927    -0.023    28.582     8.768
    23   7 N        2.765    -0.101    23.212     7.156
    24   6 C        2.762     0.279    22.275     7.729
    25   6 C        3.171    -0.040    28.611     8.738
    26   6 C        2.904     0.085    26.113     8.379
    27  17 Cl       1.011    -0.108   102.538    15.492
    28  16 S        2.452     0.071   138.205    19.786
    29   6 C        2.903     0.096    25.870     8.340
    30  17 Cl       1.017    -0.092   102.037    15.454
    31   6 C        3.115    -0.059    29.297     8.866
    32   8 O        0.860    -0.435    22.393     6.345
    33   6 C        3.761     0.071    19.431     6.284
    34   6 C        2.683     0.348    21.088     7.515
    35   8 O        1.655    -0.361    20.112     6.054
    36   8 O        0.856    -0.362    20.940     6.135
    37   7 N        2.766    -0.120    23.617     7.218
    38   6 C        2.763     0.289    22.094     7.698
    39   6 C        3.170    -0.048    28.806     8.768
    40   6 C        2.902     0.100    25.785     8.326
    41  17 Cl       1.018    -0.070   101.350    15.402
    42  16 S        2.447     0.065   138.419    19.802
    43   6 C        2.901     0.088    26.036     8.366
    44  17 Cl       1.010    -0.112   102.669    15.502
    45   6 C        3.110    -0.069    29.569     8.909
    46   8 O        0.859    -0.389    21.459     6.211
    47   1 H        0.926     0.073     2.053     2.241
    48   1 H        0.926     0.062     2.178     2.308
    49   1 H        0.926     0.058     2.221     2.331
    50   1 H        0.926     0.047     2.358     2.401
    51   1 H        0.924     0.073     2.055     2.242
    52   1 H        0.924     0.068     2.105     2.269
    53   1 H        0.926     0.074     2.041     2.234
    54   1 H        0.926     0.066     2.126     2.280
    55   1 H        0.926     0.067     2.117     2.275
    56   1 H        0.926     0.055     2.258     2.350
    57   1 H        0.926     0.080     1.976     2.198
    58   1 H        0.923     0.075     2.030     2.228
    59   1 H        0.800     0.368     0.548     1.163
    60   1 H        0.926     0.068     2.104     2.268

Wiberg/Mayer (AO) data.
largest (>0.10) Wiberg bond orders for each atom

     #   Z sym  total        # sym  WBO       # sym  WBO       # sym  WBO
 ---------------------------------------------------------------------------
     1   6 C    3.972 --     6 C    1.415    10 C    1.387     2 C    0.951
                             8 C    0.105
     2   6 C    3.824 --     3 F    0.958     5 F    0.953     1 C    0.951
                             4 F    0.923
     3   9 F    1.081 --     2 C    0.958
     4   9 F    1.050 --     2 C    0.923
     5   9 F    1.085 --     2 C    0.953
     6   6 C    3.986 --     7 C    1.442     1 C    1.415    47 H    0.965
                             9 C    0.109
     7   6 C    3.988 --     6 C    1.442     8 C    1.434    48 H    0.968
                            10 C    0.109
     8   6 C    3.990 --     9 C    1.447     7 C    1.434    49 H    0.969
                             1 C    0.105
     9   6 C    3.990 --     8 C    1.447    10 C    1.410    50 H    0.967
                             6 C    0.109
    10   6 C    3.986 --     9 C    1.410     1 C    1.387    11 C    0.995
                             7 C    0.109
    11   6 C    3.965 --    10 C    0.995    37 N    0.957    51 H    0.952
                            12 C    0.950
    12   6 C    3.963 --    13 C    0.992    23 N    0.958    52 H    0.952
                            11 C    0.950
    13   6 C    3.986 --    22 C    1.415    14 C    1.382    12 C    0.992
                            20 C    0.108
    14   6 C    3.969 --    19 C    1.414    13 C    1.382    15 C    0.951
                            21 C    0.106
    15   6 C    3.821 --    16 F    0.963    14 C    0.951    17 F    0.940
                            18 F    0.928
    16   9 F    1.087 --    15 C    0.963
    17   9 F    1.068 --    15 C    0.940
    18   9 F    1.057 --    15 C    0.928
    19   6 C    3.986 --    20 C    1.441    14 C    1.414    53 H    0.964
                            22 C    0.108
    20   6 C    3.987 --    19 C    1.441    21 C    1.436    54 H    0.968
                            13 C    0.108
    21   6 C    3.988 --    22 C    1.442    20 C    1.436    55 H    0.967
                            14 C    0.106
    22   6 C    3.989 --    21 C    1.442    13 C    1.415    56 H    0.964
                            19 C    0.108
    23   7 N    3.506 --    24 C    1.269    33 C    0.967    12 C    0.958
                            32 O    0.192
    24   6 C    3.951 --    32 O    1.614    23 N    1.269    25 C    0.964
    25   6 C    3.975 --    26 C    1.529    31 C    1.230    24 C    0.964
    26   6 C    3.891 --    25 C    1.529    28 S    1.155    27 Cl   1.023
    27  17 Cl   1.187 --    26 C    1.023
    28  16 S    2.624 --    26 C    1.155    29 C    1.149
    29   6 C    3.898 --    31 C    1.572    28 S    1.149    30 Cl   1.033
    30  17 Cl   1.199 --    29 C    1.033
    31   6 C    3.975 --    29 C    1.572    25 C    1.230    57 H    0.958
    32   8 O    2.034 --    24 C    1.614    23 N    0.192
    33   6 C    3.955 --    37 N    1.001    23 N    0.967    58 H    0.936
                            34 C    0.879
    34   6 C    3.932 --    36 O    1.779    35 O    1.211    33 C    0.879
    35   8 O    2.246 --    34 C    1.211    59 H    0.768    36 O    0.185
    36   8 O    2.090 --    34 C    1.779    35 O    0.185
    37   7 N    3.421 --    38 C    1.163    33 C    1.001    11 C    0.957
                            46 O    0.179
    38   6 C    3.949 --    46 O    1.724    37 N    1.163    39 C    0.970
    39   6 C    3.974 --    40 C    1.520    45 C    1.225    38 C    0.970
    40   6 C    3.903 --    39 C    1.520    42 S    1.152    41 Cl   1.054
    41  17 Cl   1.237 --    40 C    1.054
    42  16 S    2.621 --    40 C    1.152    43 C    1.147
    43   6 C    3.892 --    45 C    1.578    42 S    1.147    44 Cl   1.018
    44  17 Cl   1.172 --    43 C    1.018
    45   6 C    3.976 --    43 C    1.578    39 C    1.225    60 H    0.959
    46   8 O    2.055 --    38 C    1.724    37 N    0.179
    47   1 H    0.994 --     6 C    0.965
    48   1 H    0.995 --     7 C    0.968
    49   1 H    0.996 --     8 C    0.969
    50   1 H    0.997 --     9 C    0.967
    51   1 H    0.994 --    11 C    0.952
    52   1 H    0.995 --    12 C    0.952
    53   1 H    0.994 --    19 C    0.964
    54   1 H    0.995 --    20 C    0.968
    55   1 H    0.995 --    21 C    0.967
    56   1 H    0.997 --    22 C    0.964
    57   1 H    0.994 --    31 C    0.958
    58   1 H    0.994 --    33 C    0.936
    59   1 H    0.864 --    35 O    0.768
    60   1 H    0.995 --    45 C    0.959
 ---------------------------------------------------------------------------

molecular dipole:
                 x           y           z       tot (Debye)
 q only:       -1.324       0.043       1.399
   full:       -1.573      -0.032       1.553       5.619

           -------------------------------------------------
          | TOTAL ENERGY             -142.370910967179 Eh   |
          | GRADIENT NORM               0.000519793897 Eh/Î± |
          | HOMO-LUMO GAP               2.799392502379 eV   |
           -------------------------------------------------

 * finished run on 2022/03/17 at 01:23:38.639
