   * xtb version 6.3.3 (4ae9cef) compiled by 'conda@95abc7406d43' on 2020-10-14
          program call               : xtb acid_193.xyz --opt --chrg 0 --uhf 0 --gfn 2
          number of atoms            :                    68
          number of electrons        :                   206
          charge                     :                     0
          spin                       :                   0.0

   ID    Z sym.   atoms
    1    6 C      1, 3-16, 18, 20-22, 24-26, 28, 29, 33-35, 37-39
    2    8 O      2, 17, 23, 27, 30, 31, 36, 40
    3    7 N      19, 32
    4    1 H      41-68

          :  Hamiltonian                  GFN2-xTB          :
 * total energy  :  -116.9139879 Eh     change       -0.2925105E-08 Eh
 * total energy  :  -116.9280012 Eh     change       -0.1401333E-01 Eh
 * total energy  :  -116.9317381 Eh     change       -0.3736963E-02 Eh
 * total energy  :  -116.9331054 Eh     change       -0.1367264E-02 Eh
 * total energy  :  -116.9339972 Eh     change       -0.8917855E-03 Eh
 * total energy  :  -116.9346418 Eh     change       -0.6446452E-03 Eh
 * total energy  :  -116.9351458 Eh     change       -0.5039138E-03 Eh
 * total energy  :  -116.9357314 Eh     change       -0.5856493E-03 Eh
 * total energy  :  -116.9363520 Eh     change       -0.6206384E-03 Eh
 * total energy  :  -116.9369277 Eh     change       -0.5756951E-03 Eh
 * total energy  :  -116.9467185 Eh     change       -0.1001823E-04 Eh
 * total energy  :  -116.9467268 Eh     change       -0.8281193E-05 Eh
 * total energy  :  -116.9467341 Eh     change       -0.7276418E-05 Eh
 * total energy  :  -116.9467405 Eh     change       -0.6444757E-05 Eh
 * total energy  :  -116.9467472 Eh     change       -0.6682027E-05 Eh
 * total energy  :  -116.9467553 Eh     change       -0.8029702E-05 Eh
 * total energy  :  -116.9467642 Eh     change       -0.8928464E-05 Eh
 * total energy  :  -116.9467711 Eh     change       -0.6917937E-05 Eh
 * total energy  :  -116.9467754 Eh     change       -0.4341693E-05 Eh
   *** GEOMETRY OPTIMIZATION CONVERGED AFTER 90 ITERATIONS ***

 final structure:
================
68
 xtb: 6.3.3 (4ae9cef)
C         1.35549995848527   -3.28484246969607    0.84839505174098
O         0.07137611450118   -3.71345333423219    0.68560656828617
C        -0.25128173916700   -5.03838958334232    1.03160980389481
C         2.38579684535506   -4.04646674498494    1.38180937745856
C         3.65731898306321   -3.50717729542017    1.49926818036450
C         3.91216022079808   -2.21607123596604    1.08256299964574
C         2.88615280478029   -1.45190732920222    0.54820419762495
C         1.60927852018367   -1.96728830028420    0.43336999448054
C         0.45266299182401   -1.18978936881073   -0.14575878756698
C        -0.58734735442509   -0.79383303025370    0.93573575186215
C        -1.94348206639363   -1.39354275840610    0.68335620370194
C        -2.50487331246283   -2.26681007120283    1.59688318094497
C        -3.73353662784756   -2.85622404253513    1.35728743699503
C        -4.41410656736004   -2.55814257980422    0.19299190137580
C        -3.87447484965578   -1.67835732995922   -0.72979231729580
C        -2.63856456689403   -1.09027857832495   -0.49603498400441
O        -2.03197280377126   -0.21127378760419   -1.35079044886203
C        -2.57724268350722   -0.04827330989403   -2.63776959672065
N        -0.61228851261584    0.67042216706882    0.87983598012439
C        -1.65967115263582    1.40181200026534    1.36198787989551
C        -1.66292808754596    2.82772966551010    0.94554839499940
C        -2.06921628734186    3.33157605488294   -0.25647209434991
O        -2.00061533276606    4.66833548358103   -0.25660896463718
C        -1.54832790485314    5.04131771249202    0.95355159943528
C        -1.32414958296184    3.95882908729670    1.75108981044161
C        -0.82791289619497    3.92671583569997    3.15283309335806
O        -2.48555632943618    0.92869718102602    2.11162950407221
C         0.46647762908898    1.17510343779118    0.06879379943417
C         1.66420767694162    1.64779083327142    0.94746569955040
O         1.47318387767178    1.56400584836742    2.25922326396623
O         2.67332678195232    2.07045033338580    0.46553322648547
N         0.84067711672988    0.06417069308299   -0.76192747758859
C         1.16807870101127    0.11751689165916   -2.08280626368165
C         1.46720274772459    1.47678887675988   -2.59972664836386
C         0.61404237007967    2.44876365443534   -3.03471305423407
O         1.29463615788243    3.51530974073702   -3.47824109861790
C         2.60321683886054    3.23498716494470   -3.33195074809331
C         2.78490987434844    1.99438009848113   -2.80092082420903
C         4.05363096621976    1.30515528565001   -2.45394631594735
O         1.26829076503214   -0.88601727098153   -2.75433937552387
H        -1.31041655052792   -5.14619502708327    0.80264084049927
H         0.32468814455165   -5.75962467426974    0.44363491315402
H        -0.09111558808601   -5.22695359485893    2.09807547042439
H         2.21143735690794   -5.06109742043083    1.70293984448190
H         4.44983319960384   -4.11105353207005    1.91512110151209
H         4.90363598833781   -1.79960635428800    1.16613581313499
H         3.09143480628229   -0.45010407397955    0.20617361860601
H        -0.01490735391959   -1.81524878169937   -0.91494931038924
H        -0.24067803943573   -1.12109907583589    1.92484131388380
H        -1.96923224986022   -2.48804109807338    2.50733361767674
H        -4.15804238613338   -3.53744728025274    2.07853754087446
H        -5.37648652474669   -3.00582301805836   -0.00555978200775
H        -4.42896269363838   -1.45276635952919   -1.62677721188534
H        -3.53232991506467    0.48720594498738   -2.60648527670945
H        -1.84689605824817    0.53536068050396   -3.19683877733399
H        -2.71470445737179   -1.01067057425151   -3.13843031581892
H        -2.43354976936851    2.84534642361456   -1.13932023400231
H        -1.43137938708548    6.09095582474335    1.13427156005383
H         0.23164578564845    3.67129917068769    3.18140839301300
H        -0.95707181730049    4.89965047052220    3.61872023071732
H        -1.37846353195546    3.18166419596409    3.72391998382663
H         0.16561608435870    2.03398117085411   -0.54392360920851
H         0.59719339045339    1.19205285971585    2.46906806375632
H        -0.45606166692626    2.49380140646602   -3.09011723959567
H         3.30357901290029    3.98536026459699   -3.63920235844198
H         4.23004814080175    1.39226666840716   -1.38228107033038
H         3.98743680317720    0.24954693435622   -2.70903702023744
H         4.88916599192957    1.75552122375744   -2.98267500008533

          :  Hamiltonian                  GFN2-xTB          :
         :: total energy            -116.946775441599 Eh    ::
         :: gradient norm              0.000302790020 Eh/a0 ::
         :: HOMO-LUMO gap              3.366585215809 eV    ::
         :: SCC energy              -118.488353708424 Eh    ::
         :: -> dispersion             -0.095931219978 Eh    ::
         :: repulsion energy           1.537682562392 Eh    ::

    * Orbital Energies and Occupations

         #    Occupation            Energy/Eh            Energy/eV
      -------------------------------------------------------------
         1        2.0000           -0.7700303             -20.9536
       ...           ...                  ...                  ...
        91        2.0000           -0.4318883             -11.7523
        92        2.0000           -0.4307283             -11.7207
        93        2.0000           -0.4216445             -11.4735
        94        2.0000           -0.4173978             -11.3580
        95        2.0000           -0.4129735             -11.2376
        96        2.0000           -0.4094009             -11.1404
        97        2.0000           -0.4055840             -11.0365
        98        2.0000           -0.4039248             -10.9914
        99        2.0000           -0.4010820             -10.9140
       100        2.0000           -0.3963869             -10.7862
       101        2.0000           -0.3908571             -10.6358
       102        2.0000           -0.3875127             -10.5448
       103        2.0000           -0.3840141             -10.4496 (HOMO)
       104                         -0.2602944              -7.0830 (LUMO)
       105                         -0.2410166              -6.5584
       106                         -0.2348079              -6.3894
       107                         -0.2277785              -6.1982
       108                         -0.2242907              -6.1033
       109                         -0.2227966              -6.0626
       110                         -0.2207720              -6.0075
       111                         -0.2204218              -5.9980
       112                         -0.2124063              -5.7799
       113                         -0.1782012              -4.8491
       114                         -0.1647177              -4.4822
       ...                                ...                  ...
       188                          0.6864091              18.6781
      -------------------------------------------------------------
                  HL-Gap            0.1237197 Eh            3.3666 eV

     #   Z          covCN         q      C6AA      Î±(0)
     1   6 C        2.870     0.137    25.017     8.199
     2   8 O        1.705    -0.276    18.585     5.821
     3   6 C        3.643     0.036    20.302     6.477
     4   6 C        2.917    -0.066    29.646     8.929
     5   6 C        2.921    -0.032    28.788     8.799
     6   6 C        2.918    -0.039    28.973     8.827
     7   6 C        2.922    -0.034    28.849     8.808
     8   6 C        2.971    -0.022    28.545     8.764
     9   6 C        3.829     0.044    19.821     6.335
    10   6 C        3.819     0.051    19.703     6.317
    11   6 C        2.972    -0.005    28.153     8.703
    12   6 C        2.925    -0.023    28.585     8.768
    13   6 C        2.918    -0.038    28.949     8.823
    14   6 C        2.921    -0.030    28.741     8.792
    15   6 C        2.918    -0.063    29.580     8.919
    16   6 C        2.868     0.142    24.898     8.179
    17   8 O        1.705    -0.284    18.716     5.841
    18   6 C        3.644     0.042    20.209     6.462
    19   7 N        2.761    -0.132    23.868     7.256
    20   6 C        2.755     0.273    22.376     7.746
    21   6 C        3.080    -0.064    29.497     8.904
    22   6 C        3.067     0.067    26.429     8.430
    23   8 O        1.729    -0.168    16.833     5.540
    24   6 C        3.082     0.057    26.645     8.462
    25   6 C        3.056    -0.010    28.213     8.711
    26   6 C        3.754    -0.114    22.749     6.801
    27   8 O        0.859    -0.416    22.001     6.289
    28   6 C        3.760     0.069    19.471     6.291
    29   6 C        2.685     0.346    21.117     7.520
    30   8 O        1.658    -0.353    19.951     6.030
    31   8 O        0.856    -0.356    20.826     6.118
    32   7 N        2.762    -0.105    23.293     7.168
    33   6 C        2.758     0.279    22.280     7.730
    34   6 C        3.078    -0.057    29.325     8.878
    35   6 C        3.066     0.062    26.542     8.448
    36   8 O        1.729    -0.175    16.943     5.558
    37   6 C        3.079     0.056    26.654     8.464
    38   6 C        3.058     0.001    27.947     8.669
    39   6 C        3.754    -0.113    22.717     6.796
    40   8 O        0.859    -0.415    21.974     6.285
    41   1 H        0.925     0.064     2.158     2.297
    42   1 H        0.924     0.045     2.377     2.411
    43   1 H        0.924     0.042     2.425     2.435
    44   1 H        0.926     0.040     2.449     2.447
    45   1 H        0.926     0.040     2.451     2.448
    46   1 H        0.926     0.043     2.415     2.430
    47   1 H        0.926     0.046     2.377     2.411
    48   1 H        0.924     0.092     1.862     2.134
    49   1 H        0.923     0.048     2.348     2.396
    50   1 H        0.926     0.044     2.397     2.421
    51   1 H        0.926     0.040     2.445     2.445
    52   1 H        0.926     0.040     2.445     2.445
    53   1 H        0.926     0.041     2.439     2.442
    54   1 H        0.924     0.038     2.475     2.460
    55   1 H        0.925     0.057     2.238     2.339
    56   1 H        0.924     0.048     2.349     2.397
    57   1 H        0.926     0.052     2.293     2.368
    58   1 H        0.926     0.058     2.223     2.332
    59   1 H        0.924     0.056     2.244     2.343
    60   1 H        0.925     0.052     2.293     2.368
    61   1 H        0.925     0.060     2.202     2.321
    62   1 H        0.924     0.074     2.043     2.235
    63   1 H        0.804     0.338     0.616     1.233
    64   1 H        0.926     0.041     2.431     2.438
    65   1 H        0.926     0.055     2.255     2.348
    66   1 H        0.925     0.069     2.093     2.262
    67   1 H        0.925     0.059     2.215     2.328
    68   1 H        0.925     0.047     2.356     2.400

Wiberg/Mayer (AO) data.
largest (>0.10) Wiberg bond orders for each atom

     #   Z sym  total        # sym  WBO       # sym  WBO       # sym  WBO
 ---------------------------------------------------------------------------
     1   6 C    3.933 --     4 C    1.389     8 C    1.315     2 O    1.059
     2   8 O    2.230 --     1 C    1.059     3 C    0.982
     3   6 C    3.944 --     2 O    0.982    41 H    0.979    42 H    0.977
                            43 H    0.976
     4   6 C    3.987 --     5 C    1.427     1 C    1.389    44 H    0.966
                             7 C    0.101
     5   6 C    3.991 --     6 C    1.452     4 C    1.427    45 H    0.971
                             8 C    0.106
     6   6 C    3.991 --     5 C    1.452     7 C    1.416    46 H    0.970
     7   6 C    3.989 --     8 C    1.448     6 C    1.416    47 H    0.964
                             4 C    0.101
     8   6 C    3.982 --     7 C    1.448     1 C    1.315     9 C    0.989
                             5 C    0.106
     9   6 C    3.961 --     8 C    0.989    32 N    0.969    10 C    0.948
                            48 H    0.941
    10   6 C    3.963 --    11 C    0.996    49 H    0.957     9 C    0.948
                            19 N    0.947
    11   6 C    3.983 --    12 C    1.435    16 C    1.327    10 C    0.996
                            14 C    0.107
    12   6 C    3.988 --    11 C    1.435    13 C    1.427    50 H    0.967
                            15 C    0.103
    13   6 C    3.991 --    14 C    1.444    12 C    1.427    51 H    0.970
    14   6 C    3.990 --    13 C    1.444    15 C    1.434    52 H    0.971
                            11 C    0.107
    15   6 C    3.988 --    14 C    1.434    16 C    1.386    53 H    0.965
                            12 C    0.103
    16   6 C    3.933 --    15 C    1.386    11 C    1.327    17 O    1.051
    17   8 O    2.216 --    16 C    1.051    18 C    0.983
    18   6 C    3.945 --    17 O    0.983    55 H    0.977    56 H    0.977
                            54 H    0.977
    19   7 N    3.465 --    20 C    1.188    28 C    0.990    10 C    0.947
                            27 O    0.188
    20   6 C    3.947 --    27 O    1.702    19 N    1.188    21 C    0.970
    21   6 C    3.975 --    22 C    1.563    25 C    1.232    20 C    0.970
    22   6 C    3.911 --    21 C    1.563    23 O    1.149    57 H    0.965
                            24 C    0.148
    23   8 O    2.460 --    22 C    1.149    24 C    1.128
    24   6 C    3.901 --    25 C    1.583    23 O    1.128    58 H    0.965
                            22 C    0.148
    25   6 C    3.982 --    24 C    1.583    21 C    1.232    26 C    1.034
    26   6 C    3.995 --    25 C    1.034    60 H    0.982    61 H    0.976
                            59 H    0.966
    27   8 O    2.028 --    20 C    1.702    19 N    0.188
    28   6 C    3.968 --    32 N    0.991    19 N    0.990    62 H    0.929
                            29 C    0.895
    29   6 C    3.923 --    31 O    1.794    30 O    1.164    28 C    0.895
    30   8 O    2.236 --    29 C    1.164    63 H    0.841    31 O    0.173
    31   8 O    2.084 --    29 C    1.794    30 O    0.173
    32   7 N    3.466 --    33 C    1.193    28 C    0.991     9 C    0.969
                            40 O    0.187
    33   6 C    3.945 --    40 O    1.701    32 N    1.193    34 C    0.971
    34   6 C    3.978 --    35 C    1.569    38 C    1.227    33 C    0.971
    35   6 C    3.909 --    34 C    1.569    36 O    1.142    64 H    0.964
                            37 C    0.149
    36   8 O    2.450 --    35 C    1.142    37 C    1.123
    37   6 C    3.900 --    38 C    1.587    36 O    1.123    65 H    0.965
                            35 C    0.149
    38   6 C    3.983 --    37 C    1.587    34 C    1.227    39 C    1.035
    39   6 C    3.994 --    38 C    1.035    68 H    0.983    67 H    0.976
                            66 H    0.962
    40   8 O    2.025 --    33 C    1.701    32 N    0.187
    41   1 H    0.996 --     3 C    0.979
    42   1 H    0.998 --     3 C    0.977
    43   1 H    0.998 --     3 C    0.976
    44   1 H    0.998 --     4 C    0.966
    45   1 H    0.998 --     5 C    0.971
    46   1 H    0.998 --     6 C    0.970
    47   1 H    0.997 --     7 C    0.964
    48   1 H    0.991 --     9 C    0.941
    49   1 H    0.997 --    10 C    0.957
    50   1 H    0.997 --    12 C    0.967
    51   1 H    0.998 --    13 C    0.970
    52   1 H    0.998 --    14 C    0.971
    53   1 H    0.998 --    15 C    0.965
    54   1 H    0.999 --    18 C    0.977
    55   1 H    0.996 --    18 C    0.977
    56   1 H    0.998 --    18 C    0.977
    57   1 H    0.997 --    22 C    0.965
    58   1 H    0.996 --    24 C    0.965
    59   1 H    0.997 --    26 C    0.966
    60   1 H    0.997 --    26 C    0.982
    61   1 H    0.996 --    26 C    0.976
    62   1 H    0.994 --    28 C    0.929
    63   1 H    0.885 --    30 O    0.841
    64   1 H    0.998 --    35 C    0.964
    65   1 H    0.996 --    37 C    0.965
    66   1 H    0.995 --    39 C    0.962
    67   1 H    0.997 --    39 C    0.976
    68   1 H    0.997 --    39 C    0.983
 ---------------------------------------------------------------------------

molecular dipole:
                 x           y           z       tot (Debye)
 q only:       -0.306      -0.710       0.693
   full:       -0.767      -0.616       0.503       2.808

           -------------------------------------------------
          | TOTAL ENERGY             -116.946775441599 Eh   |
          | GRADIENT NORM               0.000302790020 Eh/Î± |
          | HOMO-LUMO GAP               3.366585215809 eV   |
           -------------------------------------------------

 * finished run on 2022/03/16 at 22:21:02.544
