   * xtb version 6.3.3 (4ae9cef) compiled by 'conda@95abc7406d43' on 2020-10-14
          program call               : xtb acid_192.xyz --opt --chrg 0 --uhf 0 --gfn 2
          number of atoms            :                    60
          number of electrons        :                   190
          charge                     :                     0
          spin                       :                   0.0

   ID    Z sym.   atoms
    1    6 C      1-14, 16-21, 23, 25, 26, 30-33, 35-37
    2    7 N      15, 29
    3   35 Br     22, 34
    4    8 O      24, 27, 28, 38
    5    1 H      39-60

          :  Hamiltonian                  GFN2-xTB          :
 * total energy  :  -105.7490459 Eh     change       -0.3601286E-08 Eh
 * total energy  :  -105.7623989 Eh     change       -0.1335307E-01 Eh
 * total energy  :  -105.7665695 Eh     change       -0.4170515E-02 Eh
 * total energy  :  -105.7674573 Eh     change       -0.8878386E-03 Eh
 * total energy  :  -105.7678931 Eh     change       -0.4357884E-03 Eh
 * total energy  :  -105.7682236 Eh     change       -0.3305292E-03 Eh
 * total energy  :  -105.7685451 Eh     change       -0.3214823E-03 Eh
 * total energy  :  -105.7689149 Eh     change       -0.3697934E-03 Eh
 * total energy  :  -105.7692716 Eh     change       -0.3567480E-03 Eh
 * total energy  :  -105.7695949 Eh     change       -0.3232440E-03 Eh
 * total energy  :  -105.7717833 Eh     change       -0.2109557E-04 Eh
 * total energy  :  -105.7718013 Eh     change       -0.1804460E-04 Eh
 * total energy  :  -105.7718257 Eh     change       -0.2440166E-04 Eh
 * total energy  :  -105.7718431 Eh     change       -0.1738873E-04 Eh
 * total energy  :  -105.7718508 Eh     change       -0.7675604E-05 Eh
 * total energy  :  -105.7718584 Eh     change       -0.7632122E-05 Eh
 * total energy  :  -105.7718648 Eh     change       -0.6349170E-05 Eh
 * total energy  :  -105.7718713 Eh     change       -0.6476570E-05 Eh
 * total energy  :  -105.7718760 Eh     change       -0.4704426E-05 Eh
   *** GEOMETRY OPTIMIZATION CONVERGED AFTER 39 ITERATIONS ***

 final structure:
================
60
 xtb: 6.3.3 (4ae9cef)
C         2.19953292767378   -3.44664301859313    1.01909903856163
C         2.70559917476482   -3.99344795386617    2.18498320847159
C         2.18251316960428   -3.62183754228622    3.41134983990064
C         1.15293318856711   -2.69819643734725    3.46717520848013
C         0.64922200009813   -2.14812179205426    2.30212154255827
C         1.16439058838893   -2.52290109593379    1.06698681490405
C         0.65040776211179   -1.90928603057043   -0.21495893575386
C        -0.88089873415734   -1.83854843631329   -0.29990134622572
C        -1.47852260188075   -1.99548120232599   -1.68057791222892
C        -2.84108727946032   -2.26696492272247   -1.76306237122946
C        -3.46796148654113   -2.35258874582789   -2.99211322906670
C        -2.74060861718884   -2.16584834241590   -4.15625336485729
C        -1.38659053971017   -1.89211655516008   -4.08170804878071
C        -0.75607960712786   -1.80337445551152   -2.85108261156856
N        -1.15504224387703   -0.48449004091783    0.18395067825801
C        -2.17138748755372   -0.17914224991537    1.02612024741965
C        -2.17058164206602    1.24644536136608    1.49687227590733
C        -1.38820965526257    1.62946266891196    2.58109462368153
C        -1.41143468023995    2.94171880477955    3.02219068762355
C        -2.20536782915882    3.87997156502255    2.38600411334595
C        -2.98479636461968    3.48272567326735    1.31246490837972
Br       -4.07360155246980    4.76475794547043    0.42252107687441
C        -2.98407651518921    2.17384138257329    0.86311758722795
O        -2.99844640748595   -0.99206037435993    1.37255013404524
C        -0.09399060010746    0.37173858238969   -0.25509216262583
C        -0.37757611783872    0.96657343705663   -1.65607549314032
O        -1.64137425900890    1.35727626347843   -1.76490738397540
O         0.45026583481375    1.09883002275810   -2.51006606145489
N         1.05522477328497   -0.49994835818434   -0.28223243030357
C         2.33335573268707   -0.15547659483045   -0.59317117066995
C         2.62864166649027    1.30944041183403   -0.52061557655565
C         3.15678205750212    1.95062281158519   -1.63195649854744
C         3.45010204735885    3.29957168551456   -1.55052746754286
Br        4.14421147532263    4.19359515576600   -3.07679470463404
C         3.24998440988898    4.01523706689613   -0.38174478692969
C         2.75519229040422    3.35775680443230    0.73137014921326
C         2.44377061403759    2.01070969429506    0.66647630626154
O         3.17500619650882   -0.98523364303935   -0.85728622253777
H         2.61806861216007   -3.72669084854493    0.06466389273203
H         3.51180171036971   -4.70965335053828    2.13515988171650
H         2.57559681997332   -4.04889735677109    4.32184167397255
H         0.73954336896288   -2.40433506218234    4.42088060882512
H        -0.15809613005359   -1.43311310927173    2.36024676019343
H         1.08662627286929   -2.45339649409120   -1.05753715341950
H        -1.35938150582616   -2.54321728516376    0.38678633037124
H        -3.40682503186100   -2.40161787636535   -0.85322073183394
H        -4.52516084165546   -2.56590798616175   -3.04176327793916
H        -3.22724445325041   -2.23374293226287   -5.11775873575279
H        -0.81214823535490   -1.74229073774743   -4.98353158536308
H         0.29969808684721   -1.58033720291436   -2.82640539096309
H        -0.76911240376152    0.90109080485245    3.08423248158398
H        -0.80779736344324    3.23844592121902    3.86642706680781
H        -2.22401171511744    4.90519431933544    2.72177596909686
H        -3.60098330625341    1.87384756160189    0.03080727739382
H         0.03773424813486    1.22772162912648    0.42162380095165
H        -1.81769079236196    1.73492518375651   -2.64331932400663
H         3.31684568186347    1.39879125437079   -2.54432420999682
H         3.48705627316490    5.06718341870001   -0.34110462699580
H         2.61397502391619    3.90191825384242    1.65301572038207
H         2.08200499211924    1.49551234999024    1.54518690976633

          :  Hamiltonian                  GFN2-xTB          :
         :: total energy            -105.771875969580 Eh    ::
         :: gradient norm              0.000607417731 Eh/a0 ::
         :: HOMO-LUMO gap              3.463978502881 eV    ::
         :: SCC energy              -107.312292829531 Eh    ::
         :: -> dispersion             -0.089068677309 Eh    ::
         :: repulsion energy           1.537225347828 Eh    ::

    * Orbital Energies and Occupations

         #    Occupation            Energy/Eh            Energy/eV
      -------------------------------------------------------------
         1        2.0000           -0.8504300             -23.1414
       ...           ...                  ...                  ...
        83        2.0000           -0.4338326             -11.8052
        84        2.0000           -0.4281153             -11.6496
        85        2.0000           -0.4259128             -11.5897
        86        2.0000           -0.4228641             -11.5067
        87        2.0000           -0.4208422             -11.4517
        88        2.0000           -0.4179251             -11.3723
        89        2.0000           -0.4175001             -11.3608
        90        2.0000           -0.4171060             -11.3500
        91        2.0000           -0.4164984             -11.3335
        92        2.0000           -0.4130101             -11.2386
        93        2.0000           -0.4103777             -11.1669
        94        2.0000           -0.4075942             -11.0912
        95        2.0000           -0.4071373             -11.0788 (HOMO)
        96                         -0.2798384              -7.6148 (LUMO)
        97                         -0.2709937              -7.3741
        98                         -0.2697691              -7.3408
        99                         -0.2679765              -7.2920
       100                         -0.2591395              -7.0515
       101                         -0.2469334              -6.7194
       102                         -0.2398689              -6.5272
       103                         -0.2384809              -6.4894
       104                         -0.2373200              -6.4578
       105                         -0.2353455              -6.4041
       106                         -0.2219166              -6.0387
       ...                                ...                  ...
       184                          0.6528195              17.7641
      -------------------------------------------------------------
                  HL-Gap            0.1272989 Eh            3.4640 eV

     #   Z          covCN         q      C6AA      Î±(0)
     1   6 C        2.925    -0.028    28.691     8.784
     2   6 C        2.920    -0.025    28.626     8.774
     3   6 C        2.920    -0.028    28.694     8.784
     4   6 C        2.919    -0.028    28.711     8.787
     5   6 C        2.923    -0.034    28.852     8.809
     6   6 C        2.973     0.002    27.979     8.676
     7   6 C        3.827     0.037    19.927     6.352
     8   6 C        3.839     0.034    19.969     6.357
     9   6 C        2.972    -0.004    28.112     8.697
    10   6 C        2.926    -0.034    28.843     8.807
    11   6 C        2.919    -0.027    28.676     8.781
    12   6 C        2.920    -0.029    28.734     8.790
    13   6 C        2.920    -0.029    28.716     8.788
    14   6 C        2.921    -0.038    28.949     8.823
    15   7 N        2.776    -0.105    23.304     7.170
    16   6 C        2.759     0.275    22.351     7.742
    17   6 C        2.980    -0.013    28.340     8.732
    18   6 C        2.921    -0.032    28.788     8.799
    19   6 C        2.922    -0.026    28.658     8.779
    20   6 C        2.991    -0.034    28.836     8.809
    21   6 C        2.918     0.086    26.089     8.376
    22  35 Br       1.072    -0.154   189.299    22.184
    23   6 C        2.998    -0.031    28.753     8.796
    24   8 O        0.859    -0.409    21.869     6.270
    25   6 C        3.770     0.091    19.112     6.230
    26   6 C        2.687     0.350    21.063     7.511
    27   8 O        1.659    -0.362    20.118     6.055
    28   8 O        0.856    -0.380    21.281     6.185
    29   7 N        2.770    -0.120    23.598     7.215
    30   6 C        2.761     0.276    22.324     7.738
    31   6 C        2.979    -0.012    28.307     8.727
    32   6 C        2.999    -0.020    28.495     8.756
    33   6 C        2.918     0.087    26.068     8.373
    34  35 Br       1.075    -0.150   189.179    22.177
    35   6 C        2.995    -0.034    28.839     8.809
    36   6 C        2.922    -0.028    28.709     8.787
    37   6 C        2.921    -0.037    28.931     8.821
    38   8 O        0.859    -0.409    21.853     6.268
    39   1 H        0.926     0.050     2.320     2.382
    40   1 H        0.926     0.042     2.425     2.435
    41   1 H        0.926     0.038     2.474     2.460
    42   1 H        0.926     0.035     2.511     2.478
    43   1 H        0.926     0.025     2.652     2.546
    44   1 H        0.924     0.074     2.042     2.234
    45   1 H        0.924     0.082     1.962     2.190
    46   1 H        0.926     0.053     2.278     2.360
    47   1 H        0.926     0.041     2.440     2.443
    48   1 H        0.926     0.038     2.472     2.458
    49   1 H        0.926     0.041     2.440     2.443
    50   1 H        0.926     0.040     2.454     2.449
    51   1 H        0.926     0.044     2.391     2.418
    52   1 H        0.926     0.053     2.287     2.365
    53   1 H        0.926     0.062     2.180     2.309
    54   1 H        0.926     0.066     2.131     2.283
    55   1 H        0.923     0.067     2.119     2.277
    56   1 H        0.804     0.350     0.589     1.206
    57   1 H        0.926     0.078     2.002     2.212
    58   1 H        0.926     0.061     2.192     2.315
    59   1 H        0.926     0.047     2.355     2.400
    60   1 H        0.926     0.035     2.512     2.479

Wiberg/Mayer (AO) data.
largest (>0.10) Wiberg bond orders for each atom

     #   Z sym  total        # sym  WBO       # sym  WBO       # sym  WBO
 ---------------------------------------------------------------------------
     1   6 C    3.989 --     2 C    1.442     6 C    1.416    39 H    0.967
                             4 C    0.111
     2   6 C    3.992 --     1 C    1.442     3 C    1.441    40 H    0.970
                             5 C    0.112
     3   6 C    3.990 --     2 C    1.441     4 C    1.437    41 H    0.971
                             6 C    0.110
     4   6 C    3.992 --     5 C    1.446     3 C    1.437    42 H    0.971
                             1 C    0.111
     5   6 C    3.992 --     4 C    1.446     6 C    1.413    43 H    0.966
                             2 C    0.112
     6   6 C    3.985 --     1 C    1.416     5 C    1.413     7 C    0.985
                             3 C    0.110
     7   6 C    3.958 --     6 C    0.985     8 C    0.972    44 H    0.950
                            29 N    0.945
     8   6 C    3.956 --     9 C    0.983     7 C    0.972    45 H    0.952
                            15 N    0.942
     9   6 C    3.985 --    14 C    1.420    10 C    1.406     8 C    0.983
                            12 C    0.109
    10   6 C    3.989 --    11 C    1.451     9 C    1.406    46 H    0.967
                            13 C    0.113
    11   6 C    3.992 --    10 C    1.451    12 C    1.433    47 H    0.970
                            14 C    0.110
    12   6 C    3.991 --    13 C    1.445    11 C    1.433    48 H    0.971
                             9 C    0.109
    13   6 C    3.992 --    12 C    1.445    14 C    1.436    49 H    0.971
                            10 C    0.113
    14   6 C    3.991 --    13 C    1.436     9 C    1.420    50 H    0.964
                            11 C    0.110
    15   7 N    3.480 --    16 C    1.214    25 C    0.999     8 C    0.942
                            24 O    0.196
    16   6 C    3.946 --    24 O    1.699    15 N    1.214    17 C    0.948
    17   6 C    3.987 --    23 C    1.410    18 C    1.402    16 C    0.948
                            20 C    0.108
    18   6 C    3.990 --    19 C    1.438    17 C    1.402    51 H    0.968
                            21 C    0.101
    19   6 C    3.990 --    18 C    1.438    20 C    1.438    52 H    0.967
                            23 C    0.109
    20   6 C    3.989 --    19 C    1.438    21 C    1.409    53 H    0.967
                            17 C    0.108
    21   6 C    3.942 --    23 C    1.412    20 C    1.409    22 Br   0.987
                            18 C    0.101
    22  35 Br   1.120 --    21 C    0.987
    23   6 C    3.988 --    21 C    1.412    17 C    1.410    54 H    0.965
                            19 C    0.109
    24   8 O    2.029 --    16 C    1.699    15 N    0.196
    25   6 C    3.977 --    15 N    0.999    29 N    0.989    55 H    0.924
                            26 C    0.904
    26   6 C    3.920 --    28 O    1.783    27 O    1.159    25 C    0.904
    27   8 O    2.221 --    26 C    1.159    56 H    0.852    28 O    0.182
    28   8 O    2.070 --    26 C    1.783    27 O    0.182
    29   7 N    3.453 --    30 C    1.201    25 C    0.989     7 C    0.945
                            38 O    0.189
    30   6 C    3.946 --    38 O    1.701    29 N    1.201    31 C    0.962
    31   6 C    3.988 --    32 C    1.407    37 C    1.398    30 C    0.962
                            35 C    0.107
    32   6 C    3.986 --    33 C    1.415    31 C    1.407    57 H    0.964
                            36 C    0.108
    33   6 C    3.944 --    32 C    1.415    35 C    1.409    34 Br   0.988
    34  35 Br   1.119 --    33 C    0.988
    35   6 C    3.989 --    36 C    1.436    33 C    1.409    58 H    0.968
                            31 C    0.107
    36   6 C    3.991 --    37 C    1.441    35 C    1.436    59 H    0.968
                            32 C    0.108
    37   6 C    3.991 --    36 C    1.441    31 C    1.398    60 H    0.968
    38   8 O    2.027 --    30 C    1.701    29 N    0.189
    39   1 H    0.997 --     1 C    0.967
    40   1 H    0.998 --     2 C    0.970
    41   1 H    0.998 --     3 C    0.971
    42   1 H    0.998 --     4 C    0.971
    43   1 H    0.999 --     5 C    0.966
    44   1 H    0.994 --     7 C    0.950
    45   1 H    0.993 --     8 C    0.952
    46   1 H    0.997 --    10 C    0.967
    47   1 H    0.998 --    11 C    0.970
    48   1 H    0.998 --    12 C    0.971
    49   1 H    0.998 --    13 C    0.971
    50   1 H    0.998 --    14 C    0.964
    51   1 H    0.997 --    18 C    0.968
    52   1 H    0.997 --    19 C    0.967
    53   1 H    0.996 --    20 C    0.967
    54   1 H    0.996 --    23 C    0.965
    55   1 H    0.995 --    25 C    0.924
    56   1 H    0.877 --    27 O    0.852
    57   1 H    0.994 --    32 C    0.964
    58   1 H    0.996 --    35 C    0.968
    59   1 H    0.997 --    36 C    0.968
    60   1 H    0.998 --    37 C    0.968
 ---------------------------------------------------------------------------

molecular dipole:
                 x           y           z       tot (Debye)
 q only:       -0.487      -0.138       0.756
   full:       -0.565      -0.341       1.348       3.815

           -------------------------------------------------
          | TOTAL ENERGY             -105.771875969580 Eh   |
          | GRADIENT NORM               0.000607417731 Eh/Î± |
          | HOMO-LUMO GAP               3.463978502881 eV   |
           -------------------------------------------------

 * finished run on 2022/03/16 at 22:20:26.774
