   * xtb version 6.3.3 (4ae9cef) compiled by 'conda@95abc7406d43' on 2020-10-14
          program call               : xtb acid_292.xyz --opt --chrg 0 --uhf 0 --gfn 2
          number of atoms            :                    66
          number of electrons        :                   238
          charge                     :                     0
          spin                       :                   0.0

   ID    Z sym.   atoms
    1    6 C      1, 2, 6-15, 19-22, 24-29, 31, 33, 34, 38-41, 43-45
    2    9 F      3-5, 16-18
    3    7 N      23, 37
    4   53 I      30, 42
    5    8 O      32, 35, 36, 46
    6    1 H      47-66

          :  Hamiltonian                  GFN2-xTB          :
 * total energy  :  -136.8885824 Eh     change       -0.1980482E-08 Eh
 * total energy  :  -136.9044332 Eh     change       -0.1585080E-01 Eh
 * total energy  :  -136.9086233 Eh     change       -0.4190134E-02 Eh
 * total energy  :  -136.9098165 Eh     change       -0.1193164E-02 Eh
 * total energy  :  -136.9105644 Eh     change       -0.7479475E-03 Eh
 * total energy  :  -136.9110502 Eh     change       -0.4857625E-03 Eh
 * total energy  :  -136.9115198 Eh     change       -0.4695670E-03 Eh
 * total energy  :  -136.9120727 Eh     change       -0.5529682E-03 Eh
 * total energy  :  -136.9125707 Eh     change       -0.4979988E-03 Eh
 * total energy  :  -136.9128713 Eh     change       -0.3006328E-03 Eh
 * total energy  :  -136.9136786 Eh     change       -0.7908182E-05 Eh
 * total energy  :  -136.9136870 Eh     change       -0.8442421E-05 Eh
 * total energy  :  -136.9136925 Eh     change       -0.5440262E-05 Eh
 * total energy  :  -136.9136977 Eh     change       -0.5202711E-05 Eh
 * total energy  :  -136.9137035 Eh     change       -0.5853840E-05 Eh
 * total energy  :  -136.9137113 Eh     change       -0.7758943E-05 Eh
 * total energy  :  -136.9137194 Eh     change       -0.8114674E-05 Eh
 * total energy  :  -136.9137258 Eh     change       -0.6364990E-05 Eh
 * total energy  :  -136.9137304 Eh     change       -0.4662836E-05 Eh
   *** GEOMETRY OPTIMIZATION CONVERGED AFTER 33 ITERATIONS ***

 final structure:
================
66
 xtb: 6.3.3 (4ae9cef)
C         1.93796597607824    3.01379121755408   -1.50265872579702
C         1.38064425265014    4.08959741061428   -0.61152947067001
F         0.02821156365639    4.14992137026021   -0.66440130251177
F         1.67765898656721    3.92984291827223    0.68935133625069
F         1.80688324679634    5.31375803428745   -0.93799382092577
C         2.80604494613834    3.38872033207519   -2.52059373889317
C         3.33112912556099    2.43946805578760   -3.37688775136718
C         2.98665915601702    1.10945041585545   -3.21915037614070
C         2.12104551359123    0.73650697121628   -2.20836393349506
C         1.58549875541102    1.67347472350673   -1.33294588313524
C         0.63925727029403    1.20894417915553   -0.25114333185517
C        -0.76195282457815    0.85339543663055   -0.80720438469989
C        -1.79439311489026    1.90686777956044   -0.50508030301992
C        -2.43333556115368    2.64138132556606   -1.50332171328209
C        -2.10433908477806    2.41473163069881   -2.95193374816403
F        -0.79808513571975    2.64346342777467   -3.22434732036176
F        -2.79513937365526    3.19801530123068   -3.78129475705674
F        -2.33269729021838    1.14783806828944   -3.35760715968864
C        -3.36991209630007    3.61144312444148   -1.17174276341150
C        -3.67732896674536    3.85593734032299    0.15304420099666
C        -3.04525540813708    3.13555408557669    1.15118237289629
C        -2.11104186119471    2.17341334258331    0.82128435143787
N        -1.08237226331319   -0.41051147895379   -0.13881948417864
C        -2.35295415488921   -0.89227052911796    0.00691997864288
C        -2.43193919996417   -2.16240175716722    0.80001549288678
C        -2.23293268765981   -2.14196313525437    2.17641683758718
C        -2.33932678867355   -3.31372711039685    2.90414663599984
C        -2.64021714310059   -4.50704049067304    2.26948342785278
C        -2.84965243450135   -4.51416144456550    0.90148401645638
I        -3.32298143018753   -6.32555797015126   -0.07475287915571
C        -2.75323257060047   -3.35062105084417    0.15867413477692
O        -3.31723865025972   -0.34477984482273   -0.47353705353292
C         0.13002069863020   -1.09432555308375    0.21614968970404
C         0.59521497292108   -2.10413348790218   -0.88481178511258
O        -0.21911826444365   -2.25908947542620   -1.92103516804735
O         1.62140298842763   -2.70485249208282   -0.77331682683283
N         1.08824871554547   -0.02938309672366    0.38113991923967
C         2.30315059272981   -0.08050918506227    1.00197246197707
C         2.59693425988718   -1.35030992796288    1.73222787074539
C         3.68025316278869   -2.11909939888727    1.33080720363519
C         3.97385698096966   -3.27955894524814    2.02015351630553
I         5.60652244426849   -4.46398836088115    1.40197618019781
C         3.22238744807391   -3.67596505500837    3.11219156525228
C         2.16255095100176   -2.88714740362874    3.52528895574787
C         1.84658276962122   -1.72697137586610    2.84065393024452
O         3.06317001864081    0.85911857576786    0.96561265939940
H         3.07079473537534    4.42763970728109   -2.63874010459348
H         4.00677267378068    2.74016376242163   -4.16183770365932
H         3.38986307707194    0.35783846997324   -3.88003833540395
H         1.87397911373832   -0.30762521536266   -2.09023751226879
H         0.55880501524674    1.96690898490349    0.53367309859794
H        -0.67467629888251    0.67934323730593   -1.88489414735468
H        -3.85564892524567    4.17252836704376   -1.95443585904003
H        -4.40714958020823    4.60941235717740    0.40351937599574
H        -3.27768058684125    3.32444319715670    2.18799717801314
H        -1.62005754230824    1.61240324571874    1.60326589069588
H        -2.01347891366799   -1.20892025530331    2.67451686852674
H        -2.19069932934824   -3.30109297606495    3.97298905817863
H        -2.71963109759809   -5.42000816233162    2.83855119322555
H        -2.93255532143503   -3.36096771163791   -0.90569575120414
H         0.02328320412698   -1.68227004419638    1.13718902745945
H        -1.00783234104806   -1.69225722834518   -1.89911943376851
H         4.26836547923143   -1.80795792384625    0.48229169898350
H         3.46290134122181   -4.58425350786698    3.64275819005505
H         1.58374098706954   -3.18081087928500    4.38815448978019
H         1.03505581841698   -1.10078592205468    3.18438972087941

          :  Hamiltonian                  GFN2-xTB          :
         :: total energy            -136.913730421232 Eh    ::
         :: gradient norm              0.000398547508 Eh/a0 ::
         :: HOMO-LUMO gap              3.294861972900 eV    ::
         :: SCC energy              -138.512959758350 Eh    ::
         :: -> dispersion             -0.103638047618 Eh    ::
         :: repulsion energy           1.595373172996 Eh    ::

    * Orbital Energies and Occupations

         #    Occupation            Energy/Eh            Energy/eV
      -------------------------------------------------------------
         1        2.0000           -0.8903785             -24.2284
       ...           ...                  ...                  ...
       107        2.0000           -0.4533616             -12.3366
       108        2.0000           -0.4505020             -12.2588
       109        2.0000           -0.4494383             -12.2298
       110        2.0000           -0.4466046             -12.1527
       111        2.0000           -0.4444833             -12.0950
       112        2.0000           -0.4409341             -11.9984
       113        2.0000           -0.4329983             -11.7825
       114        2.0000           -0.4273320             -11.6283
       115        2.0000           -0.4260158             -11.5925
       116        2.0000           -0.4223167             -11.4918
       117        2.0000           -0.4210947             -11.4586
       118        2.0000           -0.4146645             -11.2836
       119        2.0000           -0.4090379             -11.1305 (HOMO)
       120                         -0.2879540              -7.8356 (LUMO)
       121                         -0.2871334              -7.8133
       122                         -0.2792196              -7.5980
       123                         -0.2782738              -7.5722
       124                         -0.2736380              -7.4461
       125                         -0.2729533              -7.4274
       126                         -0.2683771              -7.3029
       127                         -0.2635030              -7.1703
       128                         -0.2623010              -7.1376
       129                         -0.2586095              -7.0371
       130                         -0.2441367              -6.6433
       ...                                ...                  ...
       214                          0.6323291              17.2066
      -------------------------------------------------------------
                  HL-Gap            0.1210839 Eh            3.2949 eV

     #   Z          covCN         q      C6AA      Î±(0)
     1   6 C        2.976    -0.023    28.564     8.767
     2   6 C        3.335     0.486    17.295     6.587
     3   9 F        0.791    -0.226    11.502     4.006
     4   9 F        0.791    -0.203    11.270     3.966
     5   9 F        0.792    -0.197    11.204     3.954
     6   6 C        2.923    -0.018    28.448     8.747
     7   6 C        2.920    -0.019    28.474     8.751
     8   6 C        2.919    -0.015    28.381     8.736
     9   6 C        2.927    -0.023    28.577     8.767
    10   6 C        2.970     0.019    27.585     8.615
    11   6 C        3.821     0.046    19.792     6.331
    12   6 C        3.825     0.047    19.766     6.327
    13   6 C        2.972     0.024    27.471     8.597
    14   6 C        2.977    -0.021    28.519     8.760
    15   6 C        3.335     0.487    17.282     6.585
    16   9 F        0.791    -0.221    11.457     3.998
    17   9 F        0.792    -0.194    11.171     3.948
    18   9 F        0.791    -0.212    11.360     3.981
    19   6 C        2.923    -0.016    28.403     8.740
    20   6 C        2.921    -0.017    28.438     8.745
    21   6 C        2.919    -0.014    28.366     8.734
    22   6 C        2.927    -0.021    28.519     8.758
    23   7 N        2.765    -0.136    23.938     7.267
    24   6 C        2.758     0.268    22.484     7.765
    25   6 C        2.979    -0.021    28.524     8.761
    26   6 C        2.921    -0.032    28.791     8.799
    27   6 C        2.922    -0.024    28.605     8.771
    28   6 C        3.050    -0.029    28.680     8.783
    29   6 C        2.957     0.063    26.587     8.457
    30  53 I        1.229    -0.101   379.403    33.624
    31   6 C        3.058    -0.031    28.706     8.786
    32   8 O        0.858    -0.402    21.716     6.248
    33   6 C        3.756     0.072    19.422     6.284
    34   6 C        2.683     0.343    21.168     7.529
    35   8 O        1.659    -0.342    19.766     6.002
    36   8 O        0.856    -0.349    20.685     6.098
    37   7 N        2.764    -0.123    23.678     7.227
    38   6 C        2.762     0.276    22.339     7.740
    39   6 C        2.979    -0.011    28.273     8.722
    40   6 C        3.061    -0.015    28.330     8.728
    41   6 C        2.959     0.067    26.500     8.444
    42  53 I        1.236    -0.108   379.923    33.647
    43   6 C        3.055    -0.030    28.686     8.784
    44   6 C        2.922    -0.027    28.671     8.781
    45   6 C        2.921    -0.035    28.864     8.810
    46   8 O        0.859    -0.400    21.684     6.243
    47   1 H        0.926     0.072     2.060     2.245
    48   1 H        0.926     0.063     2.164     2.300
    49   1 H        0.926     0.063     2.165     2.301
    50   1 H        0.926     0.045     2.384     2.415
    51   1 H        0.924     0.074     2.041     2.234
    52   1 H        0.924     0.055     2.255     2.348
    53   1 H        0.926     0.073     2.052     2.240
    54   1 H        0.926     0.063     2.158     2.297
    55   1 H        0.926     0.060     2.202     2.321
    56   1 H        0.926     0.045     2.389     2.417
    57   1 H        0.926     0.041     2.431     2.438
    58   1 H        0.926     0.055     2.258     2.350
    59   1 H        0.926     0.064     2.153     2.295
    60   1 H        0.926     0.061     2.190     2.314
    61   1 H        0.924     0.073     2.050     2.239
    62   1 H        0.804     0.339     0.615     1.232
    63   1 H        0.926     0.069     2.095     2.263
    64   1 H        0.926     0.060     2.200     2.319
    65   1 H        0.926     0.047     2.354     2.399
    66   1 H        0.926     0.033     2.548     2.496

Wiberg/Mayer (AO) data.
largest (>0.10) Wiberg bond orders for each atom

     #   Z sym  total        # sym  WBO       # sym  WBO       # sym  WBO
 ---------------------------------------------------------------------------
     1   6 C    3.971 --     6 C    1.416    10 C    1.383     2 C    0.951
                             8 C    0.106
     2   6 C    3.822 --     5 F    0.960     1 C    0.951     4 F    0.946
                             3 F    0.926
     3   9 F    1.053 --     2 C    0.926
     4   9 F    1.077 --     2 C    0.946
     5   9 F    1.082 --     2 C    0.960
     6   6 C    3.986 --     7 C    1.441     1 C    1.416    47 H    0.965
                             9 C    0.108
     7   6 C    3.988 --     6 C    1.441     8 C    1.436    48 H    0.968
                            10 C    0.109
     8   6 C    3.989 --     9 C    1.444     7 C    1.436    49 H    0.968
                             1 C    0.106
     9   6 C    3.991 --     8 C    1.444    10 C    1.415    50 H    0.963
                             6 C    0.108
    10   6 C    3.986 --     9 C    1.415     1 C    1.383    11 C    0.991
                             7 C    0.109
    11   6 C    3.965 --    10 C    0.991    37 N    0.958    51 H    0.952
                            12 C    0.951
    12   6 C    3.965 --    13 C    0.997    52 H    0.953    11 C    0.951
                            23 N    0.949
    13   6 C    3.986 --    22 C    1.410    14 C    1.385    12 C    0.997
                            20 C    0.109
    14   6 C    3.971 --    19 C    1.414    13 C    1.385    15 C    0.952
                            21 C    0.105
    15   6 C    3.822 --    17 F    0.964    14 C    0.952    18 F    0.937
                            16 F    0.930
    16   9 F    1.057 --    15 C    0.930
    17   9 F    1.087 --    15 C    0.964
    18   9 F    1.067 --    15 C    0.937
    19   6 C    3.986 --    20 C    1.443    14 C    1.414    53 H    0.965
                            22 C    0.108
    20   6 C    3.988 --    19 C    1.443    21 C    1.433    54 H    0.968
                            13 C    0.109
    21   6 C    3.990 --    22 C    1.448    20 C    1.433    55 H    0.969
                            14 C    0.105
    22   6 C    3.990 --    21 C    1.448    13 C    1.410    56 H    0.967
                            19 C    0.108
    23   7 N    3.456 --    24 C    1.183    33 C    0.996    12 C    0.949
                            32 O    0.193
    24   6 C    3.943 --    32 O    1.715    23 N    1.183    25 C    0.954
    25   6 C    3.986 --    31 C    1.410    26 C    1.396    24 C    0.954
                            28 C    0.107
    26   6 C    3.991 --    27 C    1.441    25 C    1.396    57 H    0.968
                            29 C    0.102
    27   6 C    3.990 --    26 C    1.441    28 C    1.434    58 H    0.967
                            31 C    0.108
    28   6 C    3.989 --    27 C    1.434    29 C    1.422    59 H    0.967
                            25 C    0.107
    29   6 C    3.960 --    28 C    1.422    31 C    1.420    30 I    0.984
                            26 C    0.102
    30  53 I    1.101 --    29 C    0.984
    31   6 C    3.989 --    29 C    1.420    25 C    1.410    60 H    0.967
                            27 C    0.108
    32   8 O    2.046 --    24 C    1.715    23 N    0.193
    33   6 C    3.965 --    23 N    0.996    37 N    0.987    61 H    0.929
                            34 C    0.886
    34   6 C    3.924 --    36 O    1.800    35 O    1.166    33 C    0.886
    35   8 O    2.245 --    34 C    1.166    62 H    0.847    36 O    0.176
    36   8 O    2.093 --    34 C    1.800    35 O    0.176
    37   7 N    3.443 --    38 C    1.181    33 C    0.987    11 C    0.958
                            46 O    0.187
    38   6 C    3.941 --    46 O    1.715    37 N    1.181    39 C    0.963
    39   6 C    3.987 --    40 C    1.403    45 C    1.399    38 C    0.963
                            43 C    0.107
    40   6 C    3.988 --    41 C    1.427    39 C    1.403    63 H    0.966
                            44 C    0.109
    41   6 C    3.958 --    40 C    1.427    43 C    1.421    42 I    0.975
                            45 C    0.101
    42  53 I    1.087 --    41 C    0.975
    43   6 C    3.989 --    44 C    1.434    41 C    1.421    64 H    0.968
                            39 C    0.107
    44   6 C    3.991 --    45 C    1.440    43 C    1.434    65 H    0.968
                            40 C    0.109
    45   6 C    3.991 --    44 C    1.440    39 C    1.399    66 H    0.968
                            41 C    0.101
    46   8 O    2.043 --    38 C    1.715    37 N    0.187
    47   1 H    0.994 --     6 C    0.965
    48   1 H    0.995 --     7 C    0.968
    49   1 H    0.995 --     8 C    0.968
    50   1 H    0.998 --     9 C    0.963
    51   1 H    0.994 --    11 C    0.952
    52   1 H    0.997 --    12 C    0.953
    53   1 H    0.994 --    19 C    0.965
    54   1 H    0.995 --    20 C    0.968
    55   1 H    0.996 --    21 C    0.969
    56   1 H    0.998 --    22 C    0.967
    57   1 H    0.997 --    26 C    0.968
    58   1 H    0.996 --    27 C    0.967
    59   1 H    0.995 --    28 C    0.967
    60   1 H    0.996 --    31 C    0.967
    61   1 H    0.994 --    33 C    0.929
    62   1 H    0.885 --    35 O    0.847
    63   1 H    0.995 --    40 C    0.966
    64   1 H    0.996 --    43 C    0.968
    65   1 H    0.997 --    44 C    0.968
    66   1 H    0.998 --    45 C    0.968
 ---------------------------------------------------------------------------

molecular dipole:
                 x           y           z       tot (Debye)
 q only:       -0.930      -0.070       1.256
   full:       -1.632       0.763       1.777       6.431

           -------------------------------------------------
          | TOTAL ENERGY             -136.913730421232 Eh   |
          | GRADIENT NORM               0.000398547508 Eh/Î± |
          | HOMO-LUMO GAP               3.294861972900 eV   |
           -------------------------------------------------

 * finished run on 2022/03/16 at 23:27:16.780
