   * xtb version 6.3.3 (4ae9cef) compiled by 'conda@95abc7406d43' on 2020-10-14
          program call               : xtb acid_151.xyz --opt --chrg 0 --uhf 0 --gfn 2
          number of atoms            :                    66
          number of electrons        :                   194
          charge                     :                     0
          spin                       :                   0.0

   ID    Z sym.   atoms
    1    6 C      1-14, 16-19, 21-23, 25, 26, 30-33, 35-37
    2    7 N      15, 29
    3    8 O      20, 24, 27, 28, 34, 38
    4    1 H      39-66

          :  Hamiltonian                  GFN2-xTB          :
 * total energy  :  -108.8161032 Eh     change       -0.2190632E-08 Eh
 * total energy  :  -108.8278194 Eh     change       -0.1171613E-01 Eh
 * total energy  :  -108.8309962 Eh     change       -0.3176839E-02 Eh
 * total energy  :  -108.8322225 Eh     change       -0.1226326E-02 Eh
 * total energy  :  -108.8329805 Eh     change       -0.7580180E-03 Eh
 * total energy  :  -108.8334405 Eh     change       -0.4599257E-03 Eh
 * total energy  :  -108.8337075 Eh     change       -0.2670870E-03 Eh
 * total energy  :  -108.8339433 Eh     change       -0.2357363E-03 Eh
 * total energy  :  -108.8342536 Eh     change       -0.3102802E-03 Eh
 * total energy  :  -108.8346370 Eh     change       -0.3834663E-03 Eh
 * total energy  :  -108.8381113 Eh     change       -0.2231119E-04 Eh
 * total energy  :  -108.8381216 Eh     change       -0.1031600E-04 Eh
 * total energy  :  -108.8381416 Eh     change       -0.1993920E-04 Eh
 * total energy  :  -108.8381484 Eh     change       -0.6798333E-05 Eh
 * total energy  :  -108.8381597 Eh     change       -0.1130305E-04 Eh
 * total energy  :  -108.8381687 Eh     change       -0.9006159E-05 Eh
 * total energy  :  -108.8381756 Eh     change       -0.6975678E-05 Eh
 * total energy  :  -108.8381750 Eh     change        0.6283251E-06 Eh
 * total energy  :  -108.8381791 Eh     change       -0.4127234E-05 Eh
   *** GEOMETRY OPTIMIZATION CONVERGED AFTER 59 ITERATIONS ***

 final structure:
================
66
 xtb: 6.3.3 (4ae9cef)
C        -2.19308799133884   -1.30164791868568   -2.44091981176563
C        -2.66218011034900   -2.09429980587823   -3.47499211342459
C        -2.37057295508153   -3.44648046849450   -3.50821779114747
C        -1.60608779697571   -4.00993125381203   -2.49988065786805
C        -1.14253014079655   -3.22343991072849   -1.46162847360490
C        -1.43467637101646   -1.86519970013504   -1.42610653646039
C        -0.88252525920542   -1.04215763089032   -0.28908463128079
C         0.56001638800092   -0.55897306148441   -0.57609570081300
C         1.56003083947233   -1.37942870110187    0.19376026857719
C         1.62723526402102   -1.28239294310206    1.57873456386833
C         2.53051104128128   -2.04972731026547    2.28962695587941
C         3.36842602393040   -2.92969095193992    1.62534862231926
C         3.29030776201738   -3.04707584919839    0.24862387524051
C         2.38736921072080   -2.27807372477000   -0.46394927018481
N         0.54164603285237    0.84201129174087   -0.18883885656678
C         1.58601323787350    1.65221253608583    0.07191257308597
C         2.93027616427216    1.06794171985990   -0.06436896379169
C         3.54727581666658    0.67254591742179   -1.21990933105124
C         3.11092766645877    0.71626036310446   -2.63997399992518
O         4.78580942254192    0.21876863002965   -0.93946964153575
C         4.97885214423731    0.32303632870574    0.39540936943942
C         6.26967501339636   -0.14142944596499    0.96399857570178
C         3.87450631615989    0.85658270376914    0.98188557728034
O         1.39970289034152    2.82720071638500    0.38919831697098
C        -0.82506228317128    1.34456420688802   -0.09859256247125
C        -1.11050198026987    2.22422113488903   -1.35271533546831
O        -0.48589623758278    3.38610778428954   -1.33222625349515
O        -1.81981061015649    1.87666944904841   -2.25289335665465
N        -1.63584272592738    0.16784118154383    0.00769608470706
C        -2.73795951817809    0.03042420983453    0.81341960164725
C        -3.39397480162238    1.26279443596507    1.26886865367118
C        -4.02815442560524    1.39826055284803    2.48196011434532
C        -4.17045441873988    0.45706924037866    3.61992732266578
O        -4.55244321113264    2.63210001132836    2.59050073038991
C        -4.29521836618262    3.30020884125215    1.43920051166170
C        -4.79696370101583    4.69129800083791    1.29809311519703
C        -3.58174429086423    2.50949010552897    0.59540569201736
O        -3.12729344880262   -1.07833639734871    1.13095858717709
H        -2.41854347174458   -0.24739004418015   -2.42389288451543
H        -3.25846967207127   -1.64931782104384   -4.25751724690929
H        -2.73974705489903   -4.06222162908534   -4.31521820544257
H        -1.37669515630821   -5.06532818476534   -2.51815664001610
H        -0.55252364255994   -3.66343420858061   -0.66967217287177
H        -0.89928170530715   -1.66994191276271    0.61404290058364
H         0.76029293700393   -0.63686619225123   -1.65320080471553
H         0.97630966160253   -0.59448823308405    2.09942253368973
H         2.58002806094975   -1.96247554716533    3.36458271473922
H         4.07569539866162   -3.52663864365294    2.18115168010874
H         3.93387079832632   -3.73871771216224   -0.27422842441012
H         2.32298018211130   -2.37623971148264   -1.53777009956412
H         2.16493134173833    1.24311731525540   -2.72700822942335
H         3.00137871424743   -0.29110376155752   -3.04190724131076
H         3.85810796851017    1.23237572741954   -3.24106120625238
H         7.10339786105703    0.36121623417647    0.47630253817723
H         6.29585370824397    0.06965684402603    2.02828732022554
H         6.38493709435483   -1.21371977728342    0.80976344014659
H         3.72693042559734    1.06789639747611    2.02007020991226
H        -0.92899770593949    1.98827560450108    0.79163236165142
H         0.17603740049797    3.45038324843498   -0.58824423255378
H        -5.19815549564797    0.46342020525843    3.97829931738727
H        -3.52230886997508    0.75017014125294    4.44720118635698
H        -3.90710135561600   -0.54242886289379    3.28686719184637
H        -4.39395217323795    5.32372823793315    2.08818211297431
H        -4.49760825502761    5.08860557516381    0.33334710918219
H        -5.88340234258701    4.71215998363568    1.37276450440933
H        -3.27956624220358    2.75997843950296   -0.39870355773014

          :  Hamiltonian                  GFN2-xTB          :
         :: total energy            -108.838179143638 Eh    ::
         :: gradient norm              0.000651816459 Eh/a0 ::
         :: HOMO-LUMO gap              3.455267733923 eV    ::
         :: SCC energy              -110.375550940848 Eh    ::
         :: -> dispersion             -0.089421524832 Eh    ::
         :: repulsion energy           1.534589855427 Eh    ::

    * Orbital Energies and Occupations

         #    Occupation            Energy/Eh            Energy/eV
      -------------------------------------------------------------
         1        2.0000           -0.7519168             -20.4607
       ...           ...                  ...                  ...
        85        2.0000           -0.4308506             -11.7240
        86        2.0000           -0.4255820             -11.5807
        87        2.0000           -0.4251610             -11.5692
        88        2.0000           -0.4231106             -11.5134
        89        2.0000           -0.4187727             -11.3954
        90        2.0000           -0.4179161             -11.3721
        91        2.0000           -0.4131578             -11.2426
        92        2.0000           -0.4014551             -10.9241
        93        2.0000           -0.3987434             -10.8504
        94        2.0000           -0.3973730             -10.8131
        95        2.0000           -0.3912517             -10.6465
        96        2.0000           -0.3898527             -10.6084
        97        2.0000           -0.3799838             -10.3399 (HOMO)
        98                         -0.2530051              -6.8846 (LUMO)
        99                         -0.2480514              -6.7498
       100                         -0.2446600              -6.6575
       101                         -0.2425684              -6.6006
       102                         -0.2402040              -6.5363
       103                         -0.2224519              -6.0532
       104                         -0.2196166              -5.9761
       105                         -0.2182803              -5.9397
       106                         -0.2014512              -5.4818
       107                         -0.1713832              -4.6636
       108                         -0.1382402              -3.7617
       ...                                ...                  ...
       180                          0.6880538              18.7229
      -------------------------------------------------------------
                  HL-Gap            0.1269788 Eh            3.4553 eV

     #   Z          covCN         q      C6AA      Î±(0)
     1   6 C        2.922    -0.036    28.894     8.815
     2   6 C        2.921    -0.026    28.654     8.778
     3   6 C        2.920    -0.030    28.753     8.793
     4   6 C        2.920    -0.029    28.717     8.788
     5   6 C        2.925    -0.035    28.880     8.813
     6   6 C        2.973     0.006    27.882     8.661
     7   6 C        3.832     0.045    19.789     6.329
     8   6 C        3.816     0.037    19.933     6.354
     9   6 C        2.974     0.001    27.995     8.679
    10   6 C        2.924    -0.031    28.763     8.795
    11   6 C        2.920    -0.026    28.663     8.779
    12   6 C        2.921    -0.029    28.731     8.790
    13   6 C        2.920    -0.026    28.652     8.778
    14   6 C        2.924    -0.033    28.834     8.806
    15   7 N        2.762    -0.113    23.467     7.195
    16   6 C        2.759     0.272    22.401     7.751
    17   6 C        3.069    -0.060    29.408     8.892
    18   6 C        3.078     0.111    25.471     8.274
    19   6 C        3.753    -0.114    22.744     6.801
    20   8 O        1.732    -0.194    17.238     5.606
    21   6 C        3.081     0.113    25.417     8.265
    22   6 C        3.753    -0.118    22.816     6.811
    23   6 C        3.006    -0.073    29.806     8.956
    24   8 O        0.860    -0.467    23.064     6.439
    25   6 C        3.758     0.081    19.285     6.261
    26   6 C        2.685     0.352    21.028     7.505
    27   8 O        1.655    -0.374    20.362     6.091
    28   8 O        0.856    -0.366    21.008     6.145
    29   7 N        2.755    -0.116    23.530     7.204
    30   6 C        2.766     0.271    22.419     7.754
    31   6 C        3.060    -0.070    29.687     8.935
    32   6 C        3.080     0.128    25.126     8.218
    33   6 C        3.753    -0.122    22.894     6.823
    34   8 O        1.730    -0.195    17.248     5.608
    35   6 C        3.076     0.113    25.444     8.270
    36   6 C        3.753    -0.118    22.815     6.811
    37   6 C        3.005    -0.086    30.133     9.005
    38   8 O        0.860    -0.436    22.405     6.346
    39   1 H        0.926     0.068     2.111     2.272
    40   1 H        0.926     0.039     2.458     2.452
    41   1 H        0.926     0.034     2.535     2.490
    42   1 H        0.926     0.033     2.545     2.495
    43   1 H        0.926     0.027     2.636     2.539
    44   1 H        0.923     0.067     2.120     2.277
    45   1 H        0.923     0.050     2.318     2.381
    46   1 H        0.926     0.034     2.527     2.486
    47   1 H        0.926     0.040     2.442     2.444
    48   1 H        0.926     0.039     2.460     2.453
    49   1 H        0.926     0.040     2.451     2.448
    50   1 H        0.926     0.033     2.542     2.493
    51   1 H        0.925     0.053     2.282     2.362
    52   1 H        0.925     0.062     2.173     2.305
    53   1 H        0.925     0.072     2.068     2.249
    54   1 H        0.925     0.068     2.113     2.273
    55   1 H        0.925     0.059     2.207     2.323
    56   1 H        0.925     0.063     2.158     2.298
    57   1 H        0.927     0.044     2.396     2.421
    58   1 H        0.923     0.065     2.140     2.288
    59   1 H        0.800     0.364     0.558     1.173
    60   1 H        0.925     0.067     2.114     2.274
    61   1 H        0.924     0.059     2.208     2.324
    62   1 H        0.925     0.083     1.947     2.182
    63   1 H        0.925     0.063     2.165     2.301
    64   1 H        0.925     0.060     2.196     2.317
    65   1 H        0.925     0.065     2.146     2.291
    66   1 H        0.927     0.041     2.433     2.439

Wiberg/Mayer (AO) data.
largest (>0.10) Wiberg bond orders for each atom

     #   Z sym  total        # sym  WBO       # sym  WBO       # sym  WBO
 ---------------------------------------------------------------------------
     1   6 C    3.987 --     2 C    1.438     6 C    1.421    39 H    0.959
                             4 C    0.111
     2   6 C    3.992 --     3 C    1.445     1 C    1.438    40 H    0.971
                             5 C    0.113
     3   6 C    3.991 --     2 C    1.445     4 C    1.434    41 H    0.971
                             6 C    0.109
     4   6 C    3.992 --     5 C    1.450     3 C    1.434    42 H    0.971
                             1 C    0.111
     5   6 C    3.991 --     4 C    1.450     6 C    1.407    43 H    0.969
                             2 C    0.113
     6   6 C    3.984 --     1 C    1.421     5 C    1.407     7 C    0.986
                             3 C    0.109
     7   6 C    3.963 --     6 C    0.986    29 N    0.966    44 H    0.948
                             8 C    0.948
     8   6 C    3.962 --     9 C    0.992    15 N    0.961    45 H    0.952
                             7 C    0.948
     9   6 C    3.985 --    14 C    1.415    10 C    1.406     8 C    0.992
                            12 C    0.109
    10   6 C    3.991 --    11 C    1.450     9 C    1.406    46 H    0.969
                            13 C    0.111
    11   6 C    3.992 --    10 C    1.450    12 C    1.434    47 H    0.970
                            14 C    0.109
    12   6 C    3.990 --    13 C    1.441    11 C    1.434    48 H    0.971
                             9 C    0.109
    13   6 C    3.992 --    14 C    1.441    12 C    1.441    49 H    0.970
                            10 C    0.111
    14   6 C    3.991 --    13 C    1.441     9 C    1.415    50 H    0.968
                            11 C    0.109
    15   7 N    3.500 --    16 C    1.264     8 C    0.961    25 C    0.959
                            24 O    0.184
    16   6 C    3.943 --    24 O    1.584    15 N    1.264    17 C    0.993
    17   6 C    3.972 --    18 C    1.533    23 C    1.235    16 C    0.993
    18   6 C    3.914 --    17 C    1.533    20 O    1.120    19 C    1.030
                            21 C    0.126
    19   6 C    3.993 --    18 C    1.030    51 H    0.983    53 H    0.969
                            52 H    0.965
    20   8 O    2.427 --    18 C    1.120    21 C    1.105
    21   6 C    3.910 --    23 C    1.595    20 O    1.105    22 C    1.030
                            18 C    0.126
    22   6 C    3.992 --    21 C    1.030    55 H    0.983    54 H    0.970
                            56 H    0.968
    23   6 C    3.977 --    21 C    1.595    17 C    1.235    57 H    0.974
    24   8 O    1.996 --    16 C    1.584    15 N    0.184
    25   6 C    3.961 --    29 N    1.005    15 N    0.959    58 H    0.940
                            26 C    0.892
    26   6 C    3.929 --    28 O    1.772    27 O    1.196    25 C    0.892
    27   8 O    2.229 --    26 C    1.196    59 H    0.771    28 O    0.180
    28   8 O    2.082 --    26 C    1.772    27 O    0.180
    29   7 N    3.442 --    30 C    1.171    25 C    1.005     7 C    0.966
                            38 O    0.173
    30   6 C    3.946 --    38 O    1.669    29 N    1.171    31 C    1.023
    31   6 C    3.972 --    32 C    1.509    37 C    1.227    30 C    1.023
    32   6 C    3.916 --    31 C    1.509    34 O    1.134    33 C    1.034
                            35 C    0.119
    33   6 C    3.990 --    32 C    1.034    62 H    0.975    60 H    0.969
                            61 H    0.964
    34   8 O    2.430 --    32 C    1.134    35 C    1.096
    35   6 C    3.910 --    37 C    1.606    34 O    1.096    36 C    1.030
                            32 C    0.119
    36   6 C    3.992 --    35 C    1.030    64 H    0.983    63 H    0.969
                            65 H    0.969
    37   6 C    3.979 --    35 C    1.606    31 C    1.227    66 H    0.968
    38   8 O    2.004 --    30 C    1.669    29 N    0.173
    39   1 H    0.995 --     1 C    0.959
    40   1 H    0.998 --     2 C    0.971
    41   1 H    0.998 --     3 C    0.971
    42   1 H    0.998 --     4 C    0.971
    43   1 H    0.999 --     5 C    0.969
    44   1 H    0.995 --     7 C    0.948
    45   1 H    0.997 --     8 C    0.952
    46   1 H    0.999 --    10 C    0.969
    47   1 H    0.998 --    11 C    0.970
    48   1 H    0.998 --    12 C    0.971
    49   1 H    0.998 --    13 C    0.970
    50   1 H    0.999 --    14 C    0.968
    51   1 H    0.997 --    19 C    0.983
    52   1 H    0.996 --    19 C    0.965
    53   1 H    0.995 --    19 C    0.969
    54   1 H    0.995 --    22 C    0.970
    55   1 H    0.996 --    22 C    0.983
    56   1 H    0.996 --    22 C    0.968
    57   1 H    0.998 --    23 C    0.974
    58   1 H    0.995 --    25 C    0.940
    59   1 H    0.867 --    27 O    0.771
    60   1 H    0.995 --    33 C    0.969
    61   1 H    0.996 --    33 C    0.964
    62   1 H    0.993 --    33 C    0.975
    63   1 H    0.995 --    36 C    0.969
    64   1 H    0.996 --    36 C    0.983
    65   1 H    0.995 --    36 C    0.969
    66   1 H    0.998 --    37 C    0.968
 ---------------------------------------------------------------------------

molecular dipole:
                 x           y           z       tot (Debye)
 q only:        1.749      -0.687       0.565
   full:        2.006      -0.576       0.848       5.727

           -------------------------------------------------
          | TOTAL ENERGY             -108.838179143638 Eh   |
          | GRADIENT NORM               0.000651816459 Eh/Î± |
          | HOMO-LUMO GAP               3.455267733923 eV   |
           -------------------------------------------------

 * finished run on 2022/03/16 at 21:53:34.825
