   * xtb version 6.3.3 (4ae9cef) compiled by 'conda@95abc7406d43' on 2020-10-14
          program call               : xtb acid_205.xyz --opt --chrg 0 --uhf 0 --gfn 2
          number of atoms            :                    54
          number of electrons        :                   182
          charge                     :                     0
          spin                       :                   0.0

   ID    Z sym.   atoms
    1    6 C      1-14, 16-18, 20, 21, 24, 25, 29-31, 33, 34
    2    7 N      15, 28
    3   35 Br     19, 32
    4   16 S      22, 35
    5    8 O      23, 26, 27, 36
    6    1 H      37-54

          :  Hamiltonian                  GFN2-xTB          :
 * total energy  :  -101.6035820 Eh     change       -0.3002711E-08 Eh
 * total energy  :  -101.6161396 Eh     change       -0.1255756E-01 Eh
 * total energy  :  -101.6202105 Eh     change       -0.4070846E-02 Eh
 * total energy  :  -101.6215150 Eh     change       -0.1304525E-02 Eh
 * total energy  :  -101.6222699 Eh     change       -0.7549581E-03 Eh
 * total energy  :  -101.6228031 Eh     change       -0.5331489E-03 Eh
 * total energy  :  -101.6232976 Eh     change       -0.4945564E-03 Eh
 * total energy  :  -101.6238587 Eh     change       -0.5610598E-03 Eh
 * total energy  :  -101.6246079 Eh     change       -0.7492095E-03 Eh
 * total energy  :  -101.6255666 Eh     change       -0.9587273E-03 Eh
 * total energy  :  -101.6471048 Eh     change       -0.1069350E-04 Eh
 * total energy  :  -101.6471128 Eh     change       -0.7965973E-05 Eh
 * total energy  :  -101.6471192 Eh     change       -0.6411690E-05 Eh
 * total energy  :  -101.6471254 Eh     change       -0.6209957E-05 Eh
 * total energy  :  -101.6471313 Eh     change       -0.5887638E-05 Eh
 * total energy  :  -101.6471369 Eh     change       -0.5590744E-05 Eh
 * total energy  :  -101.6471422 Eh     change       -0.5291771E-05 Eh
 * total energy  :  -101.6471472 Eh     change       -0.5052751E-05 Eh
 * total energy  :  -101.6471517 Eh     change       -0.4493721E-05 Eh
   *** GEOMETRY OPTIMIZATION CONVERGED AFTER 119 ITERATIONS ***

 final structure:
================
54
 xtb: 6.3.3 (4ae9cef)
C         2.71737881700321   -1.71124512876114    0.84087553448024
C         3.76728699272761   -2.56849876000390    1.11492308629770
C         3.84815901407408   -3.79405649235200    0.47567598045377
C         2.87619302163001   -4.15914336230299   -0.43978063204477
C         1.82843444413094   -3.30025015749387   -0.71977769524166
C         1.74566902936395   -2.07029643036697   -0.08430282796797
C         0.59025171096875   -1.14974627041822   -0.37127720174075
C        -0.44175324931170   -1.13634891483221    0.77169811044426
C        -1.60521428845675   -2.04522212715942    0.48080884936140
C        -2.51338718628326   -1.72008033603460   -0.51902234718947
C        -3.56969739798730   -2.56624036884228   -0.80013299433283
C        -3.71862864160866   -3.74915110448751   -0.09575888166062
C        -2.80727652595834   -4.08290004614445    0.89071454856136
C        -1.75439905604566   -3.23310601111574    1.18012183933766
N        -0.83277114373317    0.26631694283411    0.85933369123681
C        -1.93574549608820    0.65918528934024    1.54147920201503
C        -2.22738044919079    2.12043170992167    1.45422556936460
C        -1.64534096246180    3.16363301205381    2.11363147451854
Br       -0.17555777200259    2.96079284918786    3.28031819387310
C        -2.23835190933339    4.41833252678639    1.84639736577226
C        -3.28102390791124    4.30323501323485    0.98866810530934
S        -3.56341320298612    2.67679253498457    0.50937155743948
O        -2.65094216107061   -0.10350715377425    2.14916239370235
C         0.11206460369726    1.14121768304479    0.21127043498211
C        -0.57395902407416    2.07671694733765   -0.81047232526152
O        -1.23671102160497    1.38303465074914   -1.72299168620965
O        -0.48103179296494    3.27337784305684   -0.79808509814293
N         1.01471402567055    0.24048409490234   -0.46546350700961
C         1.93873177867826    0.61092530412650   -1.39035167299466
C         2.26429005650943    2.06214235543722   -1.38765431029883
C         2.10549580061747    2.94788701783380   -2.41371423628849
Br        1.23399726414089    2.50012407830264   -4.02242483298650
C         2.56291217696171    4.25334812776076   -2.12443742191325
C         3.08645823239210    4.33238509064497   -0.87715891961052
S         3.01766103934052    2.83555917272790   -0.03678839882458
O         2.47167487116100   -0.17437896436191   -2.13993705053700
H         2.66040926413863   -0.75300157464780    1.33797106182697
H         4.52536039386661   -2.27723744610116    1.82639181760236
H         4.67008597606026   -4.46128649732218    0.68808242710326
H         2.93555759290732   -5.11346214313877   -0.94122834698741
H         1.07310086140279   -3.58176505557792   -1.43853225833953
H         0.10982957089838   -1.44651550595540   -1.31340935338322
H         0.03529788721704   -1.43374328322333    1.71566209210750
H        -2.39950637579098   -0.79708020265319   -1.07008817731357
H        -4.27882959875747   -2.30139418297668   -1.57040356451951
H        -4.54516861625232   -4.40847545392527   -0.31517815891703
H        -2.91950402118483   -5.00414532684950    1.44259179450569
H        -1.04819040511935   -3.48941187599504    1.95621685616839
H        -1.89125303552837    5.33988105909265    2.27535295407811
H        -3.90868222713565    5.08069374781434    0.60225262460806
H         0.65415065008726    1.77133626328443    0.93698255291993
H        -1.60794208668534    1.95686831213903   -2.41505123321656
H         2.49353846318125    5.07134424365464   -2.81719856929773
H         3.51295601670819    5.18564230659697   -0.38955941585433

          :  Hamiltonian                  GFN2-xTB          :
         :: total energy            -101.647151710376 Eh    ::
         :: gradient norm              0.000903035377 Eh/a0 ::
         :: HOMO-LUMO gap              3.015836263931 eV    ::
         :: SCC energy              -102.986210146267 Eh    ::
         :: -> dispersion             -0.090812145560 Eh    ::
         :: repulsion energy           1.336350949176 Eh    ::

    * Orbital Energies and Occupations

         #    Occupation            Energy/Eh            Energy/eV
      -------------------------------------------------------------
         1        2.0000           -0.8533648             -23.2212
       ...           ...                  ...                  ...
        79        2.0000           -0.4293698             -11.6837
        80        2.0000           -0.4281253             -11.6499
        81        2.0000           -0.4249263             -11.5628
        82        2.0000           -0.4235981             -11.5267
        83        2.0000           -0.4233808             -11.5208
        84        2.0000           -0.4210237             -11.4566
        85        2.0000           -0.4163296             -11.3289
        86        2.0000           -0.4129216             -11.2362
        87        2.0000           -0.4115576             -11.1991
        88        2.0000           -0.4102504             -11.1635
        89        2.0000           -0.4084815             -11.1153
        90        2.0000           -0.4073271             -11.0839
        91        2.0000           -0.4023976             -10.9498 (HOMO)
        92                         -0.2915676              -7.9340 (LUMO)
        93                         -0.2838321              -7.7235
        94                         -0.2749038              -7.4805
        95                         -0.2501413              -6.8067
        96                         -0.2479636              -6.7474
        97                         -0.2409054              -6.5554
        98                         -0.2382086              -6.4820
        99                         -0.2344016              -6.3784
       100                         -0.2312671              -6.2931
       101                         -0.2297356              -6.2514
       102                         -0.2293513              -6.2410
       ...                                ...                  ...
       182                          0.6708732              18.2554
      -------------------------------------------------------------
                  HL-Gap            0.1108299 Eh            3.0158 eV

     #   Z          covCN         q      C6AA      Î±(0)
     1   6 C        2.924    -0.031    28.768     8.796
     2   6 C        2.920    -0.026    28.647     8.777
     3   6 C        2.920    -0.027    28.676     8.782
     4   6 C        2.920    -0.024    28.608     8.771
     5   6 C        2.924    -0.028    28.702     8.786
     6   6 C        2.975     0.010    27.780     8.646
     7   6 C        3.826     0.046    19.782     6.329
     8   6 C        3.824     0.046    19.785     6.330
     9   6 C        2.975     0.013    27.722     8.637
    10   6 C        2.924    -0.030    28.761     8.795
    11   6 C        2.920    -0.025    28.638     8.776
    12   6 C        2.920    -0.027    28.670     8.781
    13   6 C        2.920    -0.024    28.605     8.771
    14   6 C        2.924    -0.028    28.701     8.785
    15   7 N        2.766    -0.108    23.355     7.178
    16   6 C        2.782     0.279    22.286     7.732
    17   6 C        3.048    -0.034    28.790     8.800
    18   6 C        3.136     0.067    26.280     8.391
    19  35 Br       1.031    -0.148   189.105    22.172
    20   6 C        3.149    -0.043    28.791     8.777
    21   6 C        2.949    -0.020    28.518     8.759
    22  16 S        2.345     0.040   139.428    19.874
    23   8 O        0.859    -0.400    21.675     6.242
    24   6 C        3.751     0.090    19.148     6.241
    25   6 C        2.688     0.351    21.039     7.507
    26   8 O        1.659    -0.349    19.883     6.019
    27   8 O        0.856    -0.397    21.625     6.235
    28   7 N        2.767    -0.114    23.490     7.198
    29   6 C        2.778     0.278    22.297     7.734
    30   6 C        3.054    -0.034    28.795     8.800
    31   6 C        3.136     0.073    26.149     8.370
    32  35 Br       1.036    -0.141   188.937    22.163
    33   6 C        3.149    -0.045    28.822     8.782
    34   6 C        2.949    -0.017    28.439     8.747
    35  16 S        2.337     0.029   139.895    19.907
    36   8 O        0.859    -0.396    21.608     6.232
    37   1 H        0.926     0.031     2.574     2.509
    38   1 H        0.926     0.039     2.459     2.452
    39   1 H        0.926     0.039     2.458     2.452
    40   1 H        0.926     0.041     2.436     2.441
    41   1 H        0.926     0.038     2.482     2.463
    42   1 H        0.923     0.063     2.166     2.302
    43   1 H        0.923     0.058     2.225     2.333
    44   1 H        0.926     0.035     2.512     2.478
    45   1 H        0.926     0.038     2.480     2.463
    46   1 H        0.926     0.039     2.467     2.456
    47   1 H        0.926     0.040     2.446     2.446
    48   1 H        0.926     0.036     2.506     2.475
    49   1 H        0.926     0.068     2.108     2.270
    50   1 H        0.926     0.069     2.097     2.265
    51   1 H        0.923     0.073     2.054     2.241
    52   1 H        0.804     0.353     0.582     1.198
    53   1 H        0.926     0.067     2.115     2.274
    54   1 H        0.926     0.069     2.099     2.266

Wiberg/Mayer (AO) data.
largest (>0.10) Wiberg bond orders for each atom

     #   Z sym  total        # sym  WBO       # sym  WBO       # sym  WBO
 ---------------------------------------------------------------------------
     1   6 C    3.991 --     2 C    1.447     6 C    1.411    37 H    0.969
                             4 C    0.112
     2   6 C    3.992 --     1 C    1.447     3 C    1.437    38 H    0.971
                             5 C    0.111
     3   6 C    3.991 --     4 C    1.440     2 C    1.437    39 H    0.971
                             6 C    0.109
     4   6 C    3.992 --     5 C    1.443     3 C    1.440    40 H    0.970
                             1 C    0.112
     5   6 C    3.990 --     4 C    1.443     6 C    1.415    41 H    0.968
                             2 C    0.111
     6   6 C    3.983 --     5 C    1.415     1 C    1.411     7 C    0.989
                             3 C    0.109
     7   6 C    3.957 --     6 C    0.989     8 C    0.955    42 H    0.951
                            28 N    0.951
     8   6 C    3.957 --     9 C    0.990     7 C    0.955    43 H    0.953
                            15 N    0.948
     9   6 C    3.984 --    14 C    1.416    10 C    1.408     8 C    0.990
                            12 C    0.109
    10   6 C    3.991 --    11 C    1.449     9 C    1.408    44 H    0.967
                            13 C    0.112
    11   6 C    3.992 --    10 C    1.449    12 C    1.435    45 H    0.971
                            14 C    0.110
    12   6 C    3.991 --    13 C    1.442    11 C    1.435    46 H    0.971
                             9 C    0.109
    13   6 C    3.992 --    12 C    1.442    14 C    1.441    47 H    0.970
                            10 C    0.112
    14   6 C    3.990 --    13 C    1.441     9 C    1.416    48 H    0.968
                            11 C    0.110
    15   7 N    3.475 --    16 C    1.216    24 C    0.987     8 C    0.948
                            23 O    0.200
    16   6 C    3.956 --    23 O    1.697    15 N    1.216    17 C    0.964
    17   6 C    3.946 --    18 C    1.544    22 S    1.161    16 C    0.964
                            21 C    0.109
    18   6 C    3.932 --    17 C    1.544    20 C    1.252    19 Br   0.984
    19  35 Br   1.140 --    18 C    0.984
    20   6 C    3.984 --    21 C    1.627    18 C    1.252    49 H    0.962
    21   6 C    3.951 --    20 C    1.627    22 S    1.202    50 H    0.966
                            17 C    0.109
    22  16 S    2.662 --    21 C    1.202    17 C    1.161
    23   8 O    2.049 --    16 C    1.697    15 N    0.200
    24   6 C    3.968 --    15 N    0.987    28 N    0.983    51 H    0.937
                            25 C    0.907
    25   6 C    3.922 --    27 O    1.765    26 O    1.173    24 C    0.907
    26   8 O    2.239 --    25 C    1.173    52 H    0.848    27 O    0.185
    27   8 O    2.053 --    25 C    1.765    26 O    0.185
    28   7 N    3.461 --    29 C    1.201    24 C    0.983     7 C    0.951
                            36 O    0.194
    29   6 C    3.955 --    36 O    1.700    28 N    1.201    30 C    0.976
    30   6 C    3.945 --    31 C    1.543    35 S    1.156    29 C    0.976
                            34 C    0.109
    31   6 C    3.935 --    30 C    1.543    33 C    1.251    32 Br   0.989
    32  35 Br   1.137 --    31 C    0.989
    33   6 C    3.984 --    34 C    1.629    31 C    1.251    53 H    0.961
    34   6 C    3.951 --    33 C    1.629    35 S    1.200    54 H    0.966
                            30 C    0.109
    35  16 S    2.658 --    34 C    1.200    30 C    1.156
    36   8 O    2.051 --    29 C    1.700    28 N    0.194
    37   1 H    0.999 --     1 C    0.969
    38   1 H    0.998 --     2 C    0.971
    39   1 H    0.998 --     3 C    0.971
    40   1 H    0.998 --     4 C    0.970
    41   1 H    0.999 --     5 C    0.968
    42   1 H    0.995 --     7 C    0.951
    43   1 H    0.996 --     8 C    0.953
    44   1 H    0.999 --    10 C    0.967
    45   1 H    0.998 --    11 C    0.971
    46   1 H    0.998 --    12 C    0.971
    47   1 H    0.998 --    13 C    0.970
    48   1 H    0.999 --    14 C    0.968
    49   1 H    0.995 --    20 C    0.962
    50   1 H    0.994 --    21 C    0.966
    51   1 H    0.994 --    24 C    0.937
    52   1 H    0.875 --    26 O    0.848
    53   1 H    0.995 --    33 C    0.961
    54   1 H    0.994 --    34 C    0.966
 ---------------------------------------------------------------------------

molecular dipole:
                 x           y           z       tot (Debye)
 q only:       -0.325       0.150      -0.051
   full:       -0.331       0.796       0.004       2.190

           -------------------------------------------------
          | TOTAL ENERGY             -101.647151710376 Eh   |
          | GRADIENT NORM               0.000903035377 Eh/Î± |
          | HOMO-LUMO GAP               3.015836263931 eV   |
           -------------------------------------------------

 * finished run on 2022/03/16 at 22:29:53.354
