   * xtb version 6.3.3 (4ae9cef) compiled by 'conda@95abc7406d43' on 2020-10-14
          program call               : xtb acid_400.xyz --opt --chrg 0 --uhf 0 --gfn 2
          number of atoms            :                   108
          number of electrons        :                   274
          charge                     :                     0
          spin                       :                   0.0

   ID    Z sym.   atoms
    1    6 C      1-14, 16-30, 32, 33, 37-51
    2    7 N      15, 36
    3    8 O      31, 34, 35, 52
    4    1 H      53-108

          :  Hamiltonian                  GFN2-xTB          :
 * total energy  :  -149.2481565 Eh     change       -0.2121737E-08 Eh
 * total energy  :  -149.2649848 Eh     change       -0.1682829E-01 Eh
 * total energy  :  -149.2708551 Eh     change       -0.5870377E-02 Eh
 * total energy  :  -149.2730316 Eh     change       -0.2176424E-02 Eh
 * total energy  :  -149.2744236 Eh     change       -0.1392035E-02 Eh
 * total energy  :  -149.2752153 Eh     change       -0.7917514E-03 Eh
 * total energy  :  -149.2758900 Eh     change       -0.6746243E-03 Eh
 * total energy  :  -149.2765542 Eh     change       -0.6641992E-03 Eh
 * total energy  :  -149.2772448 Eh     change       -0.6905809E-03 Eh
 * total energy  :  -149.2777387 Eh     change       -0.4939956E-03 Eh
 * total energy  :  -149.2865746 Eh     change       -0.1174349E-04 Eh
 * total energy  :  -149.2865864 Eh     change       -0.1187620E-04 Eh
 * total energy  :  -149.2865983 Eh     change       -0.1189051E-04 Eh
 * total energy  :  -149.2866104 Eh     change       -0.1207670E-04 Eh
 * total energy  :  -149.2866229 Eh     change       -0.1253841E-04 Eh
 * total energy  :  -149.2866365 Eh     change       -0.1354397E-04 Eh
 * total energy  :  -149.2866500 Eh     change       -0.1351039E-04 Eh
 * total energy  :  -149.2866627 Eh     change       -0.1272032E-04 Eh
 * total energy  :  -149.2866660 Eh     change       -0.3249218E-05 Eh
   *** GEOMETRY OPTIMIZATION CONVERGED AFTER 94 ITERATIONS ***

 final structure:
================
108
 xtb: 6.3.3 (4ae9cef)
C         2.75876219714154    1.31741861448187   -2.02925045961048
C         3.30760164329199    0.71460593382711   -3.14656142083133
C         2.61882446784266   -0.29103314591664   -3.80252515060901
C         1.37475957664237   -0.68655942186144   -3.34089317285799
C         0.82485890295705   -0.08051880081009   -2.22707250202043
C         1.51516351074912    0.92223370458950   -1.55793629147361
C         0.91722611524096    1.58240507410147   -0.33935892287973
C        -0.28594617057768    2.47831431625611   -0.71699124391260
C        -0.40179374012701    3.78536347831368    0.03476935737564
C         0.18772546965549    4.01364878744272    1.27097089373174
C        -0.01403851292437    5.21527636588921    1.93012723495886
C        -0.80920358687979    6.19726912384416    1.36714348152573
C        -1.40756533173854    5.97294285239177    0.13818274424117
C        -1.20516607251266    4.77569916411031   -0.52248960597827
N        -1.43369351475282    1.63224057719012   -0.41031300355578
C        -2.51682765586724    1.52303909995280   -1.22472776497460
C        -3.46598000632514    0.44784477008182   -0.80482496743775
C        -3.20163580860314   -0.86547694502648   -1.17552323379719
C        -4.03515847224570   -1.89089130008918   -0.76081907364769
C        -3.77054312740172   -3.34845957964075   -1.10457311518080
C        -4.97936554595641   -3.91862303721516   -1.85927567801198
C        -3.54628566835334   -4.12857201098859    0.19865763203867
C        -2.52869788525786   -3.52888707129237   -1.98228667727659
C        -5.13833004914405   -1.55994440524140    0.02451677753426
C        -5.43076688375039   -0.25541208626154    0.39192345026520
C        -6.62912409953143    0.11289971900908    1.25325906472826
C        -7.46151167703431   -1.10279923079392    1.66938265310616
C        -7.53472213300902    1.06705242828253    0.46275455658916
C        -6.12547313907798    0.80671592435225    2.52722208578649
C        -4.57372269705492    0.75394819709765   -0.03833424859782
O        -2.66384645134306    2.23915715854672   -2.19208303434633
C        -1.08765126116700    0.80608492588506    0.70834333244958
C        -1.39782499106685    1.48010486057160    2.05513286016384
O        -2.61644198314564    2.01503898999695    2.06293278829886
O        -0.65194399014081    1.50316221601637    2.99198145612369
N         0.33589112675990    0.60026459006476    0.57006072542773
C         0.87467633489702   -0.61900685894438    0.86423274222788
C         2.34971917032777   -0.68923503245490    0.68414986563970
C         3.16377797318193    0.21541460394564    1.34409108318468
C         4.54423632197900    0.16615680249100    1.18789572313736
C         5.40912841701109    1.17478499964813    1.92960846943907
C         6.90321744260488    1.00178015608399    1.64375951367336
C         5.00259973032915    2.59218029635120    1.50080288491020
C         5.18679650940980    1.00428529700233    3.43873733793396
C         5.06713168737450   -0.80785753560666    0.35011527958944
C         4.26933576061823   -1.74092736083028   -0.30954977516665
C         4.92868905760269   -2.79234256598987   -1.18854703053223
C         5.78288933591870   -2.10136535007608   -2.26026075513548
C         5.81552199270121   -3.68444182695466   -0.30852206221532
C         3.90553389043505   -3.67955998764281   -1.90193723975810
C         2.89882485969009   -1.67889853447218   -0.11982779418137
O         0.18688830216545   -1.53892925384695    1.25969674048023
H         3.30094345065405    2.09689816356878   -1.51434112459606
H         4.27654098160346    1.03064564357911   -3.50416330150826
H         3.04856779085244   -0.76535447636432   -4.67265549114248
H         0.83126880430296   -1.46889979299148   -3.85010957808111
H        -0.14364962408191   -0.39525958492324   -1.86809128945657
H         1.69307673558899    2.17137699202817    0.15757325502937
H        -0.30612110635685    2.68377339477780   -1.79310857538347
H         0.79768624823908    3.25951081988235    1.74383302778863
H         0.45089553994355    5.37834866194890    2.89125916712182
H        -0.96419991826856    7.13220483409565    1.88505321068540
H        -2.03287235575687    6.73256939882615   -0.30674124451658
H        -1.68023417217416    4.59189367879928   -1.47458665019106
H        -2.33971530859587   -1.06350027447492   -1.79154067099333
H        -4.79339204201179   -4.95463304346506   -2.13465069651643
H        -5.87968487071541   -3.88640875773967   -1.25209081813320
H        -5.15947166125346   -3.34676859687563   -2.76732701901523
H        -4.41862298203543   -4.08295057251414    0.84489033708503
H        -2.69651670741755   -3.71728136340437    0.73962499373444
H        -3.34102719381615   -5.17382339095941   -0.02266801587220
H        -2.63219120598961   -2.99469584492845   -2.92444430549810
H        -2.39682580944282   -4.58517079496369   -2.20841220777882
H        -1.63478678735651   -3.18497101340688   -1.46648128929527
H        -5.78360878329756   -2.35553339913942    0.35575165624139
H        -8.29779416651694   -0.77490627121870    2.28367273407247
H        -7.86671221278577   -1.61659870976116    0.80071599578937
H        -6.86934211637822   -1.80146925061482    2.25606900999530
H        -8.40185943485264    1.34247993342509    1.05954535731942
H        -7.00699195139652    1.97548265139761    0.18694384078583
H        -7.88159359442797    0.58564186538094   -0.44911391101731
H        -5.58492942928445    1.71864954184480    2.29046480007941
H        -5.45731142024872    0.14500325424954    3.07488575264241
H        -6.96434621791581    1.06222860003615    3.17135561406534
H        -4.74842801907861    1.78509344222604    0.22394016020045
H        -1.61447601743277   -0.16059938886578    0.70704675247574
H        -2.80703814840362    2.41858854769356    2.92574169171261
H         2.70526105536677    0.94006998202956    1.99956793123036
H         7.25018475651911    0.01987667277653    1.95694073127898
H         7.46672959377516    1.74828591067783    2.19995714571816
H         7.11925889855581    1.13842781850393    0.58645943616108
H         3.96590954824268    2.80091034518406    1.75042607339216
H         5.62544053518132    3.32884451913334    2.00387695044348
H         5.12972855972251    2.71154452387156    0.42639413272904
H         4.14877182899168    1.17537968600346    3.70895863965709
H         5.80430716229778    1.70963674301265    3.99104961024988
H         5.45517012025062   -0.00437858152927    3.74543722223907
H         6.13315900576203   -0.85842644401333    0.20832375415090
H         6.22914949085050   -2.84497003991099   -2.91728131940121
H         5.16243810145318   -1.43681746973701   -2.85698896118701
H         6.58553588972351   -1.51743562890621   -1.81894849016294
H         5.21702753824020   -4.16099720013406    0.46482721339672
H         6.28385265669445   -4.45996939613821   -0.91093782428666
H         6.59943585649396   -3.10765991949299    0.17498932811651
H         3.30394848492206   -4.23614865709853   -1.18775837895924
H         4.42506802821009   -4.39748412251307   -2.53358224465407
H         3.25058621384197   -3.08265711200601   -2.53286730792017
H         2.22727803942384   -2.37518021287274   -0.59265432056063

          :  Hamiltonian                  GFN2-xTB          :
         :: total energy            -149.286665973296 Eh    ::
         :: gradient norm              0.000203033899 Eh/a0 ::
         :: HOMO-LUMO gap              3.575459082465 eV    ::
         :: SCC energy              -151.610233121542 Eh    ::
         :: -> dispersion             -0.144927852877 Eh    ::
         :: repulsion energy           2.317254005728 Eh    ::

    * Orbital Energies and Occupations

         #    Occupation            Energy/Eh            Energy/eV
      -------------------------------------------------------------
         1        2.0000           -0.7639013             -20.7868
       ...           ...                  ...                  ...
       125        2.0000           -0.4146000             -11.2818
       126        2.0000           -0.4111570             -11.1882
       127        2.0000           -0.4101478             -11.1607
       128        2.0000           -0.4087881             -11.1237
       129        2.0000           -0.4081826             -11.1072
       130        2.0000           -0.4007294             -10.9044
       131        2.0000           -0.3961917             -10.7809
       132        2.0000           -0.3957582             -10.7691
       133        2.0000           -0.3935221             -10.7083
       134        2.0000           -0.3913831             -10.6501
       135        2.0000           -0.3902168             -10.6183
       136        2.0000           -0.3881240             -10.5614
       137        2.0000           -0.3842533             -10.4561 (HOMO)
       138                         -0.2528576              -6.8806 (LUMO)
       139                         -0.2416720              -6.5762
       140                         -0.2375691              -6.4646
       141                         -0.2331671              -6.3448
       142                         -0.2319033              -6.3104
       143                         -0.2286508              -6.2219
       144                         -0.2229484              -6.0667
       145                         -0.2196123              -5.9760
       146                         -0.2188564              -5.9554
       147                         -0.2091739              -5.6919
       148                         -0.1927622              -5.2453
       ...                                ...                  ...
       264                          0.6685882              18.1932
      -------------------------------------------------------------
                  HL-Gap            0.1313957 Eh            3.5755 eV

     #   Z          covCN         q      C6AA      Î±(0)
     1   6 C        2.924    -0.034    28.845     8.808
     2   6 C        2.920    -0.026    28.655     8.778
     3   6 C        2.921    -0.029    28.717     8.788
     4   6 C        2.919    -0.026    28.654     8.778
     5   6 C        2.924    -0.028    28.705     8.786
     6   6 C        2.973    -0.001    28.049     8.687
     7   6 C        3.821     0.035    19.972     6.360
     8   6 C        3.841     0.039    19.897     6.346
     9   6 C        2.971    -0.002    28.068     8.690
    10   6 C        2.922    -0.038    28.947     8.823
    11   6 C        2.920    -0.030    28.744     8.792
    12   6 C        2.920    -0.031    28.763     8.795
    13   6 C        2.919    -0.028    28.689     8.783
    14   6 C        2.926    -0.033    28.822     8.804
    15   7 N        2.771    -0.115    23.501     7.200
    16   6 C        2.761     0.275    22.352     7.742
    17   6 C        2.977    -0.023    28.580     8.769
    18   6 C        2.929    -0.042    29.054     8.840
    19   6 C        2.972     0.011    27.769     8.644
    20   6 C        3.903     0.027    20.070     6.368
    21   6 C        3.761    -0.106    22.562     6.771
    22   6 C        3.762    -0.107    22.597     6.776
    23   6 C        3.761    -0.106    22.571     6.773
    24   6 C        2.933    -0.046    29.136     8.852
    25   6 C        2.973     0.010    27.794     8.648
    26   6 C        3.903     0.026    20.079     6.369
    27   6 C        3.761    -0.107    22.600     6.777
    28   6 C        3.762    -0.107    22.586     6.775
    29   6 C        3.762    -0.108    22.602     6.777
    30   6 C        2.930    -0.035    28.877     8.813
    31   8 O        0.859    -0.426    22.206     6.318
    32   6 C        3.782     0.094    19.043     6.216
    33   6 C        2.689     0.354    20.993     7.498
    34   8 O        1.659    -0.365    20.186     6.065
    35   8 O        0.856    -0.383    21.335     6.193
    36   7 N        2.767    -0.123    23.679     7.227
    37   6 C        2.767     0.276    22.335     7.740
    38   6 C        2.976    -0.020    28.489     8.755
    39   6 C        2.931    -0.040    28.984     8.829
    40   6 C        2.972     0.009    27.822     8.652
    41   6 C        3.903     0.026    20.081     6.370
    42   6 C        3.761    -0.107    22.597     6.776
    43   6 C        3.762    -0.102    22.503     6.762
    44   6 C        3.762    -0.107    22.584     6.774
    45   6 C        2.934    -0.045    29.123     8.850
    46   6 C        2.973     0.009    27.811     8.650
    47   6 C        3.903     0.025    20.092     6.371
    48   6 C        3.762    -0.107    22.592     6.776
    49   6 C        3.762    -0.106    22.567     6.772
    50   6 C        3.761    -0.109    22.625     6.780
    51   6 C        2.928    -0.036    28.893     8.815
    52   8 O        0.859    -0.434    22.368     6.341
    53   1 H        0.926     0.031     2.568     2.506
    54   1 H        0.926     0.036     2.500     2.473
    55   1 H        0.926     0.036     2.496     2.471
    56   1 H        0.926     0.038     2.474     2.460
    57   1 H        0.926     0.032     2.562     2.503
    58   1 H        0.924     0.057     2.235     2.338
    59   1 H        0.924     0.074     2.041     2.234
    60   1 H        0.926     0.037     2.483     2.464
    61   1 H        0.926     0.036     2.500     2.473
    62   1 H        0.926     0.034     2.524     2.484
    63   1 H        0.926     0.038     2.477     2.461
    64   1 H        0.926     0.055     2.256     2.349
    65   1 H        0.926     0.034     2.528     2.487
    66   1 H        0.925     0.038     2.480     2.463
    67   1 H        0.925     0.036     2.501     2.473
    68   1 H        0.925     0.035     2.523     2.484
    69   1 H        0.925     0.035     2.515     2.480
    70   1 H        0.925     0.043     2.407     2.426
    71   1 H        0.925     0.038     2.471     2.458
    72   1 H        0.925     0.034     2.529     2.487
    73   1 H        0.925     0.036     2.497     2.471
    74   1 H        0.925     0.039     2.465     2.455
    75   1 H        0.926     0.043     2.404     2.425
    76   1 H        0.925     0.037     2.490     2.468
    77   1 H        0.925     0.037     2.495     2.470
    78   1 H        0.925     0.036     2.501     2.473
    79   1 H        0.925     0.037     2.483     2.464
    80   1 H        0.925     0.039     2.460     2.453
    81   1 H        0.925     0.036     2.500     2.473
    82   1 H        0.925     0.037     2.492     2.469
    83   1 H        0.925     0.033     2.541     2.493
    84   1 H        0.925     0.038     2.475     2.460
    85   1 H        0.926     0.037     2.482     2.464
    86   1 H        0.923     0.095     1.832     2.117
    87   1 H        0.804     0.341     0.610     1.227
    88   1 H        0.926     0.035     2.520     2.482
    89   1 H        0.925     0.037     2.494     2.470
    90   1 H        0.925     0.037     2.483     2.464
    91   1 H        0.925     0.035     2.517     2.481
    92   1 H        0.925     0.033     2.542     2.494
    93   1 H        0.925     0.039     2.465     2.455
    94   1 H        0.925     0.030     2.588     2.516
    95   1 H        0.925     0.041     2.441     2.443
    96   1 H        0.925     0.038     2.474     2.460
    97   1 H        0.925     0.036     2.502     2.474
    98   1 H        0.926     0.043     2.409     2.427
    99   1 H        0.925     0.038     2.475     2.460
   100   1 H        0.925     0.035     2.521     2.483
   101   1 H        0.925     0.036     2.506     2.475
   102   1 H        0.925     0.037     2.492     2.469
   103   1 H        0.925     0.039     2.468     2.457
   104   1 H        0.925     0.036     2.498     2.472
   105   1 H        0.925     0.040     2.453     2.449
   106   1 H        0.925     0.037     2.486     2.466
   107   1 H        0.925     0.035     2.518     2.481
   108   1 H        0.926     0.044     2.392     2.418

Wiberg/Mayer (AO) data.
largest (>0.10) Wiberg bond orders for each atom

     #   Z sym  total        # sym  WBO       # sym  WBO       # sym  WBO
 ---------------------------------------------------------------------------
     1   6 C    3.990 --     2 C    1.442     6 C    1.414    53 H    0.968
                             4 C    0.110
     2   6 C    3.992 --     1 C    1.442     3 C    1.439    54 H    0.970
                             5 C    0.111
     3   6 C    3.990 --     2 C    1.439     4 C    1.435    55 H    0.971
                             6 C    0.109
     4   6 C    3.992 --     5 C    1.448     3 C    1.435    56 H    0.971
                             1 C    0.110
     5   6 C    3.991 --     4 C    1.448     6 C    1.409    57 H    0.965
                             2 C    0.111
     6   6 C    3.987 --     1 C    1.414     5 C    1.409     7 C    0.989
                             3 C    0.109
     7   6 C    3.967 --     6 C    0.989    36 N    0.962     8 C    0.959
                            58 H    0.950
     8   6 C    3.963 --     9 C    0.984     7 C    0.959    15 N    0.953
                            59 H    0.953
     9   6 C    3.985 --    10 C    1.420    14 C    1.406     8 C    0.984
                            12 C    0.109
    10   6 C    3.991 --    11 C    1.437     9 C    1.420    60 H    0.964
                            13 C    0.110
    11   6 C    3.992 --    12 C    1.444    10 C    1.437    61 H    0.971
                            14 C    0.113
    12   6 C    3.991 --    11 C    1.444    13 C    1.433    62 H    0.971
                             9 C    0.109
    13   6 C    3.992 --    14 C    1.451    12 C    1.433    63 H    0.970
                            10 C    0.110
    14   6 C    3.989 --    13 C    1.451     9 C    1.406    64 H    0.966
                            11 C    0.113
    15   7 N    3.468 --    16 C    1.201    32 C    0.993     8 C    0.953
                            31 O    0.187
    16   6 C    3.939 --    31 O    1.695    15 N    1.201    17 C    0.957
    17   6 C    3.986 --    30 C    1.427    18 C    1.387    16 C    0.957
                            24 C    0.105
    18   6 C    3.988 --    19 C    1.426    17 C    1.387    65 H    0.961
                            25 C    0.105
    19   6 C    3.985 --    18 C    1.426    24 C    1.397    20 C    0.983
                            30 C    0.108
    20   6 C    3.990 --    23 C    1.000    21 C    0.988    22 C    0.986
                            19 C    0.983
    21   6 C    3.996 --    20 C    0.988    68 H    0.987    66 H    0.984
                            67 H    0.983
    22   6 C    3.995 --    20 C    0.986    70 H    0.986    71 H    0.984
                            69 H    0.984
    23   6 C    3.996 --    20 C    1.000    72 H    0.985    73 H    0.984
                            74 H    0.984
    24   6 C    3.990 --    25 C    1.435    19 C    1.397    75 H    0.958
                            17 C    0.105
    25   6 C    3.985 --    24 C    1.435    30 C    1.393    26 C    0.983
                            18 C    0.105
    26   6 C    3.990 --    27 C    1.000    28 C    0.987    29 C    0.987
                            25 C    0.983
    27   6 C    3.996 --    26 C    1.000    78 H    0.985    77 H    0.984
                            76 H    0.984
    28   6 C    3.995 --    26 C    0.987    81 H    0.987    79 H    0.984
                            80 H    0.983
    29   6 C    3.996 --    26 C    0.987    83 H    0.987    84 H    0.985
                            82 H    0.983
    30   6 C    3.989 --    17 C    1.427    25 C    1.393    85 H    0.964
                            19 C    0.108
    31   8 O    2.014 --    16 C    1.695    15 N    0.187
    32   6 C    3.970 --    15 N    0.993    36 N    0.983    86 H    0.918
                            33 C    0.917
    33   6 C    3.918 --    35 O    1.783    34 O    1.149    32 C    0.917
    34   8 O    2.214 --    33 C    1.149    87 H    0.858    35 O    0.180
    35   8 O    2.062 --    33 C    1.783    34 O    0.180
    36   7 N    3.441 --    37 C    1.189    32 C    0.983     7 C    0.962
                            52 O    0.180
    37   6 C    3.940 --    52 O    1.689    36 N    1.189    38 C    0.976
    38   6 C    3.986 --    39 C    1.411    51 C    1.391    37 C    0.976
                            45 C    0.103
    39   6 C    3.989 --    38 C    1.411    40 C    1.403    88 H    0.962
                            46 C    0.106
    40   6 C    3.986 --    45 C    1.427    39 C    1.403    41 C    0.983
                            51 C    0.103
    41   6 C    3.990 --    42 C    1.000    44 C    0.987    43 C    0.987
                            40 C    0.983
    42   6 C    3.996 --    41 C    1.000    91 H    0.985    89 H    0.984
                            90 H    0.984
    43   6 C    3.996 --    41 C    0.987    94 H    0.986    93 H    0.984
                            92 H    0.983
    44   6 C    3.995 --    41 C    0.987    97 H    0.987    96 H    0.984
                            95 H    0.983
    45   6 C    3.990 --    40 C    1.427    46 C    1.400    98 H    0.958
                            38 C    0.103
    46   6 C    3.985 --    51 C    1.427    45 C    1.400    47 C    0.983
                            39 C    0.106
    47   6 C    3.990 --    50 C    1.000    48 C    0.988    49 C    0.986
                            46 C    0.983
    48   6 C    3.996 --    47 C    0.988    99 H    0.984   100 H    0.984
                           101 H    0.983
    49   6 C    3.996 --   102 H    0.987    47 C    0.986   103 H    0.984
                           104 H    0.984
    50   6 C    3.996 --    47 C    1.000   106 H    0.984   107 H    0.984
                           105 H    0.984
    51   6 C    3.988 --    46 C    1.427    38 C    1.391   108 H    0.964
                            40 C    0.103
    52   8 O    2.011 --    37 C    1.689    36 N    0.180
    53   1 H    0.999 --     1 C    0.968
    54   1 H    0.998 --     2 C    0.970
    55   1 H    0.998 --     3 C    0.971
    56   1 H    0.998 --     4 C    0.971
    57   1 H    0.999 --     5 C    0.965
    58   1 H    0.996 --     7 C    0.950
    59   1 H    0.994 --     8 C    0.953
    60   1 H    0.999 --    10 C    0.964
    61   1 H    0.998 --    11 C    0.971
    62   1 H    0.998 --    12 C    0.971
    63   1 H    0.998 --    13 C    0.970
    64   1 H    0.997 --    14 C    0.966
    65   1 H    0.998 --    18 C    0.961
    66   1 H    0.998 --    21 C    0.984
    67   1 H    0.999 --    21 C    0.983
    68   1 H    0.999 --    21 C    0.987
    69   1 H    0.999 --    22 C    0.984
    70   1 H    0.998 --    22 C    0.986
    71   1 H    0.998 --    22 C    0.984
    72   1 H    0.999 --    23 C    0.985
    73   1 H    0.998 --    23 C    0.984
    74   1 H    0.998 --    23 C    0.984
    75   1 H    0.998 --    24 C    0.958
    76   1 H    0.998 --    27 C    0.984
    77   1 H    0.999 --    27 C    0.984
    78   1 H    0.999 --    27 C    0.985
    79   1 H    0.998 --    28 C    0.984
    80   1 H    0.998 --    28 C    0.983
    81   1 H    0.999 --    28 C    0.987
    82   1 H    0.999 --    29 C    0.983
    83   1 H    0.999 --    29 C    0.987
    84   1 H    0.998 --    29 C    0.985
    85   1 H    0.998 --    30 C    0.964
    86   1 H    0.991 --    32 C    0.918
    87   1 H    0.883 --    34 O    0.858
    88   1 H    0.998 --    39 C    0.962
    89   1 H    0.999 --    42 C    0.984
    90   1 H    0.998 --    42 C    0.984
    91   1 H    0.999 --    42 C    0.985
    92   1 H    0.999 --    43 C    0.983
    93   1 H    0.998 --    43 C    0.984
    94   1 H    0.999 --    43 C    0.986
    95   1 H    0.998 --    44 C    0.983
    96   1 H    0.998 --    44 C    0.984
    97   1 H    0.999 --    44 C    0.987
    98   1 H    0.998 --    45 C    0.958
    99   1 H    0.998 --    48 C    0.984
   100   1 H    0.999 --    48 C    0.984
   101   1 H    0.999 --    48 C    0.983
   102   1 H    0.999 --    49 C    0.987
   103   1 H    0.998 --    49 C    0.984
   104   1 H    0.999 --    49 C    0.984
   105   1 H    0.998 --    50 C    0.984
   106   1 H    0.998 --    50 C    0.984
   107   1 H    0.999 --    50 C    0.984
   108   1 H    0.997 --    51 C    0.964
 ---------------------------------------------------------------------------

molecular dipole:
                 x           y           z       tot (Debye)
 q only:        0.719       0.371       0.022
   full:        0.622       0.411       0.188       1.955

           -------------------------------------------------
          | TOTAL ENERGY             -149.286665973296 Eh   |
          | GRADIENT NORM               0.000203033899 Eh/Î± |
          | HOMO-LUMO GAP               3.575459082465 eV   |
           -------------------------------------------------

 * finished run on 2022/03/17 at 00:45:51.801
