   * xtb version 6.3.3 (4ae9cef) compiled by 'conda@95abc7406d43' on 2020-10-14
          program call               : xtb acid_163.xyz --opt --chrg 0 --uhf 0 --gfn 2
          number of atoms            :                    58
          number of electrons        :                   168
          charge                     :                     0
          spin                       :                   0.0

   ID    Z sym.   atoms
    1    6 C      1, 3-9, 11, 12, 16-22, 24, 26-31
    2    8 O      2, 13, 14, 23, 25, 32
    3    7 N      10, 15
    4    1 H      33-58

          :  Hamiltonian                  GFN2-xTB          :
 * total energy  :   -94.9436766 Eh     change       -0.4431371E-09 Eh
 * total energy  :   -94.9553485 Eh     change       -0.1167184E-01 Eh
 * total energy  :   -94.9585957 Eh     change       -0.3247166E-02 Eh
 * total energy  :   -94.9594714 Eh     change       -0.8757407E-03 Eh
 * total energy  :   -94.9601670 Eh     change       -0.6955924E-03 Eh
 * total energy  :   -94.9607245 Eh     change       -0.5574659E-03 Eh
 * total energy  :   -94.9611078 Eh     change       -0.3833164E-03 Eh
 * total energy  :   -94.9615332 Eh     change       -0.4253986E-03 Eh
 * total energy  :   -94.9619854 Eh     change       -0.4522462E-03 Eh
 * total energy  :   -94.9623755 Eh     change       -0.3900824E-03 Eh
 * total energy  :   -94.9659416 Eh     change       -0.7909329E-05 Eh
 * total energy  :   -94.9659468 Eh     change       -0.5178009E-05 Eh
 * total energy  :   -94.9659550 Eh     change       -0.8225646E-05 Eh
 * total energy  :   -94.9659654 Eh     change       -0.1034592E-04 Eh
 * total energy  :   -94.9659739 Eh     change       -0.8512088E-05 Eh
 * total energy  :   -94.9659807 Eh     change       -0.6843473E-05 Eh
 * total energy  :   -94.9659868 Eh     change       -0.6060995E-05 Eh
 * total energy  :   -94.9659921 Eh     change       -0.5345119E-05 Eh
 * total energy  :   -94.9659971 Eh     change       -0.4972819E-05 Eh
   *** GEOMETRY OPTIMIZATION CONVERGED AFTER 53 ITERATIONS ***

 final structure:
================
58
 xtb: 6.3.3 (4ae9cef)
C         3.64035337402991    0.53339681424122   -0.10893615256403
O         2.90613647914699    0.92221962353144   -1.18600011201270
C         3.56925967528227    1.17428372854690   -2.40254466810797
C         5.00997525158084    0.29366300376658   -0.13365799475299
C         5.67370195358340   -0.09016574878949    1.02004578196465
C         4.99310971534441   -0.22412267931466    2.21609483200584
C         3.63234748915202    0.02339772860109    2.25267367699987
C         2.94489518852916    0.37551350670698    1.10167522660553
C         1.49648564959340    0.69549680524602    1.19460595927076
N         0.65824358992624    0.13029305302597    0.30504133665503
C        -0.71862240149943    0.61414876652334    0.30754238794075
C        -1.20105196980508    0.80830124662617    1.75981615491814
O        -1.01628416635233   -0.29853712503571    2.48702193845038
O        -1.78711836836637    1.77515743412080    2.15674976675855
N        -1.46179017554288   -0.39242340722778   -0.41668249134104
C        -2.63039729396763   -0.19165033802485   -1.07558234219539
C        -3.18455601441316    1.19194751777091   -0.91469303233851
C        -3.00150247271703    2.15422655554435   -1.89155497321907
C        -3.53950574151270    3.42090098751298   -1.73381727148478
C        -4.26768357814827    3.71229800803757   -0.59578211278089
C        -4.47489197723292    2.75320752638500    0.38147693650988
C        -3.93847983470204    1.48098109190970    0.22989922959594
O        -4.08783250774284    0.45345962585199    1.10875718416661
C        -4.75112641642047    0.71038440617322    2.32450126527710
O        -3.17775498297630   -1.04662387935972   -1.73733551042113
C        -0.67661925764401   -1.61588846261349   -0.37542542063233
C         0.75214333214292   -1.06931806576057   -0.50331565378692
C         1.72958012296167   -2.16543056292166   -0.11215441904521
C         1.51841033083361   -3.33129102766228   -1.08486639468935
C         0.07283204233310   -3.82920556061959   -1.09785263470169
C        -0.91757040080455   -2.70343853792393   -1.40453109812251
O         1.06216419850850    1.47675860354623    2.03004187594315
H         4.03133220638532    0.26665973500189   -2.80491909438812
H         4.32945557258072    1.95313886768915   -2.29307357764399
H         2.79865180064997    1.52027349350696   -3.08948550158055
H         5.57063476479228    0.40437195036577   -1.04824112107374
H         6.73649371270502   -0.27589442184748    0.97699821082172
H         5.51801760071335   -0.51096619709385    3.11363905776551
H         3.07926455086037   -0.05650924293808    3.17579004579188
H        -0.78927130169985    1.59575896116451   -0.18334870056865
H        -1.32337249436164   -0.14737187611583    3.39460063759679
H        -2.43065578032816    1.90632880260211   -2.77465657700538
H        -3.38815074258138    4.17244052256022   -2.49329899566137
H        -4.68649784354412    4.69855576425571   -0.46121119069586
H        -5.04733473488881    3.00947203645894    1.25800306208136
H        -5.79333776469650    1.00075884406475    2.15967634555859
H        -4.72535156630877   -0.22850764313724    2.87626471976188
H        -4.23283947153296    1.48892077412968    2.89232661795259
H        -0.79539414923514   -2.04757716664913    0.62984908061499
H         0.94043589136988   -0.77083083759100   -1.54484305786243
H         1.53659304627606   -2.48242479649506    0.91439817968032
H         2.76338789687694   -1.82819903520845   -0.17287802213752
H         2.18400216016728   -4.15190349070295   -0.81165182929861
H         1.79231874634955   -3.00258490142874   -2.09003609826325
H        -0.16757235222085   -4.25884402931719   -0.12298345486309
H        -0.03020205359223   -4.61868943192168   -1.84343681386644
H        -0.75582063393914   -2.31144332253065   -2.40927550393173
H        -1.94163589388957   -3.06687799724093   -1.34941868964675

          :  Hamiltonian                  GFN2-xTB          :
         :: total energy             -94.965997108879 Eh    ::
         :: gradient norm              0.000478176121 Eh/a0 ::
         :: HOMO-LUMO gap              3.239453903568 eV    ::
         :: SCC energy               -96.195641574330 Eh    ::
         :: -> dispersion             -0.073111764613 Eh    ::
         :: repulsion energy           1.227825395387 Eh    ::

    * Orbital Energies and Occupations

         #    Occupation            Energy/Eh            Energy/eV
      -------------------------------------------------------------
         1        2.0000           -0.7446669             -20.2634
       ...           ...                  ...                  ...
        72        2.0000           -0.4416661             -12.0183
        73        2.0000           -0.4379010             -11.9159
        74        2.0000           -0.4359611             -11.8631
        75        2.0000           -0.4331755             -11.7873
        76        2.0000           -0.4256242             -11.5818
        77        2.0000           -0.4202182             -11.4347
        78        2.0000           -0.4025841             -10.9549
        79        2.0000           -0.4008987             -10.9090
        80        2.0000           -0.3989541             -10.8561
        81        2.0000           -0.3954609             -10.7610
        82        2.0000           -0.3854103             -10.4875
        83        2.0000           -0.3818780             -10.3914
        84        2.0000           -0.3748537             -10.2003 (HOMO)
        85                         -0.2558060              -6.9608 (LUMO)
        86                         -0.2337086              -6.3595
        87                         -0.2306827              -6.2772
        88                         -0.2224403              -6.0529
        89                         -0.2106720              -5.7327
        90                         -0.2021185              -5.4999
        91                         -0.1997497              -5.4355
        92                         -0.1038873              -2.8269
        93                         -0.0886497              -2.4123
        94                         -0.0339485              -0.9238
        95                         -0.0171830              -0.4676
       ...                                ...                  ...
       154                          0.6788097              18.4714
      -------------------------------------------------------------
                  HL-Gap            0.1190477 Eh            3.2395 eV

     #   Z          covCN         q      C6AA      Î±(0)
     1   6 C        2.866     0.145    24.843     8.170
     2   8 O        1.705    -0.270    18.478     5.804
     3   6 C        3.644     0.037    20.287     6.475
     4   6 C        2.917    -0.067    29.667     8.932
     5   6 C        2.921    -0.028    28.707     8.786
     6   6 C        2.917    -0.039    28.980     8.828
     7   6 C        2.925    -0.021    28.529     8.759
     8   6 C        2.974    -0.033    28.825     8.807
     9   6 C        2.773     0.276    22.331     7.740
    10   7 N        2.771    -0.105    23.294     7.168
    11   6 C        3.796     0.091    19.075     6.219
    12   6 C        2.688     0.373    20.676     7.442
    13   8 O        1.659    -0.371    20.287     6.080
    14   8 O        0.856    -0.395    21.590     6.230
    15   7 N        2.766    -0.115    23.497     7.199
    16   6 C        2.757     0.280    22.260     7.726
    17   6 C        2.979    -0.043    29.068     8.844
    18   6 C        2.922    -0.028    28.700     8.785
    19   6 C        2.918    -0.041    29.014     8.833
    20   6 C        2.922    -0.028    28.697     8.785
    21   6 C        2.917    -0.058    29.448     8.899
    22   6 C        2.871     0.153    24.677     8.143
    23   8 O        1.705    -0.276    18.571     5.818
    24   6 C        3.646     0.038    20.267     6.470
    25   8 O        0.858    -0.420    22.080     6.300
    26   6 C        3.860     0.045    19.775     6.324
    27   6 C        3.835     0.039    19.891     6.345
    28   6 C        3.806    -0.063    21.711     6.633
    29   6 C        3.807    -0.061    21.667     6.626
    30   6 C        3.809    -0.065    21.734     6.636
    31   6 C        3.806    -0.066    21.754     6.640
    32   8 O        0.862    -0.434    22.365     6.341
    33   1 H        0.924     0.042     2.422     2.434
    34   1 H        0.924     0.046     2.367     2.406
    35   1 H        0.925     0.065     2.137     2.286
    36   1 H        0.926     0.042     2.423     2.434
    37   1 H        0.926     0.042     2.418     2.432
    38   1 H        0.926     0.044     2.396     2.421
    39   1 H        0.926     0.055     2.256     2.349
    40   1 H        0.923     0.069     2.100     2.266
    41   1 H        0.804     0.337     0.619     1.236
    42   1 H        0.926     0.038     2.479     2.462
    43   1 H        0.926     0.039     2.468     2.457
    44   1 H        0.926     0.041     2.442     2.444
    45   1 H        0.926     0.046     2.374     2.410
    46   1 H        0.924     0.042     2.427     2.436
    47   1 H        0.925     0.057     2.230     2.335
    48   1 H        0.924     0.056     2.246     2.344
    49   1 H        0.923     0.056     2.250     2.346
    50   1 H        0.923     0.053     2.283     2.363
    51   1 H        0.924     0.044     2.396     2.421
    52   1 H        0.925     0.042     2.428     2.437
    53   1 H        0.924     0.042     2.419     2.432
    54   1 H        0.924     0.039     2.468     2.457
    55   1 H        0.924     0.040     2.451     2.448
    56   1 H        0.924     0.046     2.375     2.410
    57   1 H        0.924     0.051     2.309     2.376
    58   1 H        0.925     0.075     2.029     2.228

Wiberg/Mayer (AO) data.
largest (>0.10) Wiberg bond orders for each atom

     #   Z sym  total        # sym  WBO       # sym  WBO       # sym  WBO
 ---------------------------------------------------------------------------
     1   6 C    3.936 --     4 C    1.378     8 C    1.307     2 O    1.068
     2   8 O    2.238 --     1 C    1.068     3 C    0.981
     3   6 C    3.942 --     2 O    0.981    35 H    0.979    34 H    0.977
                            33 H    0.976
     4   6 C    3.987 --     5 C    1.436     1 C    1.378    36 H    0.965
                             7 C    0.102
     5   6 C    3.991 --     6 C    1.440     4 C    1.436    37 H    0.971
                             8 C    0.105
     6   6 C    3.991 --     5 C    1.440     7 C    1.430    38 H    0.970
     7   6 C    3.988 --     6 C    1.430     8 C    1.423    39 H    0.968
                             4 C    0.102
     8   6 C    3.984 --     7 C    1.423     1 C    1.307     9 C    0.983
                             5 C    0.105
     9   6 C    3.947 --    32 O    1.627    10 N    1.246     8 C    0.983
    10   7 N    3.483 --     9 C    1.246    11 C    0.968    27 C    0.963
                            32 O    0.187
    11   6 C    3.965 --    15 N    0.987    10 N    0.968    40 H    0.947
                            12 C    0.911
    12   6 C    3.924 --    14 O    1.764    13 O    1.132    11 C    0.911
    13   8 O    2.196 --    12 C    1.132    41 H    0.861    14 O    0.167
    14   8 O    2.054 --    12 C    1.764    13 O    0.167
    15   7 N    3.471 --    16 C    1.215    11 C    0.987    26 C    0.959
                            25 O    0.192
    16   6 C    3.946 --    25 O    1.693    15 N    1.215    17 C    0.952
    17   6 C    3.984 --    18 C    1.434    22 C    1.318    16 C    0.952
                            20 C    0.107
    18   6 C    3.990 --    17 C    1.434    19 C    1.422    42 H    0.970
                            21 C    0.103
    19   6 C    3.991 --    20 C    1.443    18 C    1.422    43 H    0.970
    20   6 C    3.991 --    19 C    1.443    21 C    1.438    44 H    0.971
                            17 C    0.107
    21   6 C    3.988 --    20 C    1.438    22 C    1.377    45 H    0.965
                            18 C    0.103
    22   6 C    3.936 --    21 C    1.377    17 C    1.318    23 O    1.066
    23   8 O    2.232 --    22 C    1.066    24 C    0.980
    24   6 C    3.942 --    47 H    0.981    23 O    0.980    46 H    0.977
                            48 H    0.974
    25   8 O    2.020 --    16 C    1.693    15 N    0.192
    26   6 C    3.964 --    31 C    0.998    27 C    0.968    15 N    0.959
                            49 H    0.951
    27   6 C    3.964 --    28 C    0.997    26 C    0.968    10 N    0.963
                            50 H    0.952
    28   6 C    3.993 --    29 C    1.002    27 C    0.997    51 H    0.975
                            52 H    0.970
    29   6 C    3.995 --    30 C    1.009    28 C    1.002    54 H    0.977
                            53 H    0.976
    30   6 C    3.996 --    29 C    1.009    31 C    1.002    55 H    0.977
                            56 H    0.976
    31   6 C    3.988 --    30 C    1.002    26 C    0.998    57 H    0.975
                            58 H    0.969
    32   8 O    2.040 --     9 C    1.627    10 N    0.187
    33   1 H    0.998 --     3 C    0.976
    34   1 H    0.998 --     3 C    0.977
    35   1 H    0.995 --     3 C    0.979
    36   1 H    0.998 --     4 C    0.965
    37   1 H    0.998 --     5 C    0.971
    38   1 H    0.997 --     6 C    0.970
    39   1 H    0.996 --     7 C    0.968
    40   1 H    0.995 --    11 C    0.947
    41   1 H    0.886 --    13 O    0.861
    42   1 H    0.998 --    18 C    0.970
    43   1 H    0.998 --    19 C    0.970
    44   1 H    0.998 --    20 C    0.971
    45   1 H    0.997 --    21 C    0.965
    46   1 H    0.998 --    24 C    0.977
    47   1 H    0.996 --    24 C    0.981
    48   1 H    0.997 --    24 C    0.974
    49   1 H    0.997 --    26 C    0.951
    50   1 H    0.997 --    27 C    0.952
    51   1 H    0.998 --    28 C    0.975
    52   1 H    0.998 --    28 C    0.970
    53   1 H    0.998 --    29 C    0.976
    54   1 H    0.998 --    29 C    0.977
    55   1 H    0.998 --    30 C    0.977
    56   1 H    0.997 --    30 C    0.976
    57   1 H    0.997 --    31 C    0.975
    58   1 H    0.994 --    31 C    0.969
 ---------------------------------------------------------------------------

molecular dipole:
                 x           y           z       tot (Debye)
 q only:        1.730      -1.128      -0.317
   full:        1.961      -0.912      -0.174       5.515

           -------------------------------------------------
          | TOTAL ENERGY              -94.965997108879 Eh   |
          | GRADIENT NORM               0.000478176121 Eh/Î± |
          | HOMO-LUMO GAP               3.239453903568 eV   |
           -------------------------------------------------

 * finished run on 2022/03/16 at 21:59:03.960
