   * xtb version 6.3.3 (4ae9cef) compiled by 'conda@95abc7406d43' on 2020-10-14
          program call               : xtb acid_125.xyz --opt --chrg 0 --uhf 0 --gfn 2
          number of atoms            :                    68
          number of electrons        :                   214
          charge                     :                     0
          spin                       :                   0.0

   ID    Z sym.   atoms
    1    6 C      1, 3-16, 18, 20-24, 26, 27, 29, 30, 34-38, 40, 41
    2    8 O      2, 17, 28, 31, 32, 42
    3    7 N      19, 33
    4   17 Cl     25, 39
    5    1 H      43-68

          :  Hamiltonian                  GFN2-xTB          :
 * total energy  :  -121.1512882 Eh     change       -0.3707143E-08 Eh
 * total energy  :  -121.1659576 Eh     change       -0.1466943E-01 Eh
 * total energy  :  -121.1704204 Eh     change       -0.4462732E-02 Eh
 * total energy  :  -121.1718684 Eh     change       -0.1448013E-02 Eh
 * total energy  :  -121.1730319 Eh     change       -0.1163481E-02 Eh
 * total energy  :  -121.1738474 Eh     change       -0.8155315E-03 Eh
 * total energy  :  -121.1745220 Eh     change       -0.6746196E-03 Eh
 * total energy  :  -121.1751922 Eh     change       -0.6701545E-03 Eh
 * total energy  :  -121.1758779 Eh     change       -0.6857004E-03 Eh
 * total energy  :  -121.1764704 Eh     change       -0.5925552E-03 Eh
 * total energy  :  -121.1816615 Eh     change       -0.6026593E-05 Eh
 * total energy  :  -121.1816667 Eh     change       -0.5237078E-05 Eh
 * total energy  :  -121.1816728 Eh     change       -0.6089590E-05 Eh
 * total energy  :  -121.1816804 Eh     change       -0.7630538E-05 Eh
 * total energy  :  -121.1816897 Eh     change       -0.9256873E-05 Eh
 * total energy  :  -121.1816979 Eh     change       -0.8285609E-05 Eh
 * total energy  :  -121.1817047 Eh     change       -0.6702313E-05 Eh
 * total energy  :  -121.1817101 Eh     change       -0.5473316E-05 Eh
 * total energy  :  -121.1817149 Eh     change       -0.4747152E-05 Eh
   *** GEOMETRY OPTIMIZATION CONVERGED AFTER 88 ITERATIONS ***

 final structure:
================
68
 xtb: 6.3.3 (4ae9cef)
C        -0.98995664966875   -2.93332685718019   -2.62025546571202
O        -1.25272028408266   -3.85473812316911   -1.65294140522743
C        -1.82470895792770   -5.08452801648476   -2.02887197045727
C        -1.08206581583770   -3.18055712427169   -3.98542073323360
C        -0.75924958240182   -2.19150857532029   -4.89818688954110
C        -0.33857981203211   -0.94802639591795   -4.46661107766967
C        -0.25490882238826   -0.69495986824526   -3.10897163025253
C        -0.58149332596819   -1.66723834130131   -2.17924760324499
C        -0.50550022782322   -1.37037427669590   -0.70288396530261
C         0.95146667326131   -1.27909944344297   -0.19232787862934
C         1.20722873137062   -2.15600965628882    1.01557361283440
C         1.12128120135168   -3.52573201016123    0.80258265548749
C         1.37633210147026   -4.43532901608609    1.81087080422536
C         1.74849308179327   -3.97146164112234    3.05821970550145
C         1.83926896752245   -2.61254577830964    3.29415922961397
C         1.55869950682777   -1.69042163094497    2.28880162214285
O         1.60004985352751   -0.33757546832407    2.48766264707912
C         1.97355212987265    0.15827510660645    3.75152461178842
N         1.15261390344125    0.14490903845684   -0.01114536523139
C         2.39530376515813    0.69174562063858   -0.05782834954261
C         2.43800133057739    2.18183985259038    0.07803639435072
C         1.95767595122489    3.00458190773743   -0.93502377925149
C         2.01836734637520    4.38002037166332   -0.80832005839391
C         2.56399148422153    4.93196479342575    0.34020482403765
Cl        2.62377204907257    6.64866527736790    0.51071166844669
C         3.07144667596134    4.12495110796612    1.34559486328293
C         3.01435044189895    2.75073818883491    1.20486616143387
O         3.38575475686191    0.01223172524126   -0.21901469078757
C        -0.09728078219101    0.82226736875871    0.19943767826007
C        -0.40466606750969    1.04208274564337    1.69955067005757
O        -1.17017948666256    0.08399331793079    2.20822516196206
O        -0.04578991248837    2.01176797563665    2.30870398577273
N        -1.05686677013233   -0.05089485971690   -0.42293411534076
C        -2.38361847711429    0.19790499741481   -0.55510339807593
C        -2.77388676509931    1.60620299653853   -0.21662975073546
C        -2.37890609227041    2.66142117237135   -1.03148037572927
C        -2.75168516680812    3.95758027717421   -0.72903434543159
C        -3.52406224950727    4.19681122493778    0.39747830771719
Cl       -3.97958218863330    5.81456921932788    0.78748483933626
C        -3.94167772819932    3.15318858252054    1.20797859785652
C        -3.57036191174224    1.85871302837076    0.89203910385515
O        -3.17241005906136   -0.63988185886918   -0.93319451028508
H        -2.76197007380236   -4.93985556153704   -2.57347927019035
H        -2.02696243310480   -5.60916529596012   -1.09627737568747
H        -1.13539370788431   -5.68096591731167   -2.63566766871730
H        -1.40545895146404   -4.14299692664209   -4.34846910057028
H        -0.83720090213616   -2.40162095208972   -5.95434193893001
H        -0.08198520542989   -0.18022302627880   -5.18001676254057
H         0.06615360340170    0.27579218085871   -2.75975669614151
H        -1.07509828815270   -2.12970039283380   -0.15830250090918
H         1.65199646649439   -1.60338746635610   -0.97314808521724
H         0.84279774548747   -3.87516529419698   -0.17985517035485
H         1.29898668527695   -5.49427398036901    1.62019696731218
H         1.97255419197640   -4.66337811450114    3.85611126332058
H         2.14075354079166   -2.27519783501405    4.27275096982097
H         1.33737769850933   -0.24035264081841    4.54894772053956
H         3.02097079929926   -0.06667629087056    3.97346634874381
H         1.83183007712113    1.23725677509714    3.68869787874789
H         1.55423483186346    2.57119156562327   -1.83945537018427
H         1.64811399437883    5.02161724500111   -1.59254528718425
H         3.50779744561782    4.56932987129737    2.22614782424841
H         3.41868184209092    2.10969970021149    1.97160768662639
H        -0.07844343555240    1.82492460931866   -0.24868901901169
H        -1.34873970359091    0.24879569646413    3.14821015306947
H        -1.79471926465053    2.46566319476855   -1.91901136438468
H        -2.44949039526624    4.77833592850877   -1.36021509908009
H        -4.55418359007865    3.35385588626504    2.07287859069875
H        -3.90009378746420    1.03428008608224    1.50593651897892

          :  Hamiltonian                  GFN2-xTB          :
         :: total energy            -121.181714873210 Eh    ::
         :: gradient norm              0.000341951632 Eh/a0 ::
         :: HOMO-LUMO gap              3.244365341907 eV    ::
         :: SCC energy              -122.814453285303 Eh    ::
         :: -> dispersion             -0.100026631007 Eh    ::
         :: repulsion energy           1.629245780259 Eh    ::

    * Orbital Energies and Occupations

         #    Occupation            Energy/Eh            Energy/eV
      -------------------------------------------------------------
         1        2.0000           -1.0604988             -28.8576
       ...           ...                  ...                  ...
        95        2.0000           -0.4278281             -11.6418
        96        2.0000           -0.4238034             -11.5323
        97        2.0000           -0.4205193             -11.4429
        98        2.0000           -0.4150032             -11.2928
        99        2.0000           -0.4117950             -11.2055
       100        2.0000           -0.4071687             -11.0796
       101        2.0000           -0.4068811             -11.0718
       102        2.0000           -0.4040884             -10.9958
       103        2.0000           -0.4019231             -10.9369
       104        2.0000           -0.3976478             -10.8205
       105        2.0000           -0.3950122             -10.7488
       106        2.0000           -0.3901639             -10.6169
       107        2.0000           -0.3846390             -10.4666 (HOMO)
       108                         -0.2654108              -7.2222 (LUMO)
       109                         -0.2558616              -6.9623
       110                         -0.2524694              -6.8700
       111                         -0.2505883              -6.8189
       112                         -0.2459218              -6.6919
       113                         -0.2372581              -6.4561
       114                         -0.2305099              -6.2725
       115                         -0.2227822              -6.0622
       116                         -0.2213155              -6.0223
       117                         -0.2160159              -5.8781
       118                         -0.2122789              -5.7764
       ...                                ...                  ...
       204                          0.6577306              17.8978
      -------------------------------------------------------------
                  HL-Gap            0.1192282 Eh            3.2444 eV

     #   Z          covCN         q      C6AA      Î±(0)
     1   6 C        2.868     0.144    24.872     8.175
     2   8 O        1.705    -0.269    18.460     5.801
     3   6 C        3.644     0.036    20.301     6.477
     4   6 C        2.918    -0.064    29.583     8.919
     5   6 C        2.921    -0.030    28.753     8.793
     6   6 C        2.917    -0.040    28.995     8.830
     7   6 C        2.925    -0.032    28.793     8.800
     8   6 C        2.973    -0.014    28.369     8.737
     9   6 C        3.824     0.040    19.890     6.346
    10   6 C        3.830     0.044    19.823     6.335
    11   6 C        2.967    -0.015    28.373     8.737
    12   6 C        2.930    -0.038    28.938     8.822
    13   6 C        2.917    -0.038    28.945     8.822
    14   6 C        2.921    -0.032    28.789     8.799
    15   6 C        2.919    -0.065    29.621     8.925
    16   6 C        2.862     0.145    24.833     8.168
    17   8 O        1.704    -0.286    18.752     5.847
    18   6 C        3.641     0.040    20.245     6.470
    19   7 N        2.769    -0.094    23.078     7.135
    20   6 C        2.762     0.275    22.342     7.741
    21   6 C        2.974    -0.014    28.366     8.736
    22   6 C        2.925    -0.029    28.723     8.789
    23   6 C        2.955    -0.038    28.940     8.824
    24   6 C        2.890     0.103    25.724     8.315
    25  17 Cl       0.969    -0.168   104.431    15.634
    26   6 C        2.955    -0.033    28.828     8.806
    27   6 C        2.927    -0.014    28.371     8.735
    28   8 O        0.859    -0.413    21.938     6.280
    29   6 C        3.758     0.083    19.246     6.255
    30   6 C        2.686     0.358    20.932     7.487
    31   8 O        1.659    -0.353    19.955     6.030
    32   8 O        0.856    -0.399    21.656     6.239
    33   7 N        2.770    -0.105    23.297     7.169
    34   6 C        2.763     0.272    22.413     7.753
    35   6 C        2.975    -0.022    28.551     8.765
    36   6 C        2.925    -0.029    28.732     8.790
    37   6 C        2.955    -0.037    28.915     8.820
    38   6 C        2.889     0.102    25.733     8.317
    39  17 Cl       0.969    -0.164   104.307    15.625
    40   6 C        2.955    -0.037    28.908     8.819
    41   6 C        2.925    -0.023    28.572     8.766
    42   8 O        0.859    -0.411    21.910     6.276
    43   1 H        0.924     0.048     2.348     2.396
    44   1 H        0.925     0.064     2.152     2.294
    45   1 H        0.924     0.041     2.436     2.441
    46   1 H        0.926     0.042     2.418     2.432
    47   1 H        0.926     0.040     2.442     2.444
    48   1 H        0.926     0.038     2.473     2.459
    49   1 H        0.926     0.029     2.601     2.522
    50   1 H        0.924     0.086     1.917     2.165
    51   1 H        0.923     0.081     1.971     2.195
    52   1 H        0.926     0.051     2.301     2.372
    53   1 H        0.926     0.041     2.435     2.440
    54   1 H        0.926     0.040     2.450     2.448
    55   1 H        0.926     0.040     2.443     2.444
    56   1 H        0.924     0.036     2.501     2.473
    57   1 H        0.924     0.045     2.385     2.415
    58   1 H        0.925     0.072     2.060     2.244
    59   1 H        0.926     0.042     2.425     2.435
    60   1 H        0.926     0.061     2.183     2.311
    61   1 H        0.926     0.064     2.148     2.292
    62   1 H        0.926     0.060     2.201     2.320
    63   1 H        0.923     0.070     2.090     2.261
    64   1 H        0.804     0.341     0.609     1.226
    65   1 H        0.926     0.046     2.371     2.408
    66   1 H        0.926     0.064     2.153     2.295
    67   1 H        0.926     0.064     2.154     2.295
    68   1 H        0.926     0.056     2.246     2.344

Wiberg/Mayer (AO) data.
largest (>0.10) Wiberg bond orders for each atom

     #   Z sym  total        # sym  WBO       # sym  WBO       # sym  WBO
 ---------------------------------------------------------------------------
     1   6 C    3.935 --     4 C    1.378     8 C    1.326     2 O    1.064
     2   8 O    2.236 --     1 C    1.064     3 C    0.981
     3   6 C    3.943 --     2 O    0.981    44 H    0.979    43 H    0.977
                            45 H    0.976
     4   6 C    3.988 --     5 C    1.439     1 C    1.378    46 H    0.965
                             7 C    0.103
     5   6 C    3.990 --     6 C    1.440     4 C    1.439    47 H    0.971
                             8 C    0.106
     6   6 C    3.991 --     5 C    1.440     7 C    1.429    48 H    0.971
     7   6 C    3.991 --     8 C    1.436     6 C    1.429    49 H    0.968
                             4 C    0.103
     8   6 C    3.983 --     7 C    1.436     1 C    1.326     9 C    0.990
                             5 C    0.106
     9   6 C    3.959 --     8 C    0.990    33 N    0.955    10 C    0.952
                            50 H    0.949
    10   6 C    3.963 --    11 C    0.985    19 N    0.968     9 C    0.952
                            51 H    0.945
    11   6 C    3.983 --    12 C    1.422    16 C    1.341    10 C    0.985
                            14 C    0.108
    12   6 C    3.989 --    13 C    1.439    11 C    1.422    52 H    0.966
                            15 C    0.105
    13   6 C    3.990 --    12 C    1.439    14 C    1.433    53 H    0.970
    14   6 C    3.991 --    15 C    1.445    13 C    1.433    54 H    0.971
                            11 C    0.108
    15   6 C    3.987 --    14 C    1.445    16 C    1.372    55 H    0.965
                            12 C    0.105
    16   6 C    3.930 --    15 C    1.372    11 C    1.341    17 O    1.046
    17   8 O    2.231 --    16 C    1.046    18 C    0.980
    18   6 C    3.941 --    17 O    0.980    57 H    0.976    56 H    0.976
                            58 H    0.973
    19   7 N    3.479 --    20 C    1.204    29 C    0.990    10 C    0.968
                            28 O    0.190
    20   6 C    3.947 --    28 O    1.698    19 N    1.204    21 C    0.960
    21   6 C    3.988 --    27 C    1.406    22 C    1.398    20 C    0.960
    22   6 C    3.991 --    23 C    1.446    21 C    1.398    59 H    0.967
                            26 C    0.108
    23   6 C    3.988 --    22 C    1.446    24 C    1.399    60 H    0.966
                            27 C    0.108
    24   6 C    3.921 --    26 C    1.404    23 C    1.399    25 Cl   0.980
    25  17 Cl   1.117 --    24 C    0.980
    26   6 C    3.988 --    27 C    1.442    24 C    1.404    61 H    0.966
                            22 C    0.108
    27   6 C    3.989 --    26 C    1.442    21 C    1.406    62 H    0.966
                            23 C    0.108
    28   8 O    2.025 --    20 C    1.698    19 N    0.190
    29   6 C    3.973 --    33 N    0.991    19 N    0.990    63 H    0.934
                            30 C    0.903
    30   6 C    3.918 --    32 O    1.765    31 O    1.161    29 C    0.903
    31   8 O    2.226 --    30 C    1.161    64 H    0.857    32 O    0.178
    32   8 O    2.050 --    30 C    1.765    31 O    0.178
    33   7 N    3.472 --    34 C    1.212    29 C    0.991     9 C    0.955
                            42 O    0.194
    34   6 C    3.950 --    42 O    1.699    33 N    1.212    35 C    0.956
    35   6 C    3.988 --    41 C    1.408    36 C    1.398    34 C    0.956
    36   6 C    3.991 --    37 C    1.449    35 C    1.398    65 H    0.967
                            40 C    0.108
    37   6 C    3.988 --    36 C    1.449    38 C    1.398    66 H    0.966
                            41 C    0.107
    38   6 C    3.921 --    40 C    1.404    37 C    1.398    39 Cl   0.983
    39  17 Cl   1.122 --    38 C    0.983
    40   6 C    3.988 --    41 C    1.442    38 C    1.404    67 H    0.966
                            36 C    0.108
    41   6 C    3.990 --    40 C    1.442    35 C    1.408    68 H    0.967
                            37 C    0.107
    42   8 O    2.028 --    34 C    1.699    33 N    0.194
    43   1 H    0.998 --     3 C    0.977
    44   1 H    0.995 --     3 C    0.979
    45   1 H    0.998 --     3 C    0.976
    46   1 H    0.998 --     4 C    0.965
    47   1 H    0.998 --     5 C    0.971
    48   1 H    0.998 --     6 C    0.971
    49   1 H    0.998 --     7 C    0.968
    50   1 H    0.992 --     9 C    0.949
    51   1 H    0.993 --    10 C    0.945
    52   1 H    0.997 --    12 C    0.966
    53   1 H    0.998 --    13 C    0.970
    54   1 H    0.998 --    14 C    0.971
    55   1 H    0.998 --    15 C    0.965
    56   1 H    0.999 --    18 C    0.976
    57   1 H    0.998 --    18 C    0.976
    58   1 H    0.994 --    18 C    0.973
    59   1 H    0.998 --    22 C    0.967
    60   1 H    0.996 --    23 C    0.966
    61   1 H    0.995 --    26 C    0.966
    62   1 H    0.996 --    27 C    0.966
    63   1 H    0.995 --    29 C    0.934
    64   1 H    0.883 --    31 O    0.857
    65   1 H    0.998 --    36 C    0.967
    66   1 H    0.995 --    37 C    0.966
    67   1 H    0.995 --    40 C    0.966
    68   1 H    0.997 --    41 C    0.967
 ---------------------------------------------------------------------------

molecular dipole:
                 x           y           z       tot (Debye)
 q only:       -0.204      -1.986       0.434
   full:       -0.347      -1.450       0.770       4.264

           -------------------------------------------------
          | TOTAL ENERGY             -121.181714873210 Eh   |
          | GRADIENT NORM               0.000341951632 Eh/Î± |
          | HOMO-LUMO GAP               3.244365341907 eV   |
           -------------------------------------------------

 * finished run on 2022/03/16 at 21:36:13.156
