   * xtb version 6.3.3 (4ae9cef) compiled by 'conda@95abc7406d43' on 2020-10-14
          program call               : xtb acid_21.xyz --opt --chrg 0 --uhf 0 --gfn 2
          number of atoms            :                    86
          number of electrons        :                   282
          charge                     :                     0
          spin                       :                   0.0

   ID    Z sym.   atoms
    1    6 C      1, 2, 6-15, 19-22, 24-36, 38, 39, 43-55
    2    9 F      3-5, 16-18
    3    7 N      23, 42
    4    8 O      37, 40, 41, 56
    5    1 H      57-86

          :  Hamiltonian                  GFN2-xTB          :
 * total energy  :  -160.0539065 Eh     change       -0.2743064E-08 Eh
 * total energy  :  -160.0726899 Eh     change       -0.1878342E-01 Eh
 * total energy  :  -160.0782344 Eh     change       -0.5544430E-02 Eh
 * total energy  :  -160.0801457 Eh     change       -0.1911333E-02 Eh
 * total energy  :  -160.0817066 Eh     change       -0.1560873E-02 Eh
 * total energy  :  -160.0827187 Eh     change       -0.1012125E-02 Eh
 * total energy  :  -160.0835490 Eh     change       -0.8303057E-03 Eh
 * total energy  :  -160.0843216 Eh     change       -0.7725546E-03 Eh
 * total energy  :  -160.0849611 Eh     change       -0.6395065E-03 Eh
 * total energy  :  -160.0854238 Eh     change       -0.4626860E-03 Eh
 * total energy  :  -160.0926234 Eh     change       -0.1380024E-04 Eh
 * total energy  :  -160.0926341 Eh     change       -0.1074689E-04 Eh
 * total energy  :  -160.0926451 Eh     change       -0.1097603E-04 Eh
 * total energy  :  -160.0926559 Eh     change       -0.1077406E-04 Eh
 * total energy  :  -160.0926650 Eh     change       -0.9116267E-05 Eh
 * total energy  :  -160.0926727 Eh     change       -0.7754131E-05 Eh
 * total energy  :  -160.0926813 Eh     change       -0.8606008E-05 Eh
 * total energy  :  -160.0926922 Eh     change       -0.1085863E-04 Eh
 * total energy  :  -160.0926956 Eh     change       -0.3401504E-05 Eh
   *** GEOMETRY OPTIMIZATION CONVERGED AFTER 68 ITERATIONS ***

 final structure:
================
86
 xtb: 6.3.3 (4ae9cef)
C         0.07197893229296   -4.04617711677049    1.16985411864821
C        -0.21365224945749   -4.72885513215472   -0.13901716861775
F        -1.24240425289881   -4.14237206719565   -0.80394237334297
F         0.81526747802543   -4.73119784849208   -0.99660327504067
F        -0.57713267108384   -6.01013023146797    0.00890784058947
C         0.03272615591358   -4.80320847691910    2.33534556562488
C         0.27052114997580   -4.20869267109343    3.55985379715762
C         0.53587933734201   -2.85143113005671    3.62453917471989
C         0.57505938853013   -2.09658233903613    2.46773200507254
C         0.36044703845433   -2.68207909800791    1.22386278635123
C         0.44288698981505   -1.81012226871758   -0.00780514163480
C        -0.75094729855356   -0.83009583218757   -0.08903143909364
C        -1.77557713378206   -1.16339088139112   -1.14969931193012
C        -1.61885668169457   -0.97315684301097   -2.52634184274294
C        -0.37787674864115   -0.38935601934250   -3.15250538041703
F        -0.35100869886416   -0.55901466567092   -4.48304409771846
F         0.77328304056630   -0.91465449215108   -2.70651876994232
F        -0.27504504416654    0.94203319046649   -2.96271615080508
C        -2.65986481331408   -1.28535963821714   -3.39633143074678
C        -3.85017519859716   -1.80078365178240   -2.92308073958923
C        -4.00840310764457   -2.01373859629988   -1.56607276103601
C        -2.98110991373011   -1.69558420891714   -0.70103173696854
N        -0.14002259596342    0.47698530959863   -0.24053458900423
C        -0.77917222764085    1.66061609220796   -0.03223901136423
C        -2.26716439752317    1.56199369119826   -0.10012907671831
C        -2.91694045359930    1.80232328382304   -1.30408435493895
C        -4.28437105730425    1.63742424019052   -1.39612735480883
C        -5.03056283117983    1.24856454652565   -0.28631860122495
C        -6.48057604944978    1.03581471236467   -0.40118117517319
C        -7.35261397200192    1.50230680692279    0.57892263607789
C        -8.71513565797729    1.29886386539778    0.46042893214719
C        -9.22553059806773    0.61954824520534   -0.63311397824890
C        -8.36590506080302    0.14803716001776   -1.61147533057774
C        -7.00412061268687    0.35758987181154   -1.49954299503379
C        -4.37654659994142    1.06413135313198    0.92927135317246
C        -3.00635222888571    1.21594040182397    1.02364730812190
O        -0.15369320679111    2.68333537092989    0.15292211647799
C         1.30636583115554    0.44641986622147   -0.16565088423310
C         1.76538097279202    1.34428750675616    1.00500188228131
O         2.60370193373497    2.28612218412027    0.61438722948877
O         1.42397271516296    1.15275850134638    2.14169232749977
N         1.61220674459886   -0.94290225179352    0.05447153869482
C         2.84059501266945   -1.46210356480743    0.33026195298336
C         3.93415479468137   -0.44766046432477    0.34032231569945
C         4.36673144347216    0.14481795902038   -0.84009934057214
C         5.36411397277814    1.09866239884097   -0.80929670134786
C         5.94131533249557    1.48604457120309    0.39837836772369
C         6.96735066224923    2.53856583076838    0.43338018385499
C         7.97252912773431    2.58734090367186   -0.52947294500416
C         8.93044055654564    3.58353957622295   -0.49601207097169
C         8.89607838802187    4.55066450921341    0.49463638211968
C         7.90004742931835    4.51285144198540    1.45593871383340
C         6.94539894458064    3.51351820296650    1.42812864887640
C         5.52279779347467    0.86260736001707    1.57196300981701
C         4.53648895713692   -0.10429941895470    1.54414991960350
O         2.99921279731578   -2.64022371415271    0.56407252419767
H        -0.17920378062288   -5.85949580801672    2.27813378195574
H         0.24950769342037   -4.80584952071914    4.45809759750996
H         0.71940325898249   -2.37830095528319    4.57711933519811
H         0.79602467437772   -1.04017719252814    2.52469980900278
H         0.51512736688132   -2.42586834053521   -0.90861573860464
H        -1.27747483745870   -0.85850476500027    0.87539229646379
H        -2.53172557591688   -1.12559619862113   -4.45555463071246
H        -4.64357868235488   -2.03767854732102   -3.61450237117430
H        -4.93005901557780   -2.41899418380284   -1.17865988541800
H        -3.11360690959148   -1.85985132888024    0.35731580413351
H        -2.34566881620033    2.11601978014933   -2.16374164930396
H        -4.78408212619395    1.82787757900341   -2.33406814426240
H        -6.95998347522687    2.04801469810105    1.42442059027296
H        -9.38216892162878    1.67375644874116    1.22277493498692
H       -10.28950675673117    0.45926319556160   -0.72346365852623
H        -8.75957085575706   -0.38438835705526   -2.46503924267475
H        -6.33247076146269   -0.02125826574549   -2.25650164370230
H        -4.94451379601292    0.77466672705096    1.80112183494270
H        -2.50675005434852    1.06831384135626    1.97053101741876
H         1.75146042924947    0.84529442623490   -1.08985039025717
H         2.82165462744421    2.88564410250964    1.34577604517780
H         3.92349257771384   -0.14901690052195   -1.78032001778267
H         5.68094531582822    1.57124753612999   -1.72679131349597
H         8.01365907275260    1.82608887231695   -1.29465215139041
H         9.70807704364071    3.60584829101676   -1.24547912244363
H         9.64246580576059    5.33071726369147    0.51762886107910
H         7.86629074863709    5.26657375696880    2.22918568398276
H         6.16248758493114    3.49766935327160    2.17269631869510
H         5.98716036887587    1.12637291440703    2.51087712183955
H         4.21643623802861   -0.58892775354588    2.45463432512461

          :  Hamiltonian                  GFN2-xTB          :
         :: total energy            -160.092695599964 Eh    ::
         :: gradient norm              0.000193906097 Eh/a0 ::
         :: HOMO-LUMO gap              3.089850183370 eV    ::
         :: SCC energy              -162.298273554557 Eh    ::
         :: -> dispersion             -0.131448298453 Eh    ::
         :: repulsion energy           2.201800809018 Eh    ::

    * Orbital Energies and Occupations

         #    Occupation            Energy/Eh            Energy/eV
      -------------------------------------------------------------
         1        2.0000           -0.8867377             -24.1294
       ...           ...                  ...                  ...
       129        2.0000           -0.4258557             -11.5881
       130        2.0000           -0.4256878             -11.5836
       131        2.0000           -0.4248089             -11.5596
       132        2.0000           -0.4192502             -11.4084
       133        2.0000           -0.4176396             -11.3646
       134        2.0000           -0.4164522             -11.3322
       135        2.0000           -0.4146745             -11.2839
       136        2.0000           -0.4097384             -11.1496
       137        2.0000           -0.4082837             -11.1100
       138        2.0000           -0.4007986             -10.9063
       139        2.0000           -0.3999339             -10.8828
       140        2.0000           -0.3967950             -10.7973
       141        2.0000           -0.3912907             -10.6476 (HOMO)
       142                         -0.2777408              -7.5577 (LUMO)
       143                         -0.2681735              -7.2974
       144                         -0.2625759              -7.1451
       145                         -0.2606563              -7.0928
       146                         -0.2596539              -7.0655
       147                         -0.2531209              -6.8878
       148                         -0.2505525              -6.8179
       149                         -0.2427493              -6.6055
       150                         -0.2341841              -6.3725
       151                         -0.2320432              -6.3142
       152                         -0.2311550              -6.2900
       ...                                ...                  ...
       254                          0.6869317              18.6924
      -------------------------------------------------------------
                  HL-Gap            0.1135499 Eh            3.0899 eV

     #   Z          covCN         q      C6AA      Î±(0)
     1   6 C        2.975    -0.027    28.676     8.784
     2   6 C        3.335     0.485    17.309     6.590
     3   9 F        0.791    -0.229    11.543     4.013
     4   9 F        0.791    -0.198    11.216     3.956
     5   9 F        0.792    -0.202    11.256     3.963
     6   6 C        2.923    -0.022    28.549     8.762
     7   6 C        2.919    -0.023    28.586     8.768
     8   6 C        2.919    -0.018    28.447     8.746
     9   6 C        2.925    -0.029    28.732     8.790
    10   6 C        2.972     0.021    27.529     8.606
    11   6 C        3.818     0.050    19.725     6.321
    12   6 C        3.816     0.041    19.867     6.344
    13   6 C        2.965     0.010    27.784     8.646
    14   6 C        2.974    -0.027    28.682     8.785
    15   6 C        3.336     0.488    17.261     6.579
    16   9 F        0.793    -0.202    11.260     3.964
    17   9 F        0.792    -0.209    11.324     3.975
    18   9 F        0.791    -0.212    11.364     3.982
    19   6 C        2.926    -0.023    28.568     8.765
    20   6 C        2.920    -0.021    28.530     8.759
    21   6 C        2.918    -0.015    28.380     8.736
    22   6 C        2.931    -0.025    28.631     8.775
    23   7 N        2.765    -0.118    23.571     7.211
    24   6 C        2.769     0.277    22.316     7.737
    25   6 C        2.979    -0.016    28.406     8.743
    26   6 C        2.922    -0.028    28.707     8.786
    27   6 C        2.925    -0.033    28.829     8.805
    28   6 C        2.977     0.012    27.734     8.638
    29   6 C        2.978     0.009    27.806     8.650
    30   6 C        2.925    -0.032    28.809     8.802
    31   6 C        2.919    -0.028    28.704     8.786
    32   6 C        2.920    -0.029    28.733     8.790
    33   6 C        2.918    -0.029    28.717     8.788
    34   6 C        2.925    -0.035    28.863     8.810
    35   6 C        2.925    -0.034    28.839     8.807
    36   6 C        2.920    -0.029    28.736     8.791
    37   8 O        0.859    -0.412    21.919     6.277
    38   6 C        3.755     0.095    19.056     6.224
    39   6 C        2.689     0.368    20.762     7.457
    40   8 O        1.660    -0.348    19.867     6.017
    41   8 O        0.856    -0.405    21.778     6.257
    42   7 N        2.765    -0.113    23.463     7.194
    43   6 C        2.764     0.273    22.379     7.747
    44   6 C        2.979    -0.022    28.548     8.764
    45   6 C        2.920    -0.027    28.686     8.783
    46   6 C        2.925    -0.029    28.721     8.789
    47   6 C        2.977     0.014    27.691     8.632
    48   6 C        2.977     0.011    27.775     8.645
    49   6 C        2.925    -0.032    28.810     8.802
    50   6 C        2.919    -0.028    28.708     8.786
    51   6 C        2.920    -0.030    28.743     8.792
    52   6 C        2.918    -0.029    28.724     8.789
    53   6 C        2.925    -0.034    28.841     8.807
    54   6 C        2.925    -0.034    28.839     8.807
    55   6 C        2.921    -0.024    28.609     8.771
    56   8 O        0.859    -0.415    21.978     6.285
    57   1 H        0.926     0.066     2.134     2.284
    58   1 H        0.926     0.056     2.251     2.346
    59   1 H        0.926     0.057     2.235     2.338
    60   1 H        0.926     0.073     2.050     2.239
    61   1 H        0.924     0.073     2.056     2.242
    62   1 H        0.923     0.058     2.221     2.331
    63   1 H        0.926     0.071     2.069     2.249
    64   1 H        0.926     0.060     2.194     2.316
    65   1 H        0.926     0.061     2.186     2.312
    66   1 H        0.926     0.050     2.314     2.379
    67   1 H        0.926     0.047     2.359     2.402
    68   1 H        0.926     0.043     2.415     2.430
    69   1 H        0.926     0.035     2.515     2.480
    70   1 H        0.926     0.035     2.521     2.483
    71   1 H        0.926     0.034     2.525     2.485
    72   1 H        0.926     0.033     2.543     2.494
    73   1 H        0.926     0.029     2.601     2.522
    74   1 H        0.926     0.043     2.412     2.428
    75   1 H        0.926     0.039     2.463     2.454
    76   1 H        0.923     0.080     1.983     2.202
    77   1 H        0.804     0.348     0.592     1.209
    78   1 H        0.926     0.041     2.437     2.441
    79   1 H        0.926     0.045     2.382     2.413
    80   1 H        0.926     0.035     2.519     2.482
    81   1 H        0.926     0.033     2.545     2.495
    82   1 H        0.926     0.032     2.555     2.500
    83   1 H        0.926     0.032     2.561     2.502
    84   1 H        0.926     0.029     2.604     2.523
    85   1 H        0.926     0.041     2.430     2.438
    86   1 H        0.926     0.042     2.417     2.431

Wiberg/Mayer (AO) data.
largest (>0.10) Wiberg bond orders for each atom

     #   Z sym  total        # sym  WBO       # sym  WBO       # sym  WBO
 ---------------------------------------------------------------------------
     1   6 C    3.969 --     6 C    1.411    10 C    1.387     2 C    0.951
                             8 C    0.104
     2   6 C    3.820 --     5 F    0.954     4 F    0.953     1 C    0.951
                             3 F    0.922
     3   9 F    1.048 --     2 C    0.922
     4   9 F    1.084 --     2 C    0.953
     5   9 F    1.077 --     2 C    0.954
     6   6 C    3.987 --     7 C    1.445     1 C    1.411    57 H    0.966
                             9 C    0.110
     7   6 C    3.989 --     6 C    1.445     8 C    1.432    58 H    0.969
                            10 C    0.108
     8   6 C    3.990 --     9 C    1.449     7 C    1.432    59 H    0.969
                             1 C    0.104
     9   6 C    3.986 --     8 C    1.449    10 C    1.407    60 H    0.958
                             6 C    0.110
    10   6 C    3.986 --     9 C    1.407     1 C    1.387    11 C    0.990
                             7 C    0.108
    11   6 C    3.968 --    10 C    0.990    42 N    0.961    61 H    0.953
                            12 C    0.951
    12   6 C    3.970 --    13 C    0.992    23 N    0.967    11 C    0.951
                            62 H    0.949
    13   6 C    3.986 --    22 C    1.408    14 C    1.387    12 C    0.992
                            20 C    0.108
    14   6 C    3.971 --    19 C    1.411    13 C    1.387    15 C    0.950
                            21 C    0.105
    15   6 C    3.823 --    16 F    0.952    14 C    0.950    17 F    0.945
                            18 F    0.936
    16   9 F    1.075 --    15 C    0.952
    17   9 F    1.073 --    15 C    0.945
    18   9 F    1.067 --    15 C    0.936
    19   6 C    3.987 --    20 C    1.444    14 C    1.411    63 H    0.965
                            22 C    0.108
    20   6 C    3.988 --    19 C    1.444    21 C    1.432    64 H    0.968
                            13 C    0.108
    21   6 C    3.989 --    22 C    1.448    20 C    1.432    65 H    0.968
                            14 C    0.105
    22   6 C    3.989 --    21 C    1.448    13 C    1.408    66 H    0.965
                            19 C    0.108
    23   7 N    3.449 --    24 C    1.202    38 C    0.973    12 C    0.967
                            37 O    0.186
    24   6 C    3.939 --    37 O    1.692    23 N    1.202    25 C    0.960
    25   6 C    3.982 --    36 C    1.401    26 C    1.398    24 C    0.960
                            28 C    0.104
    26   6 C    3.989 --    27 C    1.455    25 C    1.398    67 H    0.968
                            35 C    0.107
    27   6 C    3.990 --    26 C    1.455    28 C    1.386    68 H    0.967
                            36 C    0.106
    28   6 C    3.988 --    35 C    1.388    27 C    1.386    29 C    1.046
                            25 C    0.104
    29   6 C    3.989 --    30 C    1.391    34 C    1.388    28 C    1.046
                            32 C    0.106
    30   6 C    3.991 --    31 C    1.450    29 C    1.391    69 H    0.969
                            33 C    0.109
    31   6 C    3.992 --    30 C    1.450    32 C    1.436    70 H    0.971
                            34 C    0.109
    32   6 C    3.987 --    31 C    1.436    33 C    1.434    71 H    0.971
                            29 C    0.106
    33   6 C    3.992 --    34 C    1.452    32 C    1.434    72 H    0.971
                            30 C    0.109
    34   6 C    3.991 --    33 C    1.452    29 C    1.388    73 H    0.968
                            31 C    0.109
    35   6 C    3.990 --    36 C    1.451    28 C    1.388    74 H    0.967
                            26 C    0.107
    36   6 C    3.990 --    35 C    1.451    25 C    1.401    75 H    0.968
                            27 C    0.106
    37   8 O    2.050 --    24 C    1.692    23 N    0.186
    38   6 C    3.961 --    42 N    0.988    23 N    0.973    76 H    0.942
                            39 C    0.907
    39   6 C    3.921 --    41 O    1.748    40 O    1.175    38 C    0.907
    40   8 O    2.236 --    39 C    1.175    77 H    0.852    41 O    0.178
    41   8 O    2.043 --    39 C    1.748    40 O    0.178
    42   7 N    3.455 --    43 C    1.194    38 C    0.988    11 C    0.961
                            56 O    0.189
    43   6 C    3.942 --    56 O    1.701    42 N    1.194    44 C    0.963
    44   6 C    3.981 --    55 C    1.398    45 C    1.395    43 C    0.963
                            47 C    0.102
    45   6 C    3.990 --    46 C    1.458    44 C    1.395    78 H    0.968
                            54 C    0.106
    46   6 C    3.990 --    45 C    1.458    47 C    1.383    79 H    0.967
                            55 C    0.106
    47   6 C    3.988 --    54 C    1.388    46 C    1.383    48 C    1.047
                            44 C    0.102
    48   6 C    3.989 --    49 C    1.389    53 C    1.389    47 C    1.047
                            51 C    0.106
    49   6 C    3.991 --    50 C    1.452    48 C    1.389    80 H    0.969
                            52 C    0.109
    50   6 C    3.992 --    49 C    1.452    51 C    1.435    81 H    0.971
                            53 C    0.109
    51   6 C    3.987 --    50 C    1.435    52 C    1.435    82 H    0.971
                            48 C    0.106
    52   6 C    3.992 --    53 C    1.452    51 C    1.435    83 H    0.971
                            49 C    0.109
    53   6 C    3.991 --    52 C    1.452    48 C    1.389    84 H    0.969
                            50 C    0.109
    54   6 C    3.990 --    55 C    1.453    47 C    1.388    85 H    0.967
                            45 C    0.106
    55   6 C    3.990 --    54 C    1.453    44 C    1.398    86 H    0.969
                            46 C    0.106
    56   8 O    2.031 --    43 C    1.701    42 N    0.189
    57   1 H    0.995 --     6 C    0.966
    58   1 H    0.996 --     7 C    0.969
    59   1 H    0.996 --     8 C    0.969
    60   1 H    0.994 --     9 C    0.958
    61   1 H    0.994 --    11 C    0.953
    62   1 H    0.996 --    12 C    0.949
    63   1 H    0.994 --    19 C    0.965
    64   1 H    0.995 --    20 C    0.968
    65   1 H    0.995 --    21 C    0.968
    66   1 H    0.997 --    22 C    0.965
    67   1 H    0.997 --    26 C    0.968
    68   1 H    0.997 --    27 C    0.967
    69   1 H    0.999 --    30 C    0.969
    70   1 H    0.998 --    31 C    0.971
    71   1 H    0.998 --    32 C    0.971
    72   1 H    0.998 --    33 C    0.971
    73   1 H    0.999 --    34 C    0.968
    74   1 H    0.997 --    35 C    0.967
    75   1 H    0.998 --    36 C    0.968
    76   1 H    0.993 --    38 C    0.942
    77   1 H    0.878 --    40 O    0.852
    78   1 H    0.998 --    45 C    0.968
    79   1 H    0.997 --    46 C    0.967
    80   1 H    0.999 --    49 C    0.969
    81   1 H    0.998 --    50 C    0.971
    82   1 H    0.998 --    51 C    0.971
    83   1 H    0.998 --    52 C    0.971
    84   1 H    0.999 --    53 C    0.969
    85   1 H    0.998 --    54 C    0.967
    86   1 H    0.998 --    55 C    0.969
 ---------------------------------------------------------------------------

molecular dipole:
                 x           y           z       tot (Debye)
 q only:       -1.902       0.475       0.970
   full:       -1.840       0.627       0.896       5.441

           -------------------------------------------------
          | TOTAL ENERGY             -160.092695599964 Eh   |
          | GRADIENT NORM               0.000193906097 Eh/Î± |
          | HOMO-LUMO GAP               3.089850183370 eV   |
           -------------------------------------------------

 * finished run on 2022/03/16 at 22:33:09.152
