   * xtb version 6.3.3 (4ae9cef) compiled by 'conda@95abc7406d43' on 2020-10-14
          program call               : xtb acid_451.xyz --opt --chrg 0 --uhf 0 --gfn 2
          number of atoms            :                    66
          number of electrons        :                   238
          charge                     :                     0
          spin                       :                   0.0

   ID    Z sym.   atoms
    1    6 C      1, 2, 6-15, 19-22, 24-28, 30, 31, 33, 34, 38-42, 44, 45
    2    9 F      3-5, 16-18
    3    7 N      23, 37
    4   53 I      29, 43
    5    8 O      32, 35, 36, 46
    6    1 H      47-66

          :  Hamiltonian                  GFN2-xTB          :
 * total energy  :  -136.9023033 Eh     change       -0.1191097E-08 Eh
 * total energy  :  -136.9191027 Eh     change       -0.1679940E-01 Eh
 * total energy  :  -136.9240845 Eh     change       -0.4981834E-02 Eh
 * total energy  :  -136.9254501 Eh     change       -0.1365543E-02 Eh
 * total energy  :  -136.9263980 Eh     change       -0.9479612E-03 Eh
 * total energy  :  -136.9269781 Eh     change       -0.5801016E-03 Eh
 * total energy  :  -136.9274395 Eh     change       -0.4613326E-03 Eh
 * total energy  :  -136.9279388 Eh     change       -0.4993390E-03 Eh
 * total energy  :  -136.9284583 Eh     change       -0.5195318E-03 Eh
 * total energy  :  -136.9289112 Eh     change       -0.4528687E-03 Eh
 * total energy  :  -136.9354808 Eh     change       -0.9695911E-05 Eh
 * total energy  :  -136.9354884 Eh     change       -0.7652255E-05 Eh
 * total energy  :  -136.9354950 Eh     change       -0.6610273E-05 Eh
 * total energy  :  -136.9355031 Eh     change       -0.8112948E-05 Eh
 * total energy  :  -136.9355132 Eh     change       -0.1004367E-04 Eh
 * total energy  :  -136.9355239 Eh     change       -0.1074455E-04 Eh
 * total energy  :  -136.9355347 Eh     change       -0.1081642E-04 Eh
 * total energy  :  -136.9355435 Eh     change       -0.8772529E-05 Eh
 * total energy  :  -136.9355485 Eh     change       -0.4970418E-05 Eh
   *** GEOMETRY OPTIMIZATION CONVERGED AFTER 65 ITERATIONS ***

 final structure:
================
66
 xtb: 6.3.3 (4ae9cef)
C        -1.98337664094752   -2.18886181510403   -1.93254704898067
C        -2.15605624501251   -3.11671210883849   -0.76162923380949
F        -0.97679267513092   -3.39713708453835   -0.15459536224832
F        -2.95014226236391   -2.63472961021308    0.20642365684307
F        -2.67103809540410   -4.30233507584082   -1.10594991537771
C        -2.39433509313933   -2.62018822462261   -3.18746468479743
C        -2.22736175264454   -1.80897241148868   -4.29365225857915
C        -1.64071178324062   -0.56413782056672   -4.15067629986893
C        -1.23216378330400   -0.13515240320779   -2.90283495437810
C        -1.40185867899186   -0.93095498890128   -1.77605407077231
C        -0.93902567624509   -0.39435257839040   -0.44507810290037
C         0.60330038951206   -0.29330178093958   -0.34278489241696
C         1.15989130527610   -1.42610198356685    0.48527821722578
C         1.90479178074596   -2.47564557267562   -0.05602632964888
C         2.13660748154379   -2.59376158129155   -1.53733289286571
F         2.80909774832245   -1.54833231786335   -2.06918862811898
F         2.84113636539553   -3.67685554195964   -1.87293727255848
F         0.98592631492471   -2.66236020885103   -2.23584190185644
C         2.40317977844853   -3.47878617491723    0.76774228149136
C         2.14881560926327   -3.45714785265516    2.12553110679943
C         1.37232061119380   -2.44533390164191    2.66282270512352
C         0.88418307694977   -1.44117500435032    1.84900823812071
N         0.81823277094692    1.00589812833215    0.28031886300223
C         1.81788488361220    1.39998584565309    1.11061322612763
C         3.06382458793735    0.59293740620536    1.10250215441895
C         3.55935136015027    0.11585817372844    2.31133612900982
C         4.68714756966948   -0.68091645684832    2.33371310391221
C         5.33333461533076   -0.97122780178656    1.14435635832396
I         7.00963911748907   -2.25356449501443    1.16355048136552
C         4.89434346890458   -0.44361794693485   -0.05638858104595
C         3.75509638967830    0.34017068600477   -0.07515226244325
O         1.66599826923733    2.39146316467265    1.80408595520383
C        -0.38169925948674    1.81939533454818    0.31050188736747
C        -0.68772508063800    2.19785925869956    1.78063712577700
O        -0.89747790304731    3.49701962181487    1.92837176849294
O        -0.82977580481621    1.37440598686492    2.64360809940253
N        -1.39636997530463    0.97989893794790   -0.26798288640040
C        -2.73287728403340    1.24818840894795   -0.32429283355017
C        -3.11018797645736    2.64525976261789    0.04535258265451
C        -3.91847167783422    2.84417645830099    1.15779221329886
C        -4.29073535519320    4.12338202988010    1.52894186570501
C        -3.86672621301688    5.19804075700657    0.76828015223895
I        -4.41328098564608    7.15741373506754    1.34270528348791
C        -3.09227025563185    5.01340979695627   -0.36300467267970
C        -2.71329503946459    3.73301528250380   -0.72203855930809
O        -3.53761445353188    0.41074605645023   -0.66416919059627
H        -2.84581506129203   -3.59388256065647   -3.29451289041538
H        -2.55312323242405   -2.15091960563961   -5.26332062313301
H        -1.50155060319626    0.07349830240680   -5.01040956941693
H        -0.78065037137374    0.83993253049179   -2.79128959696150
H        -1.32721194720763   -0.99991449842198    0.38060557455292
H         1.03164283635682   -0.27925436797033   -1.35084487181294
H         2.98299338477396   -4.28136538847904    0.33969555824324
H         2.54189373158042   -4.23946400750597    2.75535122990420
H         1.14234178468717   -2.43630271588313    3.71687502937852
H         0.28533965721623   -0.65017332641788    2.27808518216254
H         3.04233548308834    0.35627406777930    3.22718572855903
H         5.05647436577059   -1.07255291727933    3.26852050317579
H         5.42098805902255   -0.64875857283991   -0.97504281746256
H         3.41090507715484    0.75439309398055   -1.00973561811622
H        -0.23459910619346    2.75185313966274   -0.25514189079990
H        -1.02459989760467    3.72008706595425    2.86476488571316
H        -4.24673308092061    1.99344000838339    1.73544998306090
H        -4.90858455535595    4.27654136403015    2.40044113871775
H        -2.78311796347729    5.85761715257703   -0.95952628534459
H        -2.12166410463512    3.58208514666764   -1.61300127018963

          :  Hamiltonian                  GFN2-xTB          :
         :: total energy            -136.935548494619 Eh    ::
         :: gradient norm              0.000287457034 Eh/a0 ::
         :: HOMO-LUMO gap              3.340023161248 eV    ::
         :: SCC energy              -138.533323374657 Eh    ::
         :: -> dispersion             -0.109707951695 Eh    ::
         :: repulsion energy           1.594136501953 Eh    ::

    * Orbital Energies and Occupations

         #    Occupation            Energy/Eh            Energy/eV
      -------------------------------------------------------------
         1        2.0000           -0.8958876             -24.3783
       ...           ...                  ...                  ...
       107        2.0000           -0.4471882             -12.1686
       108        2.0000           -0.4461522             -12.1404
       109        2.0000           -0.4453040             -12.1173
       110        2.0000           -0.4438156             -12.0768
       111        2.0000           -0.4417001             -12.0193
       112        2.0000           -0.4363967             -11.8750
       113        2.0000           -0.4314483             -11.7403
       114        2.0000           -0.4237823             -11.5317
       115        2.0000           -0.4211093             -11.4590
       116        2.0000           -0.4199562             -11.4276
       117        2.0000           -0.4164572             -11.3324
       118        2.0000           -0.4147637             -11.2863
       119        2.0000           -0.4120063             -11.2113 (HOMO)
       120                         -0.2892627              -7.8712 (LUMO)
       121                         -0.2817840              -7.6677
       122                         -0.2745651              -7.4713
       123                         -0.2739060              -7.4534
       124                         -0.2696574              -7.3378
       125                         -0.2646125              -7.2005
       126                         -0.2632204              -7.1626
       127                         -0.2620576              -7.1309
       128                         -0.2610973              -7.1048
       129                         -0.2410703              -6.5599
       130                         -0.2369910              -6.4489
       ...                                ...                  ...
       214                          0.6324617              17.2102
      -------------------------------------------------------------
                  HL-Gap            0.1227436 Eh            3.3400 eV

     #   Z          covCN         q      C6AA      Î±(0)
     1   6 C        2.976    -0.019    28.485     8.755
     2   6 C        3.335     0.486    17.288     6.586
     3   9 F        0.791    -0.226    11.508     4.007
     4   9 F        0.791    -0.200    11.232     3.959
     5   9 F        0.792    -0.198    11.216     3.956
     6   6 C        2.923    -0.017    28.435     8.745
     7   6 C        2.920    -0.019    28.493     8.754
     8   6 C        2.918    -0.017    28.425     8.743
     9   6 C        2.927    -0.025    28.618     8.773
    10   6 C        2.972     0.023    27.481     8.599
    11   6 C        3.826     0.052    19.690     6.314
    12   6 C        3.812     0.041    19.873     6.345
    13   6 C        2.972     0.007    27.853     8.657
    14   6 C        2.975    -0.033    28.812     8.805
    15   6 C        3.335     0.485    17.307     6.590
    16   9 F        0.791    -0.218    11.421     3.992
    17   9 F        0.792    -0.194    11.173     3.948
    18   9 F        0.791    -0.215    11.395     3.988
    19   6 C        2.923    -0.021    28.536     8.760
    20   6 C        2.920    -0.021    28.528     8.759
    21   6 C        2.919    -0.016    28.420     8.742
    22   6 C        2.926    -0.031    28.779     8.798
    23   7 N        2.764    -0.114    23.483     7.197
    24   6 C        2.777     0.274    22.366     7.746
    25   6 C        2.975    -0.014    28.346     8.733
    26   6 C        2.928    -0.020    28.510     8.757
    27   6 C        3.054    -0.032    28.741     8.792
    28   6 C        2.959     0.060    26.654     8.468
    29  53 I        1.232    -0.111   380.157    33.658
    30   6 C        3.054    -0.030    28.706     8.787
    31   6 C        2.925    -0.028    28.694     8.785
    32   8 O        0.861    -0.418    22.045     6.295
    33   6 C        3.766     0.095    19.048     6.220
    34   6 C        2.689     0.369    20.749     7.455
    35   8 O        1.659    -0.360    20.080     6.049
    36   8 O        0.856    -0.404    21.753     6.253
    37   7 N        2.762    -0.121    23.638     7.221
    38   6 C        2.765     0.273    22.387     7.749
    39   6 C        2.976    -0.017    28.432     8.746
    40   6 C        2.927    -0.020    28.499     8.755
    41   6 C        3.051    -0.030    28.698     8.786
    42   6 C        2.959     0.062    26.607     8.461
    43  53 I        1.227    -0.118   380.706    33.682
    44   6 C        3.052    -0.028    28.650     8.778
    45   6 C        2.925    -0.025    28.636     8.776
    46   8 O        0.859    -0.404    21.769     6.255
    47   1 H        0.926     0.072     2.061     2.245
    48   1 H        0.926     0.061     2.184     2.311
    49   1 H        0.926     0.057     2.229     2.335
    50   1 H        0.926     0.046     2.368     2.407
    51   1 H        0.924     0.071     2.072     2.251
    52   1 H        0.924     0.062     2.174     2.306
    53   1 H        0.926     0.073     2.056     2.242
    54   1 H        0.926     0.064     2.150     2.293
    55   1 H        0.926     0.064     2.147     2.291
    56   1 H        0.926     0.078     2.001     2.212
    57   1 H        0.926     0.062     2.178     2.308
    58   1 H        0.926     0.062     2.176     2.307
    59   1 H        0.926     0.067     2.122     2.278
    60   1 H        0.926     0.054     2.273     2.358
    61   1 H        0.923     0.071     2.075     2.253
    62   1 H        0.804     0.350     0.588     1.205
    63   1 H        0.926     0.059     2.211     2.325
    64   1 H        0.926     0.061     2.189     2.313
    65   1 H        0.926     0.060     2.195     2.317
    66   1 H        0.926     0.042     2.426     2.436

Wiberg/Mayer (AO) data.
largest (>0.10) Wiberg bond orders for each atom

     #   Z sym  total        # sym  WBO       # sym  WBO       # sym  WBO
 ---------------------------------------------------------------------------
     1   6 C    3.972 --     6 C    1.415    10 C    1.387     2 C    0.951
                             8 C    0.105
     2   6 C    3.823 --     5 F    0.958     1 C    0.951     4 F    0.950
                             3 F    0.925
     3   9 F    1.052 --     2 C    0.925
     4   9 F    1.081 --     2 C    0.950
     5   9 F    1.081 --     2 C    0.958
     6   6 C    3.986 --     7 C    1.442     1 C    1.415    47 H    0.965
                             9 C    0.109
     7   6 C    3.988 --     6 C    1.442     8 C    1.434    48 H    0.968
                            10 C    0.109
     8   6 C    3.990 --     9 C    1.448     7 C    1.434    49 H    0.969
                             1 C    0.105
     9   6 C    3.990 --     8 C    1.448    10 C    1.410    50 H    0.967
                             6 C    0.109
    10   6 C    3.986 --     9 C    1.410     1 C    1.387    11 C    0.993
                             7 C    0.109
    11   6 C    3.965 --    10 C    0.993    37 N    0.956    51 H    0.952
                            12 C    0.948
    12   6 C    3.967 --    13 C    0.993    23 N    0.962    52 H    0.953
                            11 C    0.948
    13   6 C    3.986 --    22 C    1.409    14 C    1.386    12 C    0.993
                            20 C    0.108
    14   6 C    3.969 --    19 C    1.410    13 C    1.386    15 C    0.951
                            21 C    0.104
    15   6 C    3.821 --    17 F    0.963    14 C    0.951    18 F    0.937
                            16 F    0.931
    16   9 F    1.061 --    15 C    0.931
    17   9 F    1.086 --    15 C    0.963
    18   9 F    1.065 --    15 C    0.937
    19   6 C    3.986 --    20 C    1.444    14 C    1.410    53 H    0.965
                            22 C    0.109
    20   6 C    3.988 --    19 C    1.444    21 C    1.432    54 H    0.968
                            13 C    0.108
    21   6 C    3.989 --    22 C    1.447    20 C    1.432    55 H    0.968
                            14 C    0.104
    22   6 C    3.986 --    21 C    1.447    13 C    1.409    56 H    0.957
                            19 C    0.109
    23   7 N    3.459 --    24 C    1.216    33 C    0.976    12 C    0.962
                            32 O    0.184
    24   6 C    3.942 --    32 O    1.652    23 N    1.216    25 C    0.982
    25   6 C    3.988 --    31 C    1.399    26 C    1.391    24 C    0.982
    26   6 C    3.988 --    27 C    1.447    25 C    1.391    57 H    0.965
                            30 C    0.108
    27   6 C    3.989 --    26 C    1.447    28 C    1.416    58 H    0.967
                            31 C    0.107
    28   6 C    3.957 --    30 C    1.422    27 C    1.416    29 I    0.978
    29  53 I    1.095 --    28 C    0.978
    30   6 C    3.989 --    31 C    1.440    28 C    1.422    59 H    0.966
                            26 C    0.108
    31   6 C    3.990 --    30 C    1.440    25 C    1.399    60 H    0.966
                            27 C    0.107
    32   8 O    2.054 --    24 C    1.652    23 N    0.184
    33   6 C    3.963 --    37 N    0.988    23 N    0.976    61 H    0.945
                            34 C    0.902
    34   6 C    3.923 --    36 O    1.747    35 O    1.160    33 C    0.902
    35   8 O    2.219 --    34 C    1.160    62 H    0.852    36 O    0.172
    36   8 O    2.047 --    34 C    1.747    35 O    0.172
    37   7 N    3.446 --    38 C    1.188    33 C    0.988    11 C    0.956
                            46 O    0.188
    38   6 C    3.945 --    46 O    1.710    37 N    1.188    39 C    0.963
    39   6 C    3.987 --    40 C    1.402    45 C    1.401    38 C    0.963
                            42 C    0.101
    40   6 C    3.989 --    41 C    1.440    39 C    1.402    63 H    0.966
                            44 C    0.109
    41   6 C    3.989 --    40 C    1.440    42 C    1.422    64 H    0.967
                            45 C    0.109
    42   6 C    3.956 --    41 C    1.422    44 C    1.419    43 I    0.974
                            39 C    0.101
    43  53 I    1.091 --    42 C    0.974
    44   6 C    3.990 --    45 C    1.442    42 C    1.419    65 H    0.967
                            40 C    0.109
    45   6 C    3.991 --    44 C    1.442    39 C    1.401    66 H    0.967
                            41 C    0.109
    46   8 O    2.041 --    38 C    1.710    37 N    0.188
    47   1 H    0.994 --     6 C    0.965
    48   1 H    0.995 --     7 C    0.968
    49   1 H    0.996 --     8 C    0.969
    50   1 H    0.997 --     9 C    0.967
    51   1 H    0.994 --    11 C    0.952
    52   1 H    0.996 --    12 C    0.953
    53   1 H    0.994 --    19 C    0.965
    54   1 H    0.995 --    20 C    0.968
    55   1 H    0.995 --    21 C    0.968
    56   1 H    0.994 --    22 C    0.957
    57   1 H    0.996 --    26 C    0.965
    58   1 H    0.996 --    27 C    0.967
    59   1 H    0.995 --    30 C    0.966
    60   1 H    0.997 --    31 C    0.966
    61   1 H    0.994 --    33 C    0.945
    62   1 H    0.877 --    35 O    0.852
    63   1 H    0.996 --    40 C    0.966
    64   1 H    0.996 --    41 C    0.967
    65   1 H    0.996 --    44 C    0.967
    66   1 H    0.998 --    45 C    0.967
 ---------------------------------------------------------------------------

molecular dipole:
                 x           y           z       tot (Debye)
 q only:        0.671       0.382      -0.454
   full:        0.394       0.365      -0.592       2.032

           -------------------------------------------------
          | TOTAL ENERGY             -136.935548494619 Eh   |
          | GRADIENT NORM               0.000287457034 Eh/Î± |
          | HOMO-LUMO GAP               3.340023161248 eV   |
           -------------------------------------------------

 * finished run on 2022/03/17 at 01:23:20.666
