   * xtb version 6.3.3 (4ae9cef) compiled by 'conda@95abc7406d43' on 2020-10-14
          program call               : xtb sub_10.xyz --opt --chrg 0 --uhf 0 --gfn 2
          number of atoms            :                    28
          number of electrons        :                    84
          charge                     :                     0
          spin                       :                   0.0

   ID    Z sym.   atoms
    1   35 Br     1
    2    6 C      2-5, 7-9, 11-17
    3    7 N      6, 10
    4    1 H      18-28

          :  Hamiltonian                  GFN2-xTB          :
 * total energy  :   -45.5318484 Eh     change       -0.3573959E-09 Eh
 * total energy  :   -45.5386048 Eh     change       -0.6756428E-02 Eh
 * total energy  :   -45.5399168 Eh     change       -0.1311956E-02 Eh
 * total energy  :   -45.5400567 Eh     change       -0.1399079E-03 Eh
 * total energy  :   -45.5401312 Eh     change       -0.7455002E-04 Eh
 * total energy  :   -45.5401745 Eh     change       -0.4330002E-04 Eh
 * total energy  :   -45.5401909 Eh     change       -0.1639659E-04 Eh
 * total energy  :   -45.5401994 Eh     change       -0.8447066E-05 Eh
 * total energy  :   -45.5402048 Eh     change       -0.5380899E-05 Eh
 * total energy  :   -45.5402065 Eh     change       -0.1737478E-05 Eh
   *** GEOMETRY OPTIMIZATION CONVERGED AFTER 10 ITERATIONS ***

 final structure:
================
28
 xtb: 6.3.3 (4ae9cef)
Br        5.88114126090563   -1.90534579732891    0.62513404908154
C         4.17220578497642   -1.07755649553460    0.41724113725160
C         4.10250342245857    0.29188256718643    0.30358293827350
C         2.83970420008109    0.85817789510788    0.15380185640526
C         1.68300867894836    0.04157468757994    0.12211037853290
N         0.58498252111449    0.86916254727734   -0.03499647071733
C         1.04859228336307    2.16678273821236   -0.09876948355827
C         2.39866167331137    2.20503139900609    0.01069946598742
C        -0.74616467443614    0.47878577299609   -0.11460259540095
N        -0.98994626662857   -0.82315180296124   -0.02155791883581
C        -2.23346153910844   -1.25611465017494   -0.08886269876284
C        -3.33842763885889   -0.43179351527438   -0.25490700268359
C        -4.72552650754955   -0.98116747407146   -0.34718430195509
C        -3.07956621909007    0.93315370206857   -0.35078352733484
C        -1.78390817000099    1.40317668427498   -0.28140517735355
C         1.78326253325908   -1.33935833199605    0.23882839394985
C         3.03932688403368   -1.89003578362645    0.38668944750364
H         4.98883862645883    0.90641671604676    0.32896929591562
H         0.37866863810450    2.99413036139141   -0.21934304302767
H         3.01786590935709    3.07936250840250   -0.00668727737127
H        -2.34834415136579   -2.32937980151082   -0.00333688867360
H        -4.97569745546000   -1.18766359797064   -1.38842123304794
H        -5.45004281229041   -0.26713480771356    0.03789678559991
H        -4.81024113363424   -1.91092479646775    0.21021064549924
H        -3.89649625109236    1.62942040910329   -0.47840155912397
H        -1.59717123598584    2.46125956415130   -0.35484143501717
H         0.90456440657081   -1.95961950787944    0.21445189175081
H         3.15166923255827   -2.95907219029467    0.47998832711256

          :  Hamiltonian                  GFN2-xTB          :
         :: total energy             -45.540206502309 Eh    ::
         :: gradient norm              0.000325040150 Eh/a0 ::
         :: HOMO-LUMO gap              3.093101904337 eV    ::
         :: SCC energy               -46.280078335005 Eh    ::
         :: -> dispersion             -0.031836774944 Eh    ::
         :: repulsion energy           0.740080544713 Eh    ::

    * Orbital Energies and Occupations

         #    Occupation            Energy/Eh            Energy/eV
      -------------------------------------------------------------
         1        2.0000           -0.8249148             -22.4471
       ...           ...                  ...                  ...
        30        2.0000           -0.4785891             -13.0231
        31        2.0000           -0.4712107             -12.8223
        32        2.0000           -0.4574588             -12.4481
        33        2.0000           -0.4479737             -12.1900
        34        2.0000           -0.4444751             -12.0948
        35        2.0000           -0.4403803             -11.9834
        36        2.0000           -0.4329121             -11.7801
        37        2.0000           -0.4279912             -11.6462
        38        2.0000           -0.4081751             -11.1070
        39        2.0000           -0.3986206             -10.8470
        40        2.0000           -0.3867718             -10.5246
        41        2.0000           -0.3812093             -10.3732
        42        2.0000           -0.3765098             -10.2454 (HOMO)
        43                         -0.2628404              -7.1523 (LUMO)
        44                         -0.2538822              -6.9085
        45                         -0.2406074              -6.5473
        46                         -0.2095834              -5.7031
        47                         -0.1927759              -5.2457
        48                         -0.1699209              -4.6238
        49                         -0.1129234              -3.0728
        50                         -0.0878306              -2.3900
        51                          0.0056907               0.1549
        52                          0.0497849               1.3547
        53                          0.0529783               1.4416
       ...                                ...                  ...
        84                          0.7153550              19.4658
      -------------------------------------------------------------
                  HL-Gap            0.1136694 Eh            3.0931 eV

     #   Z          covCN         q      C6AA      Î±(0)
     1  35 Br       1.071    -0.184   190.162    22.234
     2   6 C        2.918     0.075    26.318     8.413
     3   6 C        2.987    -0.043    29.061     8.843
     4   6 C        3.121    -0.007    28.003     8.667
     5   6 C        3.085     0.043    26.948     8.510
     6   7 N        2.824    -0.010    21.455     6.879
     7   6 C        3.040    -0.004    28.074     8.690
     8   6 C        2.998    -0.065    29.615     8.927
     9   6 C        2.895     0.142    24.914     8.184
    10   7 N        1.845    -0.246    27.259     7.738
    11   6 C        2.910     0.052    26.837     8.495
    12   6 C        2.960     0.002    27.988     8.677
    13   6 C        3.757    -0.111    22.666     6.788
    14   6 C        2.935    -0.022    28.554     8.764
    15   6 C        2.914    -0.059    29.468     8.902
    16   6 C        2.912    -0.045    29.113     8.848
    17   6 C        2.995    -0.042    29.026     8.838
    18   1 H        0.926     0.051     2.311     2.377
    19   1 H        0.926     0.040     2.443     2.444
    20   1 H        0.926     0.041     2.435     2.440
    21   1 H        0.925     0.042     2.429     2.437
    22   1 H        0.924     0.053     2.279     2.361
    23   1 H        0.925     0.048     2.343     2.393
    24   1 H        0.925     0.048     2.343     2.394
    25   1 H        0.926     0.039     2.468     2.457
    26   1 H        0.926     0.039     2.464     2.455
    27   1 H        0.926     0.071     2.071     2.250
    28   1 H        0.926     0.052     2.297     2.370

Wiberg/Mayer (AO) data.
largest (>0.10) Wiberg bond orders for each atom

     #   Z sym  total        # sym  WBO       # sym  WBO       # sym  WBO
 ---------------------------------------------------------------------------
     1  35 Br   1.088 --     2 C    0.970
     2   6 C    3.928 --     3 C    1.463    17 C    1.358     1 Br   0.970
     3   6 C    3.988 --     2 C    1.463     4 C    1.337    18 H    0.967
                            16 C    0.108
     4   6 C    3.982 --     3 C    1.337     5 C    1.257     8 C    1.201
     5   6 C    3.957 --    16 C    1.355     4 C    1.257     6 N    1.124
     6   7 N    3.634 --     7 C    1.156     5 C    1.124     9 C    1.088
     7   6 C    3.952 --     8 C    1.640     6 N    1.156    19 H    0.964
     8   6 C    3.967 --     7 C    1.640     4 C    1.201    20 H    0.972
     9   6 C    3.968 --    10 N    1.369    15 C    1.334     6 N    1.088
    10   7 N    3.067 --    11 C    1.440     9 C    1.369
    11   6 C    3.981 --    10 N    1.440    12 C    1.399    21 H    0.962
                            15 C    0.109
    12   6 C    3.972 --    11 C    1.399    14 C    1.389    13 C    1.028
    13   6 C    3.995 --    12 C    1.028    24 H    0.981    23 H    0.981
                            22 H    0.965
    14   6 C    3.990 --    15 C    1.477    12 C    1.389    25 H    0.968
    15   6 C    3.985 --    14 C    1.477     9 C    1.334    26 H    0.963
                            11 C    0.109
    16   6 C    3.987 --    17 C    1.478     5 C    1.355    27 H    0.957
                             3 C    0.108
    17   6 C    3.985 --    16 C    1.478     2 C    1.358    28 H    0.969
    18   1 H    0.997 --     3 C    0.967
    19   1 H    0.997 --     7 C    0.964
    20   1 H    0.997 --     8 C    0.972
    21   1 H    0.998 --    11 C    0.962
    22   1 H    0.995 --    13 C    0.965
    23   1 H    0.997 --    13 C    0.981
    24   1 H    0.997 --    13 C    0.981
    25   1 H    0.998 --    14 C    0.968
    26   1 H    0.998 --    15 C    0.963
    27   1 H    0.994 --    16 C    0.957
    28   1 H    0.997 --    17 C    0.969
 ---------------------------------------------------------------------------

molecular dipole:
                 x           y           z       tot (Debye)
 q only:       -1.898       0.632      -0.226
   full:       -2.771       1.151      -0.351       7.677

           -------------------------------------------------
          | TOTAL ENERGY              -45.540206502309 Eh   |
          | GRADIENT NORM               0.000325040150 Eh/Î± |
          | HOMO-LUMO GAP               3.093101904337 eV   |
           -------------------------------------------------

 * finished run on 2022/03/17 at 02:20:06.495
