   * xtb version 6.3.3 (4ae9cef) compiled by 'conda@95abc7406d43' on 2020-10-14
          program call               : xtb acid_107.xyz --opt --chrg 0 --uhf 0 --gfn 2
          number of atoms            :                    86
          number of electrons        :                   286
          charge                     :                     0
          spin                       :                   0.0

   ID    Z sym.   atoms
    1    6 C      1, 2, 6-15, 19-22, 24-32, 34-36, 38, 39, 43-51, 53-55
    2    9 F      3-5, 16-18
    3    7 N      23, 42
    4    8 O      33, 37, 40, 41, 52, 56
    5    1 H      57-86

          :  Hamiltonian                  GFN2-xTB          :
 * total energy  :  -163.9291217 Eh     change       -0.4462436E-08 Eh
 * total energy  :  -163.9472301 Eh     change       -0.1810840E-01 Eh
 * total energy  :  -163.9526622 Eh     change       -0.5432113E-02 Eh
 * total energy  :  -163.9549669 Eh     change       -0.2304677E-02 Eh
 * total energy  :  -163.9570267 Eh     change       -0.2059826E-02 Eh
 * total energy  :  -163.9586629 Eh     change       -0.1636140E-02 Eh
 * total energy  :  -163.9599284 Eh     change       -0.1265495E-02 Eh
 * total energy  :  -163.9610875 Eh     change       -0.1159115E-02 Eh
 * total energy  :  -163.9622586 Eh     change       -0.1171158E-02 Eh
 * total energy  :  -163.9632858 Eh     change       -0.1027190E-02 Eh
 * total energy  :  -163.9758577 Eh     change       -0.7637387E-05 Eh
 * total energy  :  -163.9758701 Eh     change       -0.1236457E-04 Eh
 * total energy  :  -163.9758849 Eh     change       -0.1480561E-04 Eh
 * total energy  :  -163.9758958 Eh     change       -0.1095313E-04 Eh
 * total energy  :  -163.9759037 Eh     change       -0.7874669E-05 Eh
 * total energy  :  -163.9759124 Eh     change       -0.8695611E-05 Eh
 * total energy  :  -163.9759219 Eh     change       -0.9511131E-05 Eh
 * total energy  :  -163.9759292 Eh     change       -0.7310390E-05 Eh
 * total energy  :  -163.9759339 Eh     change       -0.4620124E-05 Eh
   *** GEOMETRY OPTIMIZATION CONVERGED AFTER 80 ITERATIONS ***

 final structure:
================
86
 xtb: 6.3.3 (4ae9cef)
C         1.21160837702887    1.41717412199717   -1.97301410774770
C         1.86594087698187    2.38313250822682   -1.02361441975218
F         2.98209591912781    1.90088166234074   -0.45719172454803
F         2.22243761304216    3.53134487270395   -1.61660857839825
F         1.05860678917729    2.73972223640503   -0.00184611419368
C         1.14527914856358    1.76280641742956   -3.31942828323902
C         0.52988902208596    0.92316493143027   -4.22700284188947
C        -0.03262240375149   -0.26443296541215   -3.79017996803165
C         0.04176285470169   -0.61454017450825   -2.45683067216854
C         0.67873594772981    0.20648119659033   -1.52893546533940
C         0.68574594562809   -0.23780204515514   -0.08333146008570
C        -0.75941463817388   -0.11450990089930    0.47840301415888
C        -1.01718611369029    1.08953460185572    1.35586913829248
C        -0.65424745680351    1.22694295239365    2.69814612451736
C         0.11386985673707    0.17590806526038    3.45675023890723
F         1.15802368576526   -0.32275674075876    2.77792942215644
F        -0.64735957404490   -0.87287023830351    3.81552614067462
F         0.62938652834344    0.65177959426996    4.60169662394818
C        -1.02533604406064    2.36281844734373    3.41243814982521
C        -1.73187355103841    3.38170977627685    2.80607509929026
C        -2.06237386184710    3.27580879501100    1.46690028097631
C        -1.70934479807611    2.14334386979775    0.76202002563146
N        -1.02777822181962   -1.39833853884924    1.09634920622852
C        -2.26344526391959   -1.82963477669526    1.47889286564926
C        -3.26806429938470   -0.74623248190621    1.62307054564055
C        -3.95470676854724   -0.04163797778274    0.65909838596770
C        -3.92868869029071   -0.12167632566446   -0.78815011264411
C        -4.39837629951037    0.94518826238377   -1.55752001684821
C        -4.32791680154122    0.89586624943603   -2.93592408636445
C        -3.79394311000063   -0.21537099571843   -3.56857062449426
C        -3.34363909668060   -1.28637131204409   -2.81337254451545
C        -3.41021574599857   -1.24621656607254   -1.43406087578320
O        -4.73632473216871    0.89105973148485    1.25546265838592
C        -4.57368626306635    0.78165118180212    2.58914508913533
C        -5.32628741219191    1.70651700638841    3.47392268184275
C        -3.68635362845451   -0.21452468811515    2.87060833823914
O        -2.48030526224611   -2.99288437542265    1.73448224797977
C         0.06005179550579   -2.33651695554563    0.92521861466223
C        -0.40220915702794   -3.70070359373384    0.37015608998282
O        -1.04462619239368   -3.55400268631983   -0.79726267115752
O        -0.22932174228406   -4.74386344871638    0.91874520191138
N         0.96503921308774   -1.65645005870640    0.02675008777455
C         1.87503921539742   -2.36846793043562   -0.69494254370056
C         2.91919851823341   -1.56343465254960   -1.36198120001019
C         3.93375047635267   -0.85318316637456   -0.75540491143941
C         4.28673044916520   -0.68875755796642    0.64246368248491
C         5.12591330872837    0.35719608860262    1.02967696376962
C         5.45590812119566    0.52978934158931    2.35914877202092
C         4.96121787327299   -0.33762653832469    3.31974014097783
C         4.14698436245668   -1.39201987373844    2.94036128110595
C         3.81331298525498   -1.57325395170119    1.61224148274775
O         4.69689740918628   -0.26702472786203   -1.70475189965628
C         4.20159603467716   -0.60479464971543   -2.91245998844403
C         4.86903630979414   -0.07291366830536   -4.12846459604568
C         3.11615622769640   -1.41446773258562   -2.76077651283560
O         1.81717583041724   -3.58006541346119   -0.75179072369669
H         1.57356583268032    2.69573598502272   -3.65098489998110
H         0.48560024711840    1.20061890714599   -5.26830865037684
H        -0.52787607290035   -0.92016547919154   -4.48911155858856
H        -0.38865280238652   -1.54628329451678   -2.12220682941013
H         1.39905303513797    0.33636774125785    0.51686520490264
H        -1.43226532982998   -0.00950528965082   -0.38564811428464
H        -0.75173247121941    2.44640735169961    4.45249806833604
H        -2.01389872312709    4.25277764406832    3.37619065720502
H        -2.60225893645729    4.06833260112061    0.97232418209825
H        -1.98169603321942    2.06254559711927   -0.28007226279363
H        -4.81243947382601    1.80861846509421   -1.05916868582659
H        -4.69078123480958    1.72804320076770   -3.52104011056833
H        -3.73995510530578   -0.24987607016693   -4.64638244670229
H        -2.94495629375180   -2.16312768624946   -3.30126857547823
H        -3.07429978483002   -2.08972919302127   -0.85203083800521
H        -5.02974580031787    2.73759769719671    3.28297533204040
H        -5.12394084873397    1.46327519907721    4.51200382599488
H        -6.39603078009392    1.62359192493309    3.28745978492055
H        -3.35638899001092   -0.54202657707193    3.83417900981297
H         0.54899467020964   -2.55126947110696    1.89064906205006
H        -1.31033756325198   -4.42912378780021   -1.12098061151795
H         5.50168410101545    1.03370024583513    0.27832433425133
H         6.10104758251919    1.34622419883797    2.64920157517721
H         5.21652604078864   -0.19761262997768    4.35957279146865
H         3.77361971815934   -2.08130715779688    3.68246716056943
H         3.20728173089753   -2.41668681155405    1.32198380023935
H         4.33352870924672   -0.40328542971381   -5.01312437497951
H         4.88798222781912    1.01597536492443   -4.10383721162035
H         5.89868590487902   -0.42429709233136   -4.18142345674567
H         2.51794387750475   -1.84799235557742   -3.53497781401394

          :  Hamiltonian                  GFN2-xTB          :
         :: total energy            -163.975933852475 Eh    ::
         :: gradient norm              0.000382956404 Eh/a0 ::
         :: HOMO-LUMO gap              2.518643697926 eV    ::
         :: SCC energy              -166.074195659545 Eh    ::
         :: -> dispersion             -0.140581030288 Eh    ::
         :: repulsion energy           2.088639445705 Eh    ::

    * Orbital Energies and Occupations

         #    Occupation            Energy/Eh            Energy/eV
      -------------------------------------------------------------
         1        2.0000           -0.8924807             -24.2856
       ...           ...                  ...                  ...
       131        2.0000           -0.4311076             -11.7310
       132        2.0000           -0.4295129             -11.6876
       133        2.0000           -0.4253117             -11.5733
       134        2.0000           -0.4232467             -11.5171
       135        2.0000           -0.4210602             -11.4576
       136        2.0000           -0.4180251             -11.3750
       137        2.0000           -0.4149901             -11.2925
       138        2.0000           -0.4080345             -11.1032
       139        2.0000           -0.4050715             -11.0226
       140        2.0000           -0.4025555             -10.9541
       141        2.0000           -0.3961610             -10.7801
       142        2.0000           -0.3860791             -10.5057
       143        2.0000           -0.3751532             -10.2084 (HOMO)
       144                         -0.2825947              -7.6898 (LUMO)
       145                         -0.2766883              -7.5291
       146                         -0.2718487              -7.3974
       147                         -0.2703912              -7.3577
       148                         -0.2632270              -7.1628
       149                         -0.2540388              -6.9127
       150                         -0.2409316              -6.5561
       151                         -0.2313798              -6.2962
       152                         -0.2262291              -6.1560
       153                         -0.2223618              -6.0508
       154                         -0.2198287              -5.9818
       ...                                ...                  ...
       254                          0.7027757              19.1235
      -------------------------------------------------------------
                  HL-Gap            0.0925585 Eh            2.5186 eV

     #   Z          covCN         q      C6AA      Î±(0)
     1   6 C        2.975    -0.036    28.883     8.815
     2   6 C        3.335     0.485    17.304     6.589
     3   9 F        0.791    -0.204    11.277     3.967
     4   9 F        0.792    -0.201    11.250     3.962
     5   9 F        0.791    -0.221    11.450     3.997
     6   6 C        2.923    -0.025    28.617     8.773
     7   6 C        2.920    -0.025    28.618     8.773
     8   6 C        2.918    -0.018    28.465     8.749
     9   6 C        2.927    -0.030    28.748     8.793
    10   6 C        2.973     0.009    27.820     8.652
    11   6 C        3.812     0.044    19.833     6.339
    12   6 C        3.821     0.041    19.878     6.345
    13   6 C        2.965     0.009    27.813     8.650
    14   6 C        2.975    -0.026    28.651     8.780
    15   6 C        3.336     0.488    17.256     6.578
    16   9 F        0.791    -0.210    11.338     3.977
    17   9 F        0.791    -0.205    11.290     3.969
    18   9 F        0.793    -0.204    11.274     3.966
    19   6 C        2.926    -0.023    28.570     8.766
    20   6 C        2.920    -0.022    28.562     8.764
    21   6 C        2.918    -0.016    28.403     8.740
    22   6 C        2.931    -0.026    28.646     8.778
    23   7 N        2.761    -0.122    23.657     7.224
    24   6 C        2.759     0.280    22.269     7.728
    25   6 C        3.067    -0.054    29.280     8.873
    26   6 C        3.088     0.100    25.695     8.309
    27   6 C        2.970     0.001    27.992     8.678
    28   6 C        2.925    -0.034    28.839     8.807
    29   6 C        2.918    -0.030    28.743     8.792
    30   6 C        2.919    -0.032    28.804     8.801
    31   6 C        2.918    -0.028    28.698     8.785
    32   6 C        2.924    -0.040    28.996     8.831
    33   8 O        1.730    -0.195    17.248     5.608
    34   6 C        3.078     0.117    25.339     8.253
    35   6 C        3.753    -0.119    22.845     6.816
    36   6 C        3.006    -0.074    29.834     8.960
    37   8 O        0.859    -0.405    21.787     6.258
    38   6 C        3.761     0.102    18.944     6.205
    39   6 C        2.686     0.378    20.593     7.426
    40   8 O        1.659    -0.378    20.431     6.102
    41   8 O        0.856    -0.357    20.849     6.122
    42   7 N        2.766    -0.117    23.544     7.207
    43   6 C        2.759     0.279    22.287     7.731
    44   6 C        3.068    -0.061    29.441     8.897
    45   6 C        3.086     0.108    25.520     8.281
    46   6 C        2.971     0.003    27.947     8.671
    47   6 C        2.925    -0.028    28.694     8.785
    48   6 C        2.919    -0.027    28.685     8.783
    49   6 C        2.920    -0.027    28.679     8.782
    50   6 C        2.919    -0.023    28.576     8.766
    51   6 C        2.924    -0.034    28.836     8.806
    52   8 O        1.731    -0.186    17.116     5.586
    53   6 C        3.079     0.114    25.418     8.266
    54   6 C        3.753    -0.118    22.816     6.811
    55   6 C        3.003    -0.076    29.891     8.968
    56   8 O        0.860    -0.414    21.968     6.284
    57   1 H        0.926     0.067     2.115     2.274
    58   1 H        0.926     0.059     2.211     2.325
    59   1 H        0.926     0.060     2.200     2.320
    60   1 H        0.926     0.075     2.037     2.232
    61   1 H        0.924     0.063     2.161     2.299
    62   1 H        0.923     0.057     2.237     2.339
    63   1 H        0.926     0.071     2.070     2.250
    64   1 H        0.926     0.060     2.199     2.319
    65   1 H        0.926     0.059     2.209     2.324
    66   1 H        0.926     0.047     2.352     2.398
    67   1 H        0.926     0.044     2.403     2.424
    68   1 H        0.926     0.035     2.510     2.478
    69   1 H        0.926     0.034     2.528     2.487
    70   1 H        0.926     0.038     2.470     2.458
    71   1 H        0.926     0.048     2.344     2.394
    72   1 H        0.925     0.062     2.180     2.309
    73   1 H        0.925     0.062     2.174     2.306
    74   1 H        0.925     0.071     2.076     2.253
    75   1 H        0.927     0.052     2.292     2.368
    76   1 H        0.923     0.078     2.000     2.212
    77   1 H        0.804     0.342     0.608     1.225
    78   1 H        0.926     0.049     2.331     2.388
    79   1 H        0.926     0.036     2.504     2.475
    80   1 H        0.926     0.037     2.484     2.465
    81   1 H        0.926     0.043     2.414     2.430
    82   1 H        0.926     0.039     2.467     2.456
    83   1 H        0.925     0.056     2.242     2.341
    84   1 H        0.925     0.063     2.168     2.303
    85   1 H        0.925     0.069     2.091     2.261
    86   1 H        0.927     0.038     2.478     2.462

Wiberg/Mayer (AO) data.
largest (>0.10) Wiberg bond orders for each atom

     #   Z sym  total        # sym  WBO       # sym  WBO       # sym  WBO
 ---------------------------------------------------------------------------
     1   6 C    3.968 --     6 C    1.406    10 C    1.390     2 C    0.950
                             8 C    0.103
     2   6 C    3.821 --     4 F    0.953     1 C    0.950     3 F    0.947
                             5 F    0.932
     3   9 F    1.077 --     2 C    0.947
     4   9 F    1.076 --     2 C    0.953
     5   9 F    1.059 --     2 C    0.932
     6   6 C    3.987 --     7 C    1.448     1 C    1.406    57 H    0.965
                             9 C    0.110
     7   6 C    3.988 --     6 C    1.448     8 C    1.427    58 H    0.969
                            10 C    0.107
     8   6 C    3.989 --     9 C    1.453     7 C    1.427    59 H    0.968
                             1 C    0.103
     9   6 C    3.986 --     8 C    1.453    10 C    1.401    60 H    0.960
                             6 C    0.110
    10   6 C    3.986 --     9 C    1.401     1 C    1.390    11 C    0.992
                             7 C    0.107
    11   6 C    3.974 --    10 C    0.992    42 N    0.974    61 H    0.954
                            12 C    0.943
    12   6 C    3.972 --    13 C    0.992    23 N    0.972    11 C    0.943
                            62 H    0.942
    13   6 C    3.986 --    22 C    1.403    14 C    1.391    12 C    0.992
                            20 C    0.109
    14   6 C    3.971 --    19 C    1.409    13 C    1.391    15 C    0.950
                            21 C    0.104
    15   6 C    3.824 --    18 F    0.950    14 C    0.950    16 F    0.944
                            17 F    0.943
    16   9 F    1.073 --    15 C    0.944
    17   9 F    1.074 --    15 C    0.943
    18   9 F    1.073 --    15 C    0.950
    19   6 C    3.987 --    20 C    1.447    14 C    1.409    63 H    0.965
                            22 C    0.109
    20   6 C    3.988 --    19 C    1.447    21 C    1.428    64 H    0.968
                            13 C    0.109
    21   6 C    3.989 --    22 C    1.453    20 C    1.428    65 H    0.968
                            14 C    0.104
    22   6 C    3.989 --    21 C    1.453    13 C    1.403    66 H    0.965
                            19 C    0.109
    23   7 N    3.446 --    24 C    1.190    38 C    0.974    12 C    0.972
                            37 O    0.187
    24   6 C    3.945 --    37 O    1.698    23 N    1.190    25 C    0.971
    25   6 C    3.979 --    26 C    1.482    36 C    1.269    24 C    0.971
    26   6 C    3.908 --    25 C    1.482    33 O    1.096    27 C    1.087
                            34 C    0.120
    27   6 C    3.989 --    28 C    1.367    32 C    1.365    26 C    1.087
    28   6 C    3.989 --    29 C    1.459    27 C    1.367    67 H    0.969
                            31 C    0.105
    29   6 C    3.992 --    28 C    1.459    30 C    1.430    68 H    0.971
                            32 C    0.105
    30   6 C    3.977 --    31 C    1.430    29 C    1.430    69 H    0.971
    31   6 C    3.992 --    32 C    1.457    30 C    1.430    70 H    0.970
                            28 C    0.105
    32   6 C    3.989 --    31 C    1.457    27 C    1.365    71 H    0.961
                            29 C    0.105
    33   8 O    2.425 --    34 C    1.120    26 C    1.096
    34   6 C    3.904 --    36 C    1.563    33 O    1.120    35 C    1.030
                            26 C    0.120
    35   6 C    3.991 --    34 C    1.030    73 H    0.983    74 H    0.968
                            72 H    0.967
    36   6 C    3.977 --    34 C    1.563    25 C    1.269    75 H    0.973
    37   8 O    2.047 --    24 C    1.698    23 N    0.187
    38   6 C    3.954 --    42 N    0.976    23 N    0.974    76 H    0.940
                            39 C    0.910
    39   6 C    3.928 --    41 O    1.805    40 O    1.119    38 C    0.910
    40   8 O    2.187 --    39 C    1.119    77 H    0.859    41 O    0.170
    41   8 O    2.092 --    39 C    1.805    40 O    0.170
    42   7 N    3.449 --    43 C    1.191    38 C    0.976    11 C    0.974
                            56 O    0.183
    43   6 C    3.942 --    56 O    1.678    42 N    1.191    44 C    0.982
    44   6 C    3.975 --    45 C    1.476    55 C    1.262    43 C    0.982
    45   6 C    3.911 --    44 C    1.476    52 O    1.108    46 C    1.083
                            53 C    0.117
    46   6 C    3.987 --    51 C    1.372    47 C    1.369    45 C    1.083
    47   6 C    3.988 --    48 C    1.459    46 C    1.369    78 H    0.968
                            50 C    0.106
    48   6 C    3.992 --    47 C    1.459    49 C    1.430    79 H    0.970
                            51 C    0.106
    49   6 C    3.978 --    50 C    1.431    48 C    1.430    80 H    0.971
    50   6 C    3.992 --    51 C    1.457    49 C    1.431    81 H    0.970
                            47 C    0.106
    51   6 C    3.990 --    50 C    1.457    46 C    1.372    82 H    0.963
                            48 C    0.106
    52   8 O    2.435 --    53 C    1.118    45 C    1.108
    53   6 C    3.904 --    55 C    1.568    52 O    1.118    54 C    1.029
                            45 C    0.117
    54   6 C    3.992 --    53 C    1.029    83 H    0.984    84 H    0.970
                            85 H    0.967
    55   6 C    3.976 --    53 C    1.568    44 C    1.262    86 H    0.974
    56   8 O    2.046 --    43 C    1.678    42 N    0.183
    57   1 H    0.995 --     6 C    0.965
    58   1 H    0.996 --     7 C    0.969
    59   1 H    0.996 --     8 C    0.968
    60   1 H    0.994 --     9 C    0.960
    61   1 H    0.995 --    11 C    0.954
    62   1 H    0.996 --    12 C    0.942
    63   1 H    0.994 --    19 C    0.965
    64   1 H    0.995 --    20 C    0.968
    65   1 H    0.996 --    21 C    0.968
    66   1 H    0.997 --    22 C    0.965
    67   1 H    0.998 --    28 C    0.969
    68   1 H    0.998 --    29 C    0.971
    69   1 H    0.998 --    30 C    0.971
    70   1 H    0.998 --    31 C    0.970
    71   1 H    0.998 --    32 C    0.961
    72   1 H    0.995 --    35 C    0.967
    73   1 H    0.996 --    35 C    0.983
    74   1 H    0.994 --    35 C    0.968
    75   1 H    0.997 --    36 C    0.973
    76   1 H    0.993 --    38 C    0.940
    77   1 H    0.883 --    40 O    0.859
    78   1 H    0.998 --    47 C    0.968
    79   1 H    0.998 --    48 C    0.970
    80   1 H    0.998 --    49 C    0.971
    81   1 H    0.998 --    50 C    0.970
    82   1 H    0.998 --    51 C    0.963
    83   1 H    0.996 --    54 C    0.984
    84   1 H    0.995 --    54 C    0.970
    85   1 H    0.993 --    54 C    0.967
    86   1 H    0.998 --    55 C    0.974
 ---------------------------------------------------------------------------

molecular dipole:
                 x           y           z       tot (Debye)
 q only:       -1.234       3.501      -2.195
   full:       -1.248       3.705      -2.286      11.511

           -------------------------------------------------
          | TOTAL ENERGY             -163.975933852475 Eh   |
          | GRADIENT NORM               0.000382956404 Eh/Î± |
          | HOMO-LUMO GAP               2.518643697926 eV   |
           -------------------------------------------------

 * finished run on 2022/03/16 at 21:23:31.415
