   * xtb version 6.3.3 (4ae9cef) compiled by 'conda@95abc7406d43' on 2020-10-14
          program call               : xtb acid_290.xyz --opt --chrg 0 --uhf 0 --gfn 2
          number of atoms            :                    84
          number of electrons        :                   250
          charge                     :                     0
          spin                       :                   0.0

   ID    Z sym.   atoms
    1    6 C      1-22, 24-34, 36, 37, 41-51
    2    7 N      23, 40
    3    8 O      35, 38, 39, 52
    4    1 H      53-84

          :  Hamiltonian                  GFN2-xTB          :
 * total energy  :  -136.9599476 Eh     change       -0.3230014E-08 Eh
 * total energy  :  -136.9800561 Eh     change       -0.2010854E-01 Eh
 * total energy  :  -136.9860605 Eh     change       -0.6004427E-02 Eh
 * total energy  :  -136.9873974 Eh     change       -0.1336858E-02 Eh
 * total energy  :  -136.9883089 Eh     change       -0.9114873E-03 Eh
 * total energy  :  -136.9887532 Eh     change       -0.4442726E-03 Eh
 * total energy  :  -136.9891530 Eh     change       -0.3998031E-03 Eh
 * total energy  :  -136.9895092 Eh     change       -0.3562429E-03 Eh
 * total energy  :  -136.9898749 Eh     change       -0.3657247E-03 Eh
 * total energy  :  -136.9901934 Eh     change       -0.3184488E-03 Eh
 * total energy  :  -136.9958611 Eh     change       -0.1142985E-04 Eh
 * total energy  :  -136.9958746 Eh     change       -0.1351603E-04 Eh
 * total energy  :  -136.9958860 Eh     change       -0.1140419E-04 Eh
 * total energy  :  -136.9959032 Eh     change       -0.1721639E-04 Eh
 * total energy  :  -136.9959157 Eh     change       -0.1250539E-04 Eh
 * total energy  :  -136.9959268 Eh     change       -0.1106021E-04 Eh
 * total energy  :  -136.9959386 Eh     change       -0.1183530E-04 Eh
 * total energy  :  -136.9959494 Eh     change       -0.1074790E-04 Eh
 * total energy  :  -136.9959523 Eh     change       -0.2904901E-05 Eh
   *** GEOMETRY OPTIMIZATION CONVERGED AFTER 56 ITERATIONS ***

 final structure:
================
84
 xtb: 6.3.3 (4ae9cef)
C        -0.59478774104503   -3.47318487387356    4.23953062097539
C        -0.94413936705312   -4.45909201290527    3.36231433191941
C        -0.70260664456174   -4.28850233905848    1.99217849808803
C        -0.12602767191509   -3.14145558500532    1.52325772273726
C         0.23259722347135   -2.09155449716318    2.39721323220267
C        -0.00619465613591   -2.27327173819668    3.78779649564007
C         0.33493285135131   -1.25000692975543    4.69582384005447
C         0.87211732358842   -0.07787883781094    4.24873613976381
C         1.08493133557360    0.11790976674279    2.87854429172248
C         0.79593270419050   -0.86129578152213    1.96266960787938
C         0.97567864149232   -0.58259116937507    0.49135608542433
C        -0.33643162106444   -0.01659364871888   -0.10065118626065
C        -1.15563368622577   -1.03630527854523   -0.84897858771916
C        -0.70977537106700   -1.45697194994601   -2.07772787857812
C        -1.45430351141812   -2.34611494770821   -2.86091014613487
C        -2.66106545043778   -2.79898775601190   -2.41141636810315
C        -3.14605789875536   -2.41602903409877   -1.14427586511185
C        -2.37600683398595   -1.54384361967376   -0.32645123883467
C        -2.87096403515773   -1.23923508836186    0.96015947176678
C        -4.07068492297939   -1.72975681585372    1.39269107034224
C        -4.84638391742297   -2.55301248631437    0.56597593209604
C        -4.38605457359600   -2.89481943087377   -0.67245548671851
N         0.10650002937933    1.07823720295562   -0.95482106601378
C        -0.70788821193857    2.05294256815260   -1.44917983356821
C        -2.15370062394484    1.66254141630497   -1.40212953710428
C        -2.69873453309096    1.01628708404256   -2.52936171108119
C        -3.98262169140735    0.55523918649734   -2.50470119272909
C        -4.78663644783225    0.71659454132479   -1.35714784159571
C        -6.09878441349564    0.20698241324035   -1.28345645086675
C        -6.85274743462924    0.37997083127138   -0.15714766996291
C        -6.33169365832605    1.07706899854846    0.94388410557209
C        -5.06368690011411    1.58448332831668    0.90304486004710
C        -4.25644500141890    1.41252572767263   -0.24009235729481
C        -2.92736041271240    1.88128752248011   -0.29388037108686
O        -0.27842720982503    3.08484393644362   -1.91388441820771
C         1.54160334934835    1.23235547666293   -0.91752481434859
C         2.17893104269977    0.67442569026247   -2.21000290919502
O         1.76933848037108    1.33494228768813   -3.28216699635781
O         2.94770873663103   -0.24679866755424   -2.23600470979269
N         1.95512198169387    0.46696257843621    0.22806653409391
C         3.27150989124968    0.22885712391259    0.54544473114822
C         4.21657518210066    1.30332312412333    0.12923805900102
C         5.36088461781363    0.96301255553290   -0.54503309128741
C         6.28615176454420    1.94869976878633   -0.94144643093789
C         7.46085854084137    1.62863235592916   -1.65401416591761
C         8.34235502918399    2.60684386242628   -2.02001218826812
C         8.09017920878262    3.94848008664287   -1.69185637444772
C         6.96081611843805    4.29071738138980   -1.00191321667081
C         6.03179592085162    3.30566975255464   -0.60880244186447
C         4.86192171226047    3.62267273307554    0.11446554424501
C         3.97351518890699    2.65002143556674    0.47170375803562
O         3.60907897750680   -0.74825024624704    1.17452278722095
H        -0.76622613795124   -3.59353115690730    5.29990983501733
H        -1.39932095509233   -5.37283419713539    3.71480430671959
H        -0.97407983231875   -5.07439772750209    1.30278245464761
H         0.04969788230566   -3.04632347498005    0.46380216415158
H         0.15727085169377   -1.41052358118637    5.74950568073597
H         1.13142970329851    0.70923808533078    4.94113348163678
H         1.49487863831819    1.05896923473334    2.54352721241459
H         1.28809417466267   -1.49283483241771   -0.03478852337190
H        -0.92771394002449    0.41397513152339    0.71362496318158
H         0.23071446568931   -1.08533698109781   -2.45807826945437
H        -1.07163012204157   -2.65435143700922   -3.82240991416934
H        -3.25881433085648   -3.46654126941537   -3.01507148456686
H        -2.29283499310294   -0.62594574892809    1.63315388366682
H        -4.42754104131702   -1.48254927748094    2.38120155846392
H        -5.79814914095489   -2.92005101452730    0.91980965401364
H        -4.96310950456488   -3.54571387892644   -1.31374525837105
H        -2.08016591112481    0.88644868973272   -3.40464808211727
H        -4.39771583003381    0.04796315321185   -3.36341902618514
H        -6.49609512118228   -0.32411866776186   -2.13649811778938
H        -7.85713537893810   -0.01416080110388   -0.10686134739283
H        -6.94294422759990    1.20714970010777    1.82498673468340
H        -4.65720849981497    2.11828068327337    1.75026987586326
H        -2.52516245295374    2.40619593803866    0.56197121145127
H         1.79788613555757    2.30004038285992   -0.85986942182609
H         2.18151636648615    0.99154543078530   -4.09256481548349
H         5.54508864805695   -0.07253285148807   -0.78868816805443
H         7.64867006956197    0.59417399084497   -1.90237264284316
H         9.24099501632436    2.35580827625540   -2.56428417721183
H         8.79828090546929    4.70802994171497   -1.98934344810228
H         6.76298059253978    5.32207389082677   -0.74649565208424
H         4.68181947078151    4.65363106935350    0.38397985160274
H         3.09133308837408    2.90124029685359    1.04349830678134

          :  Hamiltonian                  GFN2-xTB          :
         :: total energy            -136.995952270118 Eh    ::
         :: gradient norm              0.000855860504 Eh/a0 ::
         :: HOMO-LUMO gap              2.779261598849 eV    ::
         :: SCC energy              -139.319886105239 Eh    ::
         :: -> dispersion             -0.137257178563 Eh    ::
         :: repulsion energy           2.318481675300 Eh    ::

    * Orbital Energies and Occupations

         #    Occupation            Energy/Eh            Energy/eV
      -------------------------------------------------------------
         1        2.0000           -0.7703397             -20.9620
       ...           ...                  ...                  ...
       113        2.0000           -0.4180466             -11.3756
       114        2.0000           -0.4135627             -11.2536
       115        2.0000           -0.4099136             -11.1543
       116        2.0000           -0.4056308             -11.0378
       117        2.0000           -0.4045932             -11.0095
       118        2.0000           -0.4016397             -10.9292
       119        2.0000           -0.3986402             -10.8476
       120        2.0000           -0.3951628             -10.7529
       121        2.0000           -0.3902627             -10.6196
       122        2.0000           -0.3891564             -10.5895
       123        2.0000           -0.3870662             -10.5326
       124        2.0000           -0.3827624             -10.4155
       125        2.0000           -0.3770407             -10.2598 (HOMO)
       126                         -0.2749047              -7.4805 (LUMO)
       127                         -0.2690752              -7.3219
       128                         -0.2661787              -7.2431
       129                         -0.2613919              -7.1128
       130                         -0.2607415              -7.0951
       131                         -0.2428550              -6.6084
       132                         -0.2403838              -6.5412
       133                         -0.2391232              -6.5069
       134                         -0.2296848              -6.2500
       135                         -0.2210977              -6.0164
       136                         -0.2078572              -5.6561
       ...                                ...                  ...
       240                          0.6959985              18.9391
      -------------------------------------------------------------
                  HL-Gap            0.1021360 Eh            2.7793 eV

     #   Z          covCN         q      C6AA      Î±(0)
     1   6 C        2.921    -0.034    28.848     8.808
     2   6 C        2.915    -0.029    28.729     8.789
     3   6 C        2.917    -0.029    28.713     8.787
     4   6 C        2.917    -0.033    28.831     8.805
     5   6 C        2.984     0.010    27.778     8.645
     6   6 C        2.988     0.016    27.650     8.626
     7   6 C        2.920    -0.036    28.894     8.815
     8   6 C        2.914    -0.029    28.720     8.788
     9   6 C        2.922    -0.030    28.741     8.791
    10   6 C        2.969     0.006    27.885     8.662
    11   6 C        3.834     0.052    19.679     6.312
    12   6 C        3.823     0.039    19.895     6.347
    13   6 C        2.967    -0.007    28.184     8.708
    14   6 C        2.923    -0.032    28.805     8.801
    15   6 C        2.913    -0.030    28.747     8.792
    16   6 C        2.921    -0.035    28.870     8.811
    17   6 C        2.989     0.016    27.657     8.627
    18   6 C        2.984     0.009    27.820     8.652
    19   6 C        2.917    -0.033    28.827     8.804
    20   6 C        2.917    -0.027    28.667     8.780
    21   6 C        2.915    -0.027    28.687     8.783
    22   6 C        2.921    -0.034    28.835     8.806
    23   7 N        2.765    -0.122    23.657     7.224
    24   6 C        2.762     0.273    22.382     7.748
    25   6 C        2.976    -0.014    28.358     8.735
    26   6 C        2.920    -0.025    28.630     8.774
    27   6 C        2.918    -0.032    28.799     8.800
    28   6 C        2.988     0.014    27.682     8.631
    29   6 C        2.919    -0.033    28.824     8.804
    30   6 C        2.916    -0.029    28.716     8.787
    31   6 C        2.916    -0.028    28.709     8.786
    32   6 C        2.919    -0.034    28.839     8.806
    33   6 C        2.988     0.015    27.665     8.628
    34   6 C        2.921    -0.033    28.832     8.805
    35   8 O        0.858    -0.414    21.955     6.282
    36   6 C        3.769     0.095    19.040     6.218
    37   6 C        2.688     0.351    21.043     7.507
    38   8 O        1.659    -0.350    19.899     6.022
    39   8 O        0.856    -0.392    21.524     6.220
    40   7 N        2.762    -0.133    23.889     7.259
    41   6 C        2.768     0.280    22.265     7.728
    42   6 C        2.972    -0.022    28.541     8.763
    43   6 C        2.924    -0.024    28.609     8.771
    44   6 C        2.987     0.015    27.661     8.627
    45   6 C        2.918    -0.032    28.808     8.802
    46   6 C        2.916    -0.029    28.714     8.787
    47   6 C        2.916    -0.028    28.706     8.786
    48   6 C        2.918    -0.034    28.847     8.807
    49   6 C        2.987     0.014    27.681     8.630
    50   6 C        2.917    -0.034    28.852     8.808
    51   6 C        2.917    -0.035    28.867     8.810
    52   8 O        0.859    -0.406    21.805     6.261
    53   1 H        0.926     0.035     2.519     2.482
    54   1 H        0.926     0.033     2.548     2.496
    55   1 H        0.926     0.031     2.578     2.511
    56   1 H        0.926     0.027     2.628     2.535
    57   1 H        0.926     0.036     2.501     2.473
    58   1 H        0.926     0.036     2.506     2.475
    59   1 H        0.926     0.033     2.546     2.495
    60   1 H        0.924     0.059     2.217     2.328
    61   1 H        0.924     0.049     2.334     2.389
    62   1 H        0.926     0.029     2.602     2.522
    63   1 H        0.926     0.038     2.474     2.460
    64   1 H        0.926     0.039     2.464     2.455
    65   1 H        0.926     0.027     2.629     2.535
    66   1 H        0.926     0.034     2.525     2.485
    67   1 H        0.926     0.036     2.503     2.474
    68   1 H        0.926     0.037     2.484     2.464
    69   1 H        0.926     0.036     2.502     2.473
    70   1 H        0.926     0.038     2.474     2.460
    71   1 H        0.926     0.034     2.529     2.487
    72   1 H        0.926     0.034     2.525     2.485
    73   1 H        0.926     0.035     2.519     2.482
    74   1 H        0.926     0.035     2.522     2.483
    75   1 H        0.925     0.034     2.531     2.488
    76   1 H        0.923     0.090     1.879     2.144
    77   1 H        0.804     0.342     0.607     1.224
    78   1 H        0.926     0.057     2.240     2.340
    79   1 H        0.926     0.039     2.468     2.457
    80   1 H        0.926     0.034     2.534     2.490
    81   1 H        0.926     0.033     2.540     2.492
    82   1 H        0.926     0.034     2.523     2.484
    83   1 H        0.926     0.039     2.461     2.453
    84   1 H        0.926     0.030     2.587     2.515

Wiberg/Mayer (AO) data.
largest (>0.10) Wiberg bond orders for each atom

     #   Z sym  total        # sym  WBO       # sym  WBO       # sym  WBO
 ---------------------------------------------------------------------------
     1   6 C    3.991 --     2 C    1.557     6 C    1.280    53 H    0.968
                             4 C    0.118
     2   6 C    3.992 --     1 C    1.557     3 C    1.322    54 H    0.971
     3   6 C    3.992 --     4 C    1.554     2 C    1.322    55 H    0.971
     4   6 C    3.992 --     3 C    1.554     5 C    1.283    56 H    0.962
                             1 C    0.118
     5   6 C    3.989 --     4 C    1.283     6 C    1.253    10 C    1.252
     6   6 C    3.990 --     1 C    1.280     7 C    1.279     5 C    1.253
     7   6 C    3.990 --     8 C    1.554     6 C    1.279    57 H    0.968
                            10 C    0.115
     8   6 C    3.992 --     7 C    1.554     9 C    1.326    58 H    0.970
     9   6 C    3.990 --    10 C    1.525     8 C    1.326    59 H    0.967
    10   6 C    3.984 --     9 C    1.525     5 C    1.252    11 C    0.992
                             7 C    0.115
    11   6 C    3.965 --    10 C    0.992    40 N    0.961    12 C    0.948
                            60 H    0.948
    12   6 C    3.964 --    13 C    0.991    23 N    0.958    11 C    0.948
                            61 H    0.948
    13   6 C    3.985 --    14 C    1.518    18 C    1.252    12 C    0.991
                            16 C    0.114
    14   6 C    3.990 --    13 C    1.518    15 C    1.329    62 H    0.966
    15   6 C    3.991 --    16 C    1.550    14 C    1.329    63 H    0.970
    16   6 C    3.989 --    15 C    1.550    17 C    1.280    64 H    0.968
                            13 C    0.114
    17   6 C    3.990 --    16 C    1.280    22 C    1.279    18 C    1.252
    18   6 C    3.989 --    19 C    1.283    17 C    1.252    13 C    1.252
    19   6 C    3.992 --    20 C    1.554    18 C    1.283    65 H    0.961
                            22 C    0.118
    20   6 C    3.991 --    19 C    1.554    21 C    1.322    66 H    0.971
    21   6 C    3.992 --    22 C    1.557    20 C    1.322    67 H    0.970
    22   6 C    3.991 --    21 C    1.557    17 C    1.279    68 H    0.968
                            19 C    0.118
    23   7 N    3.450 --    24 C    1.197    36 C    0.979    12 C    0.958
                            35 O    0.189
    24   6 C    3.943 --    35 O    1.709    23 N    1.197    25 C    0.953
    25   6 C    3.987 --    34 C    1.527    26 C    1.284    24 C    0.953
    26   6 C    3.991 --    27 C    1.562    25 C    1.284    69 H    0.969
    27   6 C    3.991 --    26 C    1.562    28 C    1.276    70 H    0.967
                            34 C    0.114
    28   6 C    3.990 --    29 C    1.282    27 C    1.276    33 C    1.251
    29   6 C    3.992 --    30 C    1.556    28 C    1.282    71 H    0.968
                            32 C    0.118
    30   6 C    3.990 --    29 C    1.556    31 C    1.321    72 H    0.971
    31   6 C    3.992 --    32 C    1.556    30 C    1.321    73 H    0.971
    32   6 C    3.990 --    31 C    1.556    33 C    1.280    74 H    0.968
                            29 C    0.118
    33   6 C    3.990 --    32 C    1.280    34 C    1.277    28 C    1.251
    34   6 C    3.990 --    25 C    1.527    33 C    1.277    75 H    0.967
                            27 C    0.114
    35   8 O    2.029 --    24 C    1.709    23 N    0.189
    36   6 C    3.969 --    40 N    0.996    23 N    0.979    76 H    0.929
                            37 C    0.907
    37   6 C    3.916 --    39 O    1.771    38 O    1.168    36 C    0.907
    38   8 O    2.235 --    37 C    1.168    77 H    0.856    39 O    0.184
    39   8 O    2.060 --    37 C    1.771    38 O    0.184
    40   7 N    3.405 --    41 C    1.157    36 C    0.996    11 C    0.961
                            52 O    0.173
    41   6 C    3.941 --    52 O    1.720    40 N    1.157    42 C    0.976
    42   6 C    3.987 --    43 C    1.515    51 C    1.281    41 C    0.976
    43   6 C    3.988 --    42 C    1.515    44 C    1.283    78 H    0.965
                            50 C    0.113
    44   6 C    3.990 --    43 C    1.283    45 C    1.278    49 C    1.251
    45   6 C    3.988 --    46 C    1.558    44 C    1.278    79 H    0.968
                            48 C    0.118
    46   6 C    3.992 --    45 C    1.558    47 C    1.321    80 H    0.971
    47   6 C    3.989 --    48 C    1.555    46 C    1.321    81 H    0.971
    48   6 C    3.991 --    47 C    1.555    49 C    1.283    82 H    0.968
                            45 C    0.118
    49   6 C    3.990 --    48 C    1.283    50 C    1.274    44 C    1.251
    50   6 C    3.991 --    51 C    1.566    49 C    1.274    83 H    0.967
                            43 C    0.113
    51   6 C    3.991 --    50 C    1.566    42 C    1.281    84 H    0.968
    52   8 O    2.031 --    41 C    1.720    40 N    0.173
    53   1 H    0.998 --     1 C    0.968
    54   1 H    0.998 --     2 C    0.971
    55   1 H    0.999 --     3 C    0.971
    56   1 H    0.999 --     4 C    0.962
    57   1 H    0.998 --     7 C    0.968
    58   1 H    0.998 --     8 C    0.970
    59   1 H    0.998 --     9 C    0.967
    60   1 H    0.996 --    11 C    0.948
    61   1 H    0.997 --    12 C    0.948
    62   1 H    0.999 --    14 C    0.966
    63   1 H    0.997 --    15 C    0.970
    64   1 H    0.997 --    16 C    0.968
    65   1 H    0.999 --    19 C    0.961
    66   1 H    0.998 --    20 C    0.971
    67   1 H    0.998 --    21 C    0.970
    68   1 H    0.998 --    22 C    0.968
    69   1 H    0.998 --    26 C    0.969
    70   1 H    0.997 --    27 C    0.967
    71   1 H    0.998 --    29 C    0.968
    72   1 H    0.998 --    30 C    0.971
    73   1 H    0.998 --    31 C    0.971
    74   1 H    0.998 --    32 C    0.968
    75   1 H    0.998 --    34 C    0.967
    76   1 H    0.991 --    36 C    0.929
    77   1 H    0.882 --    38 O    0.856
    78   1 H    0.996 --    43 C    0.965
    79   1 H    0.998 --    45 C    0.968
    80   1 H    0.998 --    46 C    0.971
    81   1 H    0.998 --    47 C    0.971
    82   1 H    0.998 --    48 C    0.968
    83   1 H    0.997 --    50 C    0.967
    84   1 H    0.999 --    51 C    0.968
 ---------------------------------------------------------------------------

molecular dipole:
                 x           y           z       tot (Debye)
 q only:       -1.558      -0.335      -0.199
   full:       -1.500      -0.251      -0.474       4.048

           -------------------------------------------------
          | TOTAL ENERGY             -136.995952270118 Eh   |
          | GRADIENT NORM               0.000855860504 Eh/Î± |
          | HOMO-LUMO GAP               2.779261598849 eV   |
           -------------------------------------------------

 * finished run on 2022/03/16 at 23:26:30.071
