   * xtb version 6.3.3 (4ae9cef) compiled by 'conda@95abc7406d43' on 2020-10-14
          program call               : xtb acid_22.xyz --opt --chrg 0 --uhf 0 --gfn 2
          number of atoms            :                    60
          number of electrons        :                   190
          charge                     :                     0
          spin                       :                   0.0

   ID    Z sym.   atoms
    1    8 O      1, 13, 14, 24
    2    6 C      2-6, 8, 9, 11, 12, 16-20, 22, 23, 25-38
    3   35 Br     7, 21
    4    7 N      10, 15
    5    1 H      39-60

          :  Hamiltonian                  GFN2-xTB          :
 * total energy  :  -105.7283910 Eh     change       -0.1837591E-08 Eh
 * total energy  :  -105.7461409 Eh     change       -0.1774991E-01 Eh
 * total energy  :  -105.7521954 Eh     change       -0.6054496E-02 Eh
 * total energy  :  -105.7543237 Eh     change       -0.2128333E-02 Eh
 * total energy  :  -105.7554785 Eh     change       -0.1154738E-02 Eh
 * total energy  :  -105.7562371 Eh     change       -0.7586613E-03 Eh
 * total energy  :  -105.7567437 Eh     change       -0.5065979E-03 Eh
 * total energy  :  -105.7572216 Eh     change       -0.4778512E-03 Eh
 * total energy  :  -105.7577939 Eh     change       -0.5723192E-03 Eh
 * total energy  :  -105.7585497 Eh     change       -0.7557505E-03 Eh
 * total energy  :  -105.7811232 Eh     change       -0.2090320E-04 Eh
 * total energy  :  -105.7811385 Eh     change       -0.1528637E-04 Eh
 * total energy  :  -105.7811565 Eh     change       -0.1799798E-04 Eh
 * total energy  :  -105.7811536 Eh     change        0.2944591E-05 Eh
 * total energy  :  -105.7811663 Eh     change       -0.1277501E-04 Eh
 * total energy  :  -105.7811824 Eh     change       -0.1606413E-04 Eh
 * total energy  :  -105.7811933 Eh     change       -0.1087001E-04 Eh
 * total energy  :  -105.7812042 Eh     change       -0.1091702E-04 Eh
 * total energy  :  -105.7812086 Eh     change       -0.4420179E-05 Eh
   *** GEOMETRY OPTIMIZATION CONVERGED AFTER 94 ITERATIONS ***

 final structure:
================
60
 xtb: 6.3.3 (4ae9cef)
O        -1.35878861955667   -2.60811742972638   -0.92228587794793
C        -1.60637758951302   -1.43768051702156   -0.68563089860997
C        -2.97335081476276   -0.93434689335440   -0.37894413424331
C        -3.58149967474296    0.04890641744555   -1.14951967749826
C        -4.83571844369367    0.51942534141440   -0.80859436553057
C        -5.46877891059670    0.00274326269454    0.30946322025338
Br       -7.16006263014811    0.69901383388307    0.82205193752013
C        -4.89421639093601   -1.00671563072480    1.06305342029393
C        -3.64842823873519   -1.48387465708855    0.70510096796503
N        -0.61814661786804   -0.51615754344539   -0.68709266638218
C         0.74514564904031   -0.98630001096988   -0.87552358390451
C         0.87362915732102   -2.39700782899935   -0.25605959055234
O         1.28633515540828   -3.29141305156912   -1.14349618533758
O         0.72390993828614   -2.60902213094316    0.91660646066039
N         1.54317374050582    0.00321512854896   -0.20180257329464
C         2.72303756859772   -0.17887505275866    0.45583019202591
C         3.44901047893062   -1.44688864434652    0.15408330833116
C         3.81317652760485   -1.77430669190141   -1.14721039182691
C         4.53896394126038   -2.92331594960940   -1.40075841744262
C         4.89083841671823   -3.74425618057263   -0.34267813837162
Br        5.85966340543801   -5.34479875439516   -0.69148060144694
C         4.55479568810926   -3.42413238871805    0.96257743544655
C         3.84513128159701   -2.26408632193508    1.20755734883815
O         3.17019063743833    0.66515905259765    1.20226239985196
C         0.80074951767220    1.23433548311167    0.00427820991480
C         1.17221567215509    2.32348048825088   -0.97637479768926
C         1.97079090830415    2.08741884909929   -2.08406376519504
C         2.26231178804387    3.11275287244452   -2.96809688376918
C         1.75237123651323    4.38074943662091   -2.75611500896897
C         0.95393621894680    4.62363995005702   -1.65043142849489
C         0.66743512173173    3.60173253794481   -0.76491981266417
C        -0.68554870905505    0.83075697099888   -0.14106894779000
C        -1.42531629917042    0.87695481126636    1.17286081113887
C        -1.12077865395777   -0.03042784819917    2.18066549180442
C        -1.81633774775294    0.00502019696555    3.37561319573201
C        -2.81259777067726    0.94586592495150    3.57637443908036
C        -3.10649147506931    1.86190257127401    2.58114913547967
C        -2.41312234022233    1.82897597904057    1.38451235802410
H        -3.08112445462950    0.44262814759464   -2.02156001574087
H        -5.31488422063214    1.28538856414729   -1.39878151936208
H        -5.41263933244782   -1.41096437031136    1.91838220117883
H        -3.18006773880018   -2.26968602075411    1.27672285710910
H         0.97202292407356   -1.05870115689196   -1.95296030639289
H         1.27096839196121   -4.18282028004051   -0.76034671527637
H         3.54454194925763   -1.12736748328395   -1.96844091634654
H         4.82476965563695   -3.18115751721697   -2.40857946512559
H         4.84839026918861   -4.07071374578237    1.77496543939462
H         3.57948661912950   -1.99092058237287    2.21660946979252
H         1.01419496688670    1.59034206383593    1.01989896215700
H         2.37980780963985    1.10313191842779   -2.25459279668402
H         2.89011575995677    2.91782660820983   -3.82477019251986
H         1.97919752985080    5.17879238306237   -3.44676567285149
H         0.55816014077292    5.61281771377141   -1.47538484334804
H         0.05227023257569    3.79100476786156    0.10319733224322
H        -1.17577605372066    1.49742273425277   -0.86186165376871
H        -0.35629038638777   -0.77771217635872    2.02497342938167
H        -1.57991476864174   -0.70739153100412    4.15132834538113
H        -3.35854381057319    0.96688364820134    4.50747954928283
H        -3.87964811797680    2.60001805369823    2.73347998126912
H        -2.64628448829485    2.54085267861260    0.60511494481804

          :  Hamiltonian                  GFN2-xTB          :
         :: total energy            -105.781208608252 Eh    ::
         :: gradient norm              0.000485292630 Eh/a0 ::
         :: HOMO-LUMO gap              3.479854973484 eV    ::
         :: SCC energy              -107.318958733493 Eh    ::
         :: -> dispersion             -0.093551561803 Eh    ::
         :: repulsion energy           1.535602164042 Eh    ::

    * Orbital Energies and Occupations

         #    Occupation            Energy/Eh            Energy/eV
      -------------------------------------------------------------
         1        2.0000           -0.8486732             -23.0936
       ...           ...                  ...                  ...
        83        2.0000           -0.4386000             -11.9349
        84        2.0000           -0.4289252             -11.6716
        85        2.0000           -0.4261758             -11.5968
        86        2.0000           -0.4244656             -11.5503
        87        2.0000           -0.4239904             -11.5374
        88        2.0000           -0.4234793             -11.5235
        89        2.0000           -0.4229308             -11.5085
        90        2.0000           -0.4185099             -11.3882
        91        2.0000           -0.4161181             -11.3231
        92        2.0000           -0.4138834             -11.2623
        93        2.0000           -0.4123120             -11.2196
        94        2.0000           -0.4094739             -11.1424
        95        2.0000           -0.4079542             -11.1010 (HOMO)
        96                         -0.2800719              -7.6211 (LUMO)
        97                         -0.2745937              -7.4721
        98                         -0.2638752              -7.1804
        99                         -0.2586339              -7.0378
       100                         -0.2549322              -6.9371
       101                         -0.2486605              -6.7664
       102                         -0.2425397              -6.5998
       103                         -0.2422913              -6.5931
       104                         -0.2410049              -6.5581
       105                         -0.2295418              -6.2462
       106                         -0.2185162              -5.9461
       ...                                ...                  ...
       184                          0.6474441              17.6179
      -------------------------------------------------------------
                  HL-Gap            0.1278823 Eh            3.4799 eV

     #   Z          covCN         q      C6AA      Î±(0)
     1   8 O        0.862    -0.422    22.127     6.307
     2   6 C        2.772     0.275    22.344     7.742
     3   6 C        2.976    -0.009    28.246     8.718
     4   6 C        2.924    -0.027    28.668     8.781
     5   6 C        2.995    -0.033    28.799     8.803
     6   6 C        2.919     0.086    26.079     8.374
     7  35 Br       1.075    -0.150   189.191    22.178
     8   6 C        2.994    -0.031    28.759     8.797
     9   6 C        2.928    -0.017    28.434     8.745
    10   7 N        2.766    -0.111    23.425     7.188
    11   6 C        3.762     0.097    19.021     6.217
    12   6 C        2.690     0.373    20.687     7.444
    13   8 O        1.659    -0.361    20.103     6.053
    14   8 O        0.856    -0.406    21.807     6.261
    15   7 N        2.760    -0.114    23.493     7.199
    16   6 C        2.765     0.273    22.377     7.747
    17   6 C        2.974    -0.018    28.453     8.750
    18   6 C        2.925    -0.026    28.644     8.777
    19   6 C        2.993    -0.032    28.792     8.802
    20   6 C        2.918     0.085    26.111     8.379
    21  35 Br       1.070    -0.157   189.374    22.188
    22   6 C        2.991    -0.032    28.788     8.801
    23   6 C        2.927    -0.015    28.375     8.736
    24   8 O        0.859    -0.412    21.923     6.278
    25   6 C        3.830     0.042    19.851     6.339
    26   6 C        2.972     0.003    27.951     8.672
    27   6 C        2.923    -0.030    28.753     8.793
    28   6 C        2.920    -0.026    28.661     8.779
    29   6 C        2.920    -0.029    28.713     8.787
    30   6 C        2.920    -0.026    28.647     8.777
    31   6 C        2.926    -0.036    28.899     8.816
    32   6 C        3.813     0.038    19.932     6.355
    33   6 C        2.973    -0.006    28.175     8.707
    34   6 C        2.922    -0.035    28.876     8.812
    35   6 C        2.920    -0.026    28.642     8.776
    36   6 C        2.920    -0.028    28.712     8.787
    37   6 C        2.919    -0.028    28.700     8.785
    38   6 C        2.923    -0.038    28.943     8.823
    39   1 H        0.926     0.046     2.364     2.405
    40   1 H        0.926     0.062     2.170     2.304
    41   1 H        0.926     0.064     2.151     2.293
    42   1 H        0.926     0.063     2.166     2.302
    43   1 H        0.923     0.062     2.173     2.306
    44   1 H        0.804     0.349     0.591     1.208
    45   1 H        0.926     0.042     2.426     2.436
    46   1 H        0.926     0.062     2.173     2.305
    47   1 H        0.926     0.064     2.153     2.294
    48   1 H        0.926     0.066     2.128     2.281
    49   1 H        0.924     0.084     1.938     2.177
    50   1 H        0.926     0.028     2.617     2.530
    51   1 H        0.926     0.039     2.462     2.454
    52   1 H        0.926     0.040     2.450     2.448
    53   1 H        0.926     0.040     2.444     2.445
    54   1 H        0.926     0.034     2.532     2.488
    55   1 H        0.924     0.050     2.315     2.380
    56   1 H        0.926     0.056     2.244     2.343
    57   1 H        0.926     0.045     2.387     2.416
    58   1 H        0.926     0.042     2.423     2.434
    59   1 H        0.926     0.042     2.427     2.436
    60   1 H        0.926     0.028     2.619     2.530

Wiberg/Mayer (AO) data.
largest (>0.10) Wiberg bond orders for each atom

     #   Z sym  total        # sym  WBO       # sym  WBO       # sym  WBO
 ---------------------------------------------------------------------------
     1   8 O    2.054 --     2 C    1.645    10 N    0.188
     2   6 C    3.944 --     1 O    1.645    10 N    1.236     3 C    0.973
     3   6 C    3.988 --     4 C    1.399     9 C    1.396     2 C    0.973
     4   6 C    3.991 --     5 C    1.446     3 C    1.399    39 H    0.967
                             8 C    0.107
     5   6 C    3.989 --     4 C    1.446     6 C    1.406    40 H    0.967
                             9 C    0.108
     6   6 C    3.943 --     8 C    1.407     5 C    1.406     7 Br   0.990
     7  35 Br   1.125 --     6 C    0.990
     8   6 C    3.989 --     9 C    1.446     6 C    1.407    41 H    0.966
                             4 C    0.107
     9   6 C    3.988 --     8 C    1.446     3 C    1.396    42 H    0.966
                             5 C    0.108
    10   7 N    3.472 --     2 C    1.236    11 C    0.968    32 C    0.959
                             1 O    0.188
    11   6 C    3.965 --    15 N    0.991    10 N    0.968    43 H    0.943
                            12 C    0.910
    12   6 C    3.924 --    14 O    1.744    13 O    1.155    11 C    0.910
    13   8 O    2.213 --    12 C    1.155    44 H    0.853    14 O    0.169
    14   8 O    2.045 --    12 C    1.744    13 O    0.169
    15   7 N    3.459 --    16 C    1.195    11 C    0.991    25 C    0.967
                            24 O    0.189
    16   6 C    3.947 --    24 O    1.697    15 N    1.195    17 C    0.971
    17   6 C    3.988 --    18 C    1.398    23 C    1.396    16 C    0.971
    18   6 C    3.991 --    19 C    1.444    17 C    1.398    45 H    0.966
                            22 C    0.107
    19   6 C    3.989 --    18 C    1.444    20 C    1.408    46 H    0.967
                            23 C    0.108
    20   6 C    3.941 --    19 C    1.408    22 C    1.406    21 Br   0.987
    21  35 Br   1.122 --    20 C    0.987
    22   6 C    3.989 --    23 C    1.447    20 C    1.406    47 H    0.966
                            18 C    0.107
    23   6 C    3.988 --    22 C    1.447    17 C    1.396    48 H    0.965
                            19 C    0.108
    24   8 O    2.028 --    16 C    1.697    15 N    0.189
    25   6 C    3.961 --    26 C    0.984    15 N    0.967    32 C    0.951
                            49 H    0.945
    26   6 C    3.985 --    27 C    1.424    31 C    1.403    25 C    0.984
                            29 C    0.110
    27   6 C    3.991 --    28 C    1.436    26 C    1.424    50 H    0.966
                            30 C    0.110
    28   6 C    3.992 --    29 C    1.446    27 C    1.436    51 H    0.971
                            31 C    0.113
    29   6 C    3.991 --    28 C    1.446    30 C    1.432    52 H    0.971
                            26 C    0.110
    30   6 C    3.991 --    31 C    1.453    29 C    1.432    53 H    0.970
                            27 C    0.110
    31   6 C    3.991 --    30 C    1.453    26 C    1.403    54 H    0.969
                            28 C    0.113
    32   6 C    3.962 --    33 C    0.987    10 N    0.959    55 H    0.954
                            25 C    0.951
    33   6 C    3.985 --    38 C    1.413    34 C    1.409    32 C    0.987
                            36 C    0.109
    34   6 C    3.989 --    35 C    1.447    33 C    1.409    56 H    0.963
                            37 C    0.112
    35   6 C    3.992 --    34 C    1.447    36 C    1.437    57 H    0.970
                            38 C    0.110
    36   6 C    3.990 --    37 C    1.440    35 C    1.437    58 H    0.971
                            33 C    0.109
    37   6 C    3.991 --    38 C    1.443    36 C    1.440    59 H    0.970
                            34 C    0.112
    38   6 C    3.990 --    37 C    1.443    33 C    1.413    60 H    0.968
                            35 C    0.110
    39   1 H    0.998 --     4 C    0.967
    40   1 H    0.995 --     5 C    0.967
    41   1 H    0.995 --     8 C    0.966
    42   1 H    0.996 --     9 C    0.966
    43   1 H    0.995 --    11 C    0.943
    44   1 H    0.877 --    13 O    0.853
    45   1 H    0.998 --    18 C    0.966
    46   1 H    0.995 --    19 C    0.967
    47   1 H    0.995 --    22 C    0.966
    48   1 H    0.996 --    23 C    0.965
    49   1 H    0.993 --    25 C    0.945
    50   1 H    0.999 --    27 C    0.966
    51   1 H    0.998 --    28 C    0.971
    52   1 H    0.998 --    29 C    0.971
    53   1 H    0.998 --    30 C    0.970
    54   1 H    0.999 --    31 C    0.969
    55   1 H    0.997 --    32 C    0.954
    56   1 H    0.997 --    34 C    0.963
    57   1 H    0.998 --    35 C    0.970
    58   1 H    0.998 --    36 C    0.971
    59   1 H    0.998 --    37 C    0.970
    60   1 H    0.999 --    38 C    0.968
 ---------------------------------------------------------------------------

molecular dipole:
                 x           y           z       tot (Debye)
 q only:       -0.656       1.228      -0.728
   full:       -0.490       1.256      -0.922       4.151

           -------------------------------------------------
          | TOTAL ENERGY             -105.781208608252 Eh   |
          | GRADIENT NORM               0.000485292630 Eh/Î± |
          | HOMO-LUMO GAP               3.479854973484 eV   |
           -------------------------------------------------

 * finished run on 2022/03/16 at 22:39:50.119
