   * xtb version 6.3.3 (4ae9cef) compiled by 'conda@95abc7406d43' on 2020-10-14
          program call               : xtb acid_113.xyz --opt --chrg 0 --uhf 0 --gfn 2
          number of atoms            :                    66
          number of electrons        :                   206
          charge                     :                     0
          spin                       :                   0.0

   ID    Z sym.   atoms
    1    6 C      1-22, 24-28, 31, 32, 36-40
    2    7 N      23, 35
    3   16 S      29, 41
    4    8 O      30, 33, 34, 42
    5    1 H      43-66

          :  Hamiltonian                  GFN2-xTB          :
 * total energy  :  -113.6526431 Eh     change       -0.3540265E-08 Eh
 * total energy  :  -113.6679000 Eh     change       -0.1525689E-01 Eh
 * total energy  :  -113.6724471 Eh     change       -0.4547079E-02 Eh
 * total energy  :  -113.6735291 Eh     change       -0.1082052E-02 Eh
 * total energy  :  -113.6741390 Eh     change       -0.6098526E-03 Eh
 * total energy  :  -113.6744538 Eh     change       -0.3148202E-03 Eh
 * total energy  :  -113.6747850 Eh     change       -0.3312503E-03 Eh
 * total energy  :  -113.6750814 Eh     change       -0.2963754E-03 Eh
 * total energy  :  -113.6753506 Eh     change       -0.2692032E-03 Eh
 * total energy  :  -113.6755413 Eh     change       -0.1906805E-03 Eh
 * total energy  :  -113.6770071 Eh     change       -0.2287274E-04 Eh
 * total energy  :  -113.6770143 Eh     change       -0.7123136E-05 Eh
 * total energy  :  -113.6770238 Eh     change       -0.9534029E-05 Eh
 * total energy  :  -113.6770286 Eh     change       -0.4829808E-05 Eh
 * total energy  :  -113.6770362 Eh     change       -0.7558483E-05 Eh
 * total energy  :  -113.6770436 Eh     change       -0.7381938E-05 Eh
 * total energy  :  -113.6770517 Eh     change       -0.8123929E-05 Eh
 * total energy  :  -113.6770575 Eh     change       -0.5796629E-05 Eh
 * total energy  :  -113.6770623 Eh     change       -0.4777724E-05 Eh
   *** GEOMETRY OPTIMIZATION CONVERGED AFTER 45 ITERATIONS ***

 final structure:
================
66
 xtb: 6.3.3 (4ae9cef)
C         1.79454514799220   -0.80462877900613    2.00234750620661
C         2.60952127615396   -1.71949627859857    2.60335936547702
C         3.23271059296019   -2.73774955441881    1.85174915105247
C         4.07697651396121   -3.70046880356428    2.44212795308637
C         4.66185592562206   -4.67524237834649    1.68312006954592
C         4.42803411197674   -4.73276934678261    0.30006446922160
C         3.61507186135016   -3.81376299630301   -0.30173992766594
C         2.99912389804839   -2.79359017215082    0.45292031298701
C         2.16174393947024   -1.82785902347613   -0.13993189802198
C         1.57196002693625   -0.84841652844387    0.61266157483292
C         0.63334502931665    0.13755551919101   -0.02391297896817
C        -0.84042914744631   -0.23646131498094    0.24158193673523
C        -1.45520291734129   -0.90712354097015   -0.95825995222126
C        -1.34756424461491   -2.26641675911764   -1.09317367498244
C        -1.85494951879974   -2.92776246852273   -2.22820758369486
C        -1.74999916755026   -4.32536814761711   -2.38931324966721
C        -2.25836988268466   -4.93906561592067   -3.49921753238213
C        -2.89403814331203   -4.18542392490877   -4.49897592935419
C        -3.00915280773236   -2.82958939632890   -4.37327613880598
C        -2.49457490061153   -2.16571158484683   -3.24045141869866
C        -2.59335259866093   -0.76913445282161   -3.07551378997041
C        -2.08093363720222   -0.15535446920338   -1.96862071182159
N        -1.46332125126418    1.02646550507189    0.61137076155118
C        -2.75138970061904    1.04160478233228    1.05076946170904
C        -3.26922426780393    2.34511034581557    1.52612828056186
C        -2.84001122062847    3.12801504259307    2.55909203855334
C        -3.66298146939139    4.25427022625179    2.76993525324581
C        -4.70314239956542    4.30583839461034    1.89845566453122
S        -4.71348336654187    2.97292586216891    0.81712984462891
O        -3.42981201229774    0.03620533140048    1.04350022046337
C        -0.52801666027392    2.11720377099214    0.54067007514064
C        -0.70523614371906    2.97005617333284   -0.74021197598575
O        -1.96068152232996    3.37883389907235   -0.88792845991645
O         0.18900104816176    3.25161326840036   -1.48480219473186
N         0.76048865485472    1.47807403096446    0.54169688301843
C         1.97030686583709    2.10821162992635    0.39660808435665
C         2.10750643759230    3.49843783111039    0.85970418191642
C         3.10458548402725    4.32671201146105    0.42388909154311
C         3.09923798132553    5.58935885054339    1.04761221639742
C         2.11228256805710    5.70784620092782    1.97190882276430
S         1.15817958551118    4.28453215767080    2.08292210900902
O         2.93253695977084    1.51590692532030   -0.04765873273908
H         1.31962590028069   -0.02807489599161    2.58482769244608
H         2.78754164507237   -1.67746647285167    3.66855402208197
H         4.25403158418153   -3.65266998106306    3.50730835688618
H         5.30897906726967   -5.40882562895006    2.14147581748403
H         4.89841461344004   -5.51042411382259   -0.28392400782156
H         3.43266824195818   -3.85209203534193   -1.36615582452286
H         1.99294258985769   -1.86886306259841   -1.20660938082966
H         0.82651549044102    0.17790732643569   -1.10555380789569
H        -0.91366386300912   -0.91647161128687    1.10063909660027
H        -0.86544636624565   -2.85022007379717   -0.32162934492539
H        -1.26033013349190   -4.89987734708894   -1.61612554804671
H        -2.17632560623796   -6.00968285559960   -3.61631237569802
H        -3.29138915776205   -4.68833532121814   -5.36845343470358
H        -3.49734032933248   -2.24540774278242   -5.14035488392678
H        -3.08325282047625   -0.18871226919406   -3.84418424362126
H        -2.16999901542989    0.91468724951551   -1.85464977307978
H        -1.98747689170022    2.89805107783478    3.17461978843445
H        -3.48353154736109    4.98635875138563    3.53635306054765
H        -5.47194517982679    5.04899764209338    1.82685863687521
H        -0.65682084313829    2.79764586274758    1.39052681817549
H        -2.06274697801640    3.92707917175685   -1.68437971764208
H         3.80643304750327    4.01987715697501   -0.32884986922795
H         3.80179008192828    6.37106798714607    0.82287401441981
H         1.87818054155915    6.54206696287526    2.60301972908499

          :  Hamiltonian                  GFN2-xTB          :
         :: total energy            -113.677062273328 Eh    ::
         :: gradient norm              0.000633417961 Eh/a0 ::
         :: HOMO-LUMO gap              2.650242184070 eV    ::
         :: SCC energy              -115.416214052129 Eh    ::
         :: -> dispersion             -0.098405002508 Eh    ::
         :: repulsion energy           1.737676466767 Eh    ::

    * Orbital Energies and Occupations

         #    Occupation            Energy/Eh            Energy/eV
      -------------------------------------------------------------
         1        2.0000           -0.7831402             -21.3103
       ...           ...                  ...                  ...
        91        2.0000           -0.4160862             -11.3223
        92        2.0000           -0.4145719             -11.2811
        93        2.0000           -0.4139181             -11.2633
        94        2.0000           -0.4116886             -11.2026
        95        2.0000           -0.4087942             -11.1239
        96        2.0000           -0.4071050             -11.0779
        97        2.0000           -0.4048415             -11.0163
        98        2.0000           -0.4028965             -10.9634
        99        2.0000           -0.4026041             -10.9554
       100        2.0000           -0.3965921             -10.7918
       101        2.0000           -0.3944085             -10.7324
       102        2.0000           -0.3802695             -10.3477
       103        2.0000           -0.3773492             -10.2682 (HOMO)
       104                         -0.2799546              -7.6180 (LUMO)
       105                         -0.2719364              -7.3998
       106                         -0.2651852              -7.2161
       107                         -0.2621578              -7.1337
       108                         -0.2590093              -7.0480
       109                         -0.2325301              -6.3275
       110                         -0.2277583              -6.1976
       111                         -0.2242811              -6.1030
       112                         -0.2216644              -6.0318
       113                         -0.2093598              -5.6970
       114                         -0.2019723              -5.4959
       ...                                ...                  ...
       202                          0.6975500              18.9813
      -------------------------------------------------------------
                  HL-Gap            0.0973946 Eh            2.6502 eV

     #   Z          covCN         q      C6AA      Î±(0)
     1   6 C        2.919    -0.031    28.779     8.797
     2   6 C        2.917    -0.033    28.821     8.804
     3   6 C        2.987     0.014    27.689     8.632
     4   6 C        2.918    -0.034    28.840     8.806
     5   6 C        2.916    -0.029    28.735     8.790
     6   6 C        2.916    -0.029    28.723     8.788
     7   6 C        2.918    -0.033    28.827     8.805
     8   6 C        2.987     0.017    27.617     8.620
     9   6 C        2.923    -0.036    28.884     8.813
    10   6 C        2.970     0.013    27.717     8.636
    11   6 C        3.840     0.049    19.720     6.317
    12   6 C        3.829     0.045    19.806     6.332
    13   6 C        2.969     0.009    27.811     8.650
    14   6 C        2.925    -0.039    28.958     8.825
    15   6 C        2.987     0.017    27.617     8.620
    16   6 C        2.918    -0.033    28.830     8.805
    17   6 C        2.916    -0.028    28.711     8.787
    18   6 C        2.916    -0.029    28.726     8.789
    19   6 C        2.918    -0.033    28.834     8.806
    20   6 C        2.988     0.014    27.686     8.631
    21   6 C        2.918    -0.033    28.815     8.803
    22   6 C        2.919    -0.028    28.710     8.787
    23   7 N        2.763    -0.114    23.484     7.197
    24   6 C        2.791     0.273    22.387     7.751
    25   6 C        2.994    -0.015    28.387     8.740
    26   6 C        3.118    -0.049    29.040     8.826
    27   6 C        3.113    -0.045    28.941     8.813
    28   6 C        2.943    -0.026    28.643     8.778
    29  16 S        2.339     0.037   139.567    19.884
    30   8 O        0.860    -0.413    21.950     6.282
    31   6 C        3.765     0.087    19.185     6.243
    32   6 C        2.687     0.351    21.044     7.507
    33   8 O        1.659    -0.362    20.117     6.055
    34   8 O        0.856    -0.380    21.289     6.186
    35   7 N        2.762    -0.125    23.722     7.234
    36   6 C        2.775     0.278    22.296     7.734
    37   6 C        2.987    -0.009    28.243     8.718
    38   6 C        3.129    -0.025    28.417     8.728
    39   6 C        3.112    -0.039    28.807     8.792
    40   6 C        2.942    -0.012    28.314     8.727
    41  16 S        2.325    -0.044   142.868    20.117
    42   8 O        0.860    -0.411    21.896     6.274
    43   1 H        0.926     0.030     2.581     2.512
    44   1 H        0.926     0.037     2.493     2.469
    45   1 H        0.926     0.033     2.546     2.495
    46   1 H        0.926     0.032     2.562     2.503
    47   1 H        0.926     0.032     2.557     2.500
    48   1 H        0.926     0.034     2.525     2.485
    49   1 H        0.926     0.037     2.493     2.469
    50   1 H        0.923     0.052     2.294     2.369
    51   1 H        0.923     0.063     2.167     2.302
    52   1 H        0.926     0.035     2.515     2.480
    53   1 H        0.926     0.035     2.520     2.483
    54   1 H        0.926     0.033     2.544     2.494
    55   1 H        0.926     0.033     2.550     2.497
    56   1 H        0.926     0.033     2.539     2.492
    57   1 H        0.926     0.036     2.499     2.472
    58   1 H        0.926     0.023     2.694     2.567
    59   1 H        0.926     0.037     2.491     2.468
    60   1 H        0.926     0.045     2.382     2.414
    61   1 H        0.926     0.054     2.275     2.359
    62   1 H        0.924     0.085     1.929     2.172
    63   1 H        0.804     0.345     0.599     1.216
    64   1 H        0.926     0.068     2.107     2.270
    65   1 H        0.926     0.049     2.330     2.387
    66   1 H        0.926     0.053     2.278     2.360

Wiberg/Mayer (AO) data.
largest (>0.10) Wiberg bond orders for each atom

     #   Z sym  total        # sym  WBO       # sym  WBO       # sym  WBO
 ---------------------------------------------------------------------------
     1   6 C    3.991 --     2 C    1.565    10 C    1.293    43 H    0.969
     2   6 C    3.991 --     1 C    1.565     3 C    1.275    44 H    0.968
                             9 C    0.114
     3   6 C    3.990 --     4 C    1.282     2 C    1.275     8 C    1.251
     4   6 C    3.992 --     5 C    1.556     3 C    1.282    45 H    0.968
                             7 C    0.118
     5   6 C    3.990 --     4 C    1.556     6 C    1.321    46 H    0.971
     6   6 C    3.992 --     7 C    1.558     5 C    1.321    47 H    0.971
     7   6 C    3.990 --     6 C    1.558     8 C    1.279    48 H    0.968
                             4 C    0.118
     8   6 C    3.990 --     9 C    1.282     7 C    1.279     3 C    1.251
     9   6 C    3.989 --    10 C    1.526     8 C    1.282    49 H    0.966
                             2 C    0.114
    10   6 C    3.984 --     9 C    1.526     1 C    1.293    11 C    0.993
    11   6 C    3.960 --    10 C    0.993    35 N    0.956    50 H    0.954
                            12 C    0.950
    12   6 C    3.958 --    13 C    0.989    23 N    0.958    51 H    0.952
                            11 C    0.950
    13   6 C    3.985 --    14 C    1.520    22 C    1.300    12 C    0.989
    14   6 C    3.989 --    13 C    1.520    15 C    1.286    52 H    0.966
                            21 C    0.116
    15   6 C    3.990 --    14 C    1.286    16 C    1.277    20 C    1.250
    16   6 C    3.990 --    17 C    1.559    15 C    1.277    53 H    0.968
                            19 C    0.118
    17   6 C    3.992 --    16 C    1.559    18 C    1.319    54 H    0.971
    18   6 C    3.990 --    19 C    1.558    17 C    1.319    55 H    0.971
    19   6 C    3.992 --    18 C    1.558    20 C    1.280    56 H    0.968
                            16 C    0.118
    20   6 C    3.990 --    19 C    1.280    21 C    1.279    15 C    1.250
    21   6 C    3.992 --    22 C    1.559    20 C    1.279    57 H    0.968
                            14 C    0.116
    22   6 C    3.992 --    21 C    1.559    13 C    1.300    58 H    0.967
    23   7 N    3.463 --    24 C    1.195    31 C    0.990    12 C    0.958
                            30 O    0.190
    24   6 C    3.951 --    30 O    1.686    23 N    1.195    25 C    0.990
    25   6 C    3.950 --    26 C    1.569    29 S    1.170    24 C    0.990
                            28 C    0.112
    26   6 C    3.986 --    25 C    1.569    27 C    1.283    59 H    0.962
    27   6 C    3.987 --    28 C    1.614    26 C    1.283    60 H    0.965
    28   6 C    3.950 --    27 C    1.614    29 S    1.214    61 H    0.970
                            25 C    0.112
    29  16 S    2.662 --    28 C    1.214    25 C    1.170
    30   8 O    2.026 --    24 C    1.686    23 N    0.190
    31   6 C    3.974 --    35 N    0.997    23 N    0.990    62 H    0.918
                            32 C    0.903
    32   6 C    3.916 --    34 O    1.788    33 O    1.155    31 C    0.903
    33   8 O    2.220 --    32 C    1.155    63 H    0.854    34 O    0.182
    34   8 O    2.074 --    32 C    1.788    33 O    0.182
    35   7 N    3.416 --    36 C    1.163    31 C    0.997    11 C    0.956
                            42 O    0.171
    36   6 C    3.952 --    42 O    1.679    35 N    1.163    37 C    1.024
    37   6 C    3.943 --    38 C    1.560    41 S    1.140    36 C    1.024
                            40 C    0.113
    38   6 C    3.986 --    37 C    1.560    39 C    1.289    64 H    0.961
    39   6 C    3.988 --    40 C    1.616    38 C    1.289    65 H    0.963
    40   6 C    3.949 --    39 C    1.616    41 S    1.194    66 H    0.969
                            37 C    0.113
    41  16 S    2.632 --    40 C    1.194    37 C    1.140
    42   8 O    2.029 --    36 C    1.679    35 N    0.171
    43   1 H    0.999 --     1 C    0.969
    44   1 H    0.998 --     2 C    0.968
    45   1 H    0.998 --     4 C    0.968
    46   1 H    0.999 --     5 C    0.971
    47   1 H    0.999 --     6 C    0.971
    48   1 H    0.998 --     7 C    0.968
    49   1 H    0.998 --     9 C    0.966
    50   1 H    0.996 --    11 C    0.954
    51   1 H    0.995 --    12 C    0.952
    52   1 H    0.998 --    14 C    0.966
    53   1 H    0.998 --    16 C    0.968
    54   1 H    0.998 --    17 C    0.971
    55   1 H    0.998 --    18 C    0.971
    56   1 H    0.998 --    19 C    0.968
    57   1 H    0.998 --    21 C    0.968
    58   1 H    0.999 --    22 C    0.967
    59   1 H    0.999 --    26 C    0.962
    60   1 H    0.997 --    27 C    0.965
    61   1 H    0.996 --    28 C    0.970
    62   1 H    0.992 --    31 C    0.918
    63   1 H    0.880 --    33 O    0.854
    64   1 H    0.995 --    38 C    0.961
    65   1 H    0.997 --    39 C    0.963
    66   1 H    0.997 --    40 C    0.969
 ---------------------------------------------------------------------------

molecular dipole:
                 x           y           z       tot (Debye)
 q only:       -0.503       0.893       0.103
   full:       -0.234       1.536       0.127       3.962

           -------------------------------------------------
          | TOTAL ENERGY             -113.677062273328 Eh   |
          | GRADIENT NORM               0.000633417961 Eh/Î± |
          | HOMO-LUMO GAP               2.650242184070 eV   |
           -------------------------------------------------

 * finished run on 2022/03/16 at 21:26:32.923
