   * xtb version 6.3.3 (4ae9cef) compiled by 'conda@95abc7406d43' on 2020-10-14
          program call               : xtb acid_442.xyz --opt --chrg 0 --uhf 0 --gfn 2
          number of atoms            :                   108
          number of electrons        :                   274
          charge                     :                     0
          spin                       :                   0.0

   ID    Z sym.   atoms
    1    8 O      1, 20, 21, 38
    2    6 C      2-16, 18, 19, 23-37, 39-52
    3    7 N      17, 22
    4    1 H      53-108

          :  Hamiltonian                  GFN2-xTB          :
 * total energy  :  -149.2421742 Eh     change       -0.1002962E-07 Eh
 * total energy  :  -149.2588731 Eh     change       -0.1669895E-01 Eh
 * total energy  :  -149.2649543 Eh     change       -0.6081128E-02 Eh
 * total energy  :  -149.2674384 Eh     change       -0.2484153E-02 Eh
 * total energy  :  -149.2689373 Eh     change       -0.1498879E-02 Eh
 * total energy  :  -149.2696876 Eh     change       -0.7503237E-03 Eh
 * total energy  :  -149.2701968 Eh     change       -0.5091721E-03 Eh
 * total energy  :  -149.2706602 Eh     change       -0.4634012E-03 Eh
 * total energy  :  -149.2711075 Eh     change       -0.4473212E-03 Eh
 * total energy  :  -149.2714660 Eh     change       -0.3585209E-03 Eh
 * total energy  :  -149.2836538 Eh     change       -0.3240924E-04 Eh
 * total energy  :  -149.2836803 Eh     change       -0.2651141E-04 Eh
 * total energy  :  -149.2837046 Eh     change       -0.2431854E-04 Eh
 * total energy  :  -149.2837298 Eh     change       -0.2511202E-04 Eh
 * total energy  :  -149.2837580 Eh     change       -0.2820001E-04 Eh
 * total energy  :  -149.2837875 Eh     change       -0.2956953E-04 Eh
 * total energy  :  -149.2838156 Eh     change       -0.2806644E-04 Eh
 * total energy  :  -149.2838415 Eh     change       -0.2586124E-04 Eh
 * total energy  :  -149.2838462 Eh     change       -0.4729721E-05 Eh
   *** GEOMETRY OPTIMIZATION CONVERGED AFTER 122 ITERATIONS ***

 final structure:
================
108
 xtb: 6.3.3 (4ae9cef)
O        -3.32205035706860   -2.82369170067189   -0.63605402777128
C        -2.42627145563487   -2.06467841744871   -0.34015478582161
C        -2.60548850345186   -0.63522854283448    0.06263735662912
C        -2.23828588322111    0.35246963728795   -0.84495273129283
C        -2.34033178130230    1.68951961972875   -0.50087211127607
C        -1.97769923306457    2.81166901019887   -1.46136007529270
C        -3.20655067653876    3.70836275227176   -1.66843273964717
C        -0.82627661341085    3.63243048451627   -0.86472305869214
C        -1.53632318865629    2.28711629189560   -2.83029518886404
C        -2.78697124624475    2.00229981405792    0.78221626718061
C        -3.16645038933953    1.03537292244410    1.70038338161064
C        -3.66584895184284    1.37553995483772    3.09552062458808
C        -3.50553648269636    2.86024429914960    3.43463326682734
C        -2.87234309800715    0.56264579557123    4.12882236759438
C        -5.15535736446332    1.01396236501003    3.17902768677572
C        -3.08795814910311   -0.29989935624060    1.31260608662416
N        -1.11225122909055   -2.42535513083162   -0.38729886710956
C        -0.03201177926389   -1.71236574088332    0.25429264477689
C        -0.12150404069669   -1.96157496997871    1.77633433875495
O        -0.21287128514283   -3.24979506869805    2.07798684313872
O        -0.15427131588094   -1.08527745725913    2.59764530503416
N         1.14634939868810   -2.27532202984113   -0.34255258010271
C         2.14719154250269   -1.56956180624982   -0.96381849380389
C         2.29660473404198   -0.14090261670945   -0.58315699672735
C         2.62624662706581    0.76046418904205   -1.58583301537298
C         2.81249963167089    2.10753688953461   -1.29917386712010
C         3.22837390742232    3.05904567096706   -2.41111279645453
C         4.60665062161469    2.61486045529589   -2.92205804577603
C         3.33402246535585    4.51254709260615   -1.94079451251130
C         2.21036174455543    3.00552757260400   -3.55717508563801
C         2.65223962635845    2.51662436267205    0.01815543077944
C         2.37094833386035    1.62707864295431    1.05336027989428
C         2.21714417035934    2.14694538472391    2.47491101920533
C         3.34949536113753    3.12616847509930    2.81594704766347
C         2.24302734933671    1.02125003947469    3.51270421587908
C         0.86149030006527    2.86230758973257    2.56446604809913
C         2.19976158255269    0.28846209093823    0.73667805815553
O         2.87951647244573   -2.11051813392424   -1.76801470680542
C         0.87701625562378   -3.64268841637519   -0.76735793507657
C         1.52200370838294   -4.67936905366994    0.12027498401920
C         1.21846939675469   -6.02052345857942   -0.08228678148314
C         1.80044176042904   -6.99744017567364    0.70411329056565
C         2.69843056745581   -6.64634019181675    1.69833394894312
C         3.01675695046291   -5.31428583792309    1.89340434090873
C         2.43347738300391   -4.33551221584591    1.10730025126483
C        -0.66944071347610   -3.74953143045418   -0.80643583191322
C        -1.19742903397779   -4.06858630068831   -2.18007202896709
C        -1.88104774602445   -5.24989798860166   -2.42306021512124
C        -2.35350572568185   -5.53442694624214   -3.69207438640555
C        -2.15030336081483   -4.63779213632087   -4.72629440777902
C        -1.47202580374979   -3.45414821888234   -4.48846827388454
C        -0.99551330279876   -3.17198149546581   -3.22212125978383
H        -1.88441140860922    0.04431230853657   -1.81541418015278
H        -3.52363433250256    4.17039757387146   -0.73779722942954
H        -2.97735607848132    4.49931168635378   -2.37958765395941
H        -4.03610305764928    3.12282006391471   -2.05875310085401
H        -1.10957634586941    4.07488372479735    0.08631101924594
H        -0.55146827060327    4.43759203185607   -1.54382427970072
H         0.04433624396297    2.99920095600268   -0.70271464056436
H        -0.63969715079587    1.67701983674407   -2.74489095504232
H        -2.32528893179001    1.70165769859612   -3.29653579441077
H        -1.31247213686957    3.12639536379258   -3.48615401275623
H        -2.84146092551663    3.04027067321178    1.06243010561657
H        -3.84012457041811    3.03603213183970    4.45493844164955
H        -2.46364296290405    3.16419055501649    3.36289502868733
H        -4.10843361268448    3.48355115764888    2.77828391263027
H        -1.80366938858284    0.67659857306974    3.96250603939609
H        -3.10869324784049    0.90342462495845    5.13453240099974
H        -3.11226097958302   -0.49503010878712    4.06990266511100
H        -5.53622350578055    1.21738456028991    4.17767855198680
H        -5.31526374410345   -0.03768186087979    2.95633582480313
H        -5.72683571607970    1.60202926873396    2.46374318926861
H        -3.38796984271070   -1.09096338003105    1.98187751215261
H        -0.09094854280369   -0.62911423143294    0.09582423082767
H        -0.28989862322233   -3.38343373878644    3.03714087861718
H         2.73939165663092    0.37842105007025   -2.58857593787516
H         4.94756430247468    3.28243964253122   -3.71060416162625
H         5.33330697975632    2.63662819380516   -2.11251318434585
H         4.57139102465182    1.60424898738828   -3.31885962395964
H         2.38246148832268    4.86959749559363   -1.55277203478840
H         3.61174080669791    5.14417059824940   -2.78212453436315
H         4.09811713965202    4.62377300240302   -1.17497850917111
H         1.23586462843404    3.33713631410897   -3.20864477098348
H         2.11025950438234    2.00046504392267   -3.95632937516899
H         2.52784129726353    3.65957844820025   -4.36660210707522
H         2.76604294038767    3.55908942377478    0.25868351244469
H         3.28852180624688    4.03974019318747    2.23154329913079
H         4.31660115210871    2.66259037633046    2.63311923134663
H         3.29434856205301    3.40278593619627    3.86656074192239
H         2.20598437064091    1.44917268160544    4.51248168330323
H         3.15788208412550    0.43820025939251    3.42777825918523
H         1.38462378843466    0.36511919518893    3.40223496613138
H         0.81906558185801    3.69996396576879    1.87234663489705
H         0.70261869658329    3.23804904203805    3.57310640498856
H         0.05790079073968    2.17010465427766    2.31917996321183
H         2.01425993051974   -0.43712796429948    1.50847989289416
H         1.29739340250054   -3.75685681718652   -1.77661690789298
H         0.53070942151983   -6.29736934343677   -0.86798072397484
H         1.55690702137548   -8.03635162434554    0.53747989634780
H         3.15455645838094   -7.40902974694360    2.31180398305418
H         3.72622193876253   -5.03355356990642    2.65818655191454
H         2.69861202539320   -3.29940121546193    1.25776024426379
H        -1.01965675508878   -4.50169848406188   -0.08839754280928
H        -2.05549149376964   -5.94343979267231   -1.61336360999014
H        -2.88745204622461   -6.45579278552970   -3.87182943983496
H        -2.52347706253935   -4.85789924523785   -5.71551028115416
H        -1.31477987229499   -2.74933250976073   -5.29175683931743
H        -0.46483361941634   -2.24803043882034   -3.03775891302576

          :  Hamiltonian                  GFN2-xTB          :
         :: total energy            -149.283846185238 Eh    ::
         :: gradient norm              0.000295757897 Eh/a0 ::
         :: HOMO-LUMO gap              3.164549122184 eV    ::
         :: SCC energy              -151.605613409301 Eh    ::
         :: -> dispersion             -0.144422655250 Eh    ::
         :: repulsion energy           2.313595034140 Eh    ::

    * Orbital Energies and Occupations

         #    Occupation            Energy/Eh            Energy/eV
      -------------------------------------------------------------
         1        2.0000           -0.7751016             -21.0916
       ...           ...                  ...                  ...
       125        2.0000           -0.4111086             -11.1868
       126        2.0000           -0.4108240             -11.1791
       127        2.0000           -0.4090715             -11.1314
       128        2.0000           -0.4046350             -11.0107
       129        2.0000           -0.4039007             -10.9907
       130        2.0000           -0.4019683             -10.9381
       131        2.0000           -0.4002720             -10.8920
       132        2.0000           -0.3988249             -10.8526
       133        2.0000           -0.3961257             -10.7791
       134        2.0000           -0.3940905             -10.7237
       135        2.0000           -0.3932560             -10.7010
       136        2.0000           -0.3902863             -10.6202
       137        2.0000           -0.3852233             -10.4825 (HOMO)
       138                         -0.2689283              -7.3179 (LUMO)
       139                         -0.2524736              -6.8702
       140                         -0.2321802              -6.3179
       141                         -0.2300674              -6.2605
       142                         -0.2268971              -6.1742
       143                         -0.2242312              -6.1016
       144                         -0.2224331              -6.0527
       145                         -0.2221464              -6.0449
       146                         -0.2217958              -6.0354
       147                         -0.2060383              -5.6066
       148                         -0.1911293              -5.2009
       ...                                ...                  ...
       264                          0.6718886              18.2830
      -------------------------------------------------------------
                  HL-Gap            0.1162950 Eh            3.1645 eV

     #   Z          covCN         q      C6AA      Î±(0)
     1   8 O        0.858    -0.417    22.017     6.291
     2   6 C        2.762     0.271    22.425     7.755
     3   6 C        2.978    -0.028    28.692     8.786
     4   6 C        2.930    -0.046    29.149     8.854
     5   6 C        2.972     0.008    27.825     8.653
     6   6 C        3.903     0.025    20.094     6.372
     7   6 C        3.762    -0.106    22.571     6.772
     8   6 C        3.761    -0.104    22.525     6.766
     9   6 C        3.761    -0.106    22.573     6.773
    10   6 C        2.933    -0.046    29.137     8.853
    11   6 C        2.973     0.013    27.725     8.637
    12   6 C        3.903     0.026    20.074     6.369
    13   6 C        3.761    -0.108    22.613     6.779
    14   6 C        3.761    -0.108    22.610     6.778
    15   6 C        3.762    -0.105    22.560     6.771
    16   6 C        2.929    -0.034    28.836     8.807
    17   7 N        2.773    -0.124    23.681     7.228
    18   6 C        3.768     0.091    19.114     6.231
    19   6 C        2.689     0.351    21.042     7.507
    20   8 O        1.659    -0.350    19.900     6.022
    21   8 O        0.856    -0.396    21.599     6.231
    22   7 N        2.760    -0.121    23.624     7.219
    23   6 C        2.767     0.267    22.487     7.766
    24   6 C        2.971    -0.029    28.711     8.789
    25   6 C        2.934    -0.031    28.785     8.799
    26   6 C        2.971     0.010    27.797     8.648
    27   6 C        3.903     0.026    20.077     6.369
    28   6 C        3.763    -0.107    22.585     6.774
    29   6 C        3.761    -0.108    22.608     6.778
    30   6 C        3.761    -0.109    22.622     6.780
    31   6 C        2.933    -0.045    29.106     8.848
    32   6 C        2.972     0.011    27.762     8.643
    33   6 C        3.903     0.026    20.081     6.370
    34   6 C        3.761    -0.106    22.579     6.774
    35   6 C        3.761    -0.114    22.720     6.795
    36   6 C        3.763    -0.104    22.534     6.767
    37   6 C        2.927    -0.046    29.139     8.852
    38   8 O        0.859    -0.423    22.149     6.310
    39   6 C        3.833     0.038    19.905     6.348
    40   6 C        2.971     0.010    27.797     8.648
    41   6 C        2.925    -0.037    28.927     8.820
    42   6 C        2.920    -0.028    28.691     8.784
    43   6 C        2.920    -0.031    28.785     8.798
    44   6 C        2.920    -0.029    28.726     8.789
    45   6 C        2.923    -0.028    28.711     8.787
    46   6 C        3.822     0.044    19.826     6.336
    47   6 C        2.974     0.012    27.745     8.640
    48   6 C        2.924    -0.027    28.680     8.782
    49   6 C        2.920    -0.025    28.638     8.776
    50   6 C        2.921    -0.028    28.708     8.786
    51   6 C        2.920    -0.027    28.665     8.780
    52   6 C        2.925    -0.029    28.722     8.789
    53   1 H        0.926     0.034     2.524     2.484
    54   1 H        0.925     0.037     2.487     2.466
    55   1 H        0.925     0.038     2.476     2.461
    56   1 H        0.925     0.036     2.500     2.473
    57   1 H        0.925     0.037     2.495     2.470
    58   1 H        0.925     0.034     2.524     2.484
    59   1 H        0.925     0.036     2.509     2.477
    60   1 H        0.925     0.034     2.526     2.485
    61   1 H        0.925     0.038     2.476     2.461
    62   1 H        0.925     0.036     2.497     2.471
    63   1 H        0.926     0.044     2.396     2.420
    64   1 H        0.925     0.037     2.486     2.465
    65   1 H        0.925     0.038     2.469     2.457
    66   1 H        0.925     0.035     2.522     2.484
    67   1 H        0.925     0.047     2.364     2.404
    68   1 H        0.925     0.037     2.494     2.470
    69   1 H        0.925     0.034     2.530     2.487
    70   1 H        0.925     0.039     2.466     2.456
    71   1 H        0.925     0.038     2.477     2.461
    72   1 H        0.925     0.035     2.523     2.484
    73   1 H        0.926     0.032     2.554     2.499
    74   1 H        0.924     0.073     2.048     2.238
    75   1 H        0.804     0.341     0.610     1.227
    76   1 H        0.926     0.047     2.356     2.400
    77   1 H        0.925     0.038     2.470     2.458
    78   1 H        0.925     0.034     2.526     2.486
    79   1 H        0.925     0.042     2.420     2.432
    80   1 H        0.925     0.035     2.510     2.478
    81   1 H        0.925     0.038     2.482     2.464
    82   1 H        0.925     0.036     2.504     2.474
    83   1 H        0.925     0.040     2.451     2.448
    84   1 H        0.925     0.037     2.489     2.467
    85   1 H        0.925     0.037     2.488     2.467
    86   1 H        0.926     0.047     2.362     2.403
    87   1 H        0.925     0.035     2.511     2.478
    88   1 H        0.925     0.034     2.525     2.485
    89   1 H        0.925     0.038     2.478     2.462
    90   1 H        0.925     0.036     2.505     2.475
    91   1 H        0.925     0.031     2.567     2.506
    92   1 H        0.925     0.056     2.242     2.342
    93   1 H        0.925     0.034     2.526     2.486
    94   1 H        0.925     0.039     2.464     2.455
    95   1 H        0.925     0.039     2.464     2.455
    96   1 H        0.926     0.035     2.517     2.481
    97   1 H        0.923     0.082     1.955     2.187
    98   1 H        0.926     0.034     2.523     2.484
    99   1 H        0.926     0.036     2.504     2.474
   100   1 H        0.926     0.034     2.527     2.486
   101   1 H        0.926     0.034     2.532     2.489
   102   1 H        0.926     0.030     2.589     2.516
   103   1 H        0.924     0.058     2.228     2.334
   104   1 H        0.926     0.036     2.503     2.474
   105   1 H        0.926     0.037     2.491     2.468
   106   1 H        0.926     0.035     2.516     2.480
   107   1 H        0.926     0.035     2.519     2.482
   108   1 H        0.925     0.028     2.616     2.529

Wiberg/Mayer (AO) data.
largest (>0.10) Wiberg bond orders for each atom

     #   Z sym  total        # sym  WBO       # sym  WBO       # sym  WBO
 ---------------------------------------------------------------------------
     1   8 O    2.027 --     2 C    1.708    17 N    0.185
     2   6 C    3.941 --     1 O    1.708    17 N    1.191     3 C    0.958
     3   6 C    3.986 --    16 C    1.431     4 C    1.383     2 C    0.958
                            10 C    0.105
     4   6 C    3.989 --     5 C    1.431     3 C    1.383    53 H    0.964
                            11 C    0.105
     5   6 C    3.986 --     4 C    1.431    10 C    1.395     6 C    0.983
                            16 C    0.106
     6   6 C    3.990 --     9 C    1.000     7 C    0.987     8 C    0.987
                             5 C    0.983
     7   6 C    3.995 --     6 C    0.987    56 H    0.987    55 H    0.984
                            54 H    0.983
     8   6 C    3.996 --     6 C    0.987    58 H    0.984    59 H    0.983
                            57 H    0.983
     9   6 C    3.996 --     6 C    1.000    61 H    0.984    60 H    0.983
                            62 H    0.983
    10   6 C    3.990 --    11 C    1.435     5 C    1.395    63 H    0.958
                             3 C    0.105
    11   6 C    3.985 --    10 C    1.435    16 C    1.390    12 C    0.984
                             4 C    0.105
    12   6 C    3.990 --    13 C    1.000    14 C    0.988    15 C    0.985
                            11 C    0.984
    13   6 C    3.996 --    12 C    1.000    65 H    0.985    64 H    0.984
                            66 H    0.984
    14   6 C    3.995 --    12 C    0.988    67 H    0.985    68 H    0.985
                            69 H    0.983
    15   6 C    3.996 --    72 H    0.987    12 C    0.985    71 H    0.984
                            70 H    0.984
    16   6 C    3.989 --     3 C    1.431    11 C    1.390    73 H    0.965
                             5 C    0.106
    17   7 N    3.451 --     2 C    1.191    18 C    0.976    46 C    0.956
                             1 O    0.185
    18   6 C    3.972 --    22 N    0.994    17 N    0.976    74 H    0.943
                            19 C    0.907
    19   6 C    3.915 --    21 O    1.762    20 O    1.168    18 C    0.907
    20   8 O    2.237 --    19 C    1.168    75 H    0.856    21 O    0.183
    21   8 O    2.049 --    19 C    1.762    20 O    0.183
    22   7 N    3.444 --    23 C    1.169    18 C    0.994    39 C    0.967
                            38 O    0.177
    23   6 C    3.940 --    38 O    1.691    22 N    1.169    24 C    0.993
    24   6 C    3.985 --    25 C    1.404    37 C    1.381    23 C    0.993
    25   6 C    3.988 --    26 C    1.407    24 C    1.404    76 H    0.962
                            32 C    0.105
    26   6 C    3.985 --    31 C    1.422    25 C    1.407    27 C    0.983
                            37 C    0.102
    27   6 C    3.991 --    29 C    1.000    30 C    0.989    28 C    0.985
                            26 C    0.983
    28   6 C    3.995 --    78 H    0.987    27 C    0.985    77 H    0.984
                            79 H    0.984
    29   6 C    3.996 --    27 C    1.000    80 H    0.984    81 H    0.984
                            82 H    0.984
    30   6 C    3.995 --    27 C    0.989    85 H    0.985    83 H    0.983
                            84 H    0.983
    31   6 C    3.990 --    26 C    1.422    32 C    1.400    86 H    0.958
    32   6 C    3.985 --    37 C    1.426    31 C    1.400    33 C    0.984
                            25 C    0.105
    33   6 C    3.990 --    35 C    0.999    34 C    0.991    32 C    0.984
                            36 C    0.983
    34   6 C    3.996 --    33 C    0.991    88 H    0.987    89 H    0.984
                            87 H    0.982
    35   6 C    3.994 --    33 C    0.999    91 H    0.986    90 H    0.984
                            92 H    0.975
    36   6 C    3.996 --    95 H    0.985    93 H    0.985    94 H    0.984
                            33 C    0.983
    37   6 C    3.990 --    32 C    1.426    24 C    1.381    96 H    0.962
                            26 C    0.102
    38   8 O    2.018 --    23 C    1.691    22 N    0.177
    39   6 C    3.962 --    40 C    0.989    22 N    0.967    46 C    0.953
                            97 H    0.938
    40   6 C    3.986 --    45 C    1.419    41 C    1.405    39 C    0.989
                            43 C    0.110
    41   6 C    3.991 --    42 C    1.451    40 C    1.405    98 H    0.968
                            44 C    0.112
    42   6 C    3.992 --    41 C    1.451    43 C    1.433    99 H    0.971
                            45 C    0.110
    43   6 C    3.992 --    44 C    1.444    42 C    1.433   100 H    0.971
                            40 C    0.110
    44   6 C    3.992 --    43 C    1.444    45 C    1.439   101 H    0.971
                            41 C    0.112
    45   6 C    3.991 --    44 C    1.439    40 C    1.419   102 H    0.968
                            42 C    0.110
    46   6 C    3.963 --    47 C    0.990    17 N    0.956   103 H    0.953
                            39 C    0.953
    47   6 C    3.985 --    48 C    1.417    52 C    1.408    46 C    0.990
                            50 C    0.110
    48   6 C    3.990 --    49 C    1.441    47 C    1.417   104 H    0.968
                            51 C    0.110
    49   6 C    3.992 --    50 C    1.442    48 C    1.441   105 H    0.971
                            52 C    0.112
    50   6 C    3.991 --    49 C    1.442    51 C    1.435   106 H    0.971
                            47 C    0.110
    51   6 C    3.992 --    52 C    1.450    50 C    1.435   107 H    0.971
                            48 C    0.110
    52   6 C    3.992 --    51 C    1.450    47 C    1.408   108 H    0.969
                            49 C    0.112
    53   1 H    0.998 --     4 C    0.964
    54   1 H    0.999 --     7 C    0.983
    55   1 H    0.998 --     7 C    0.984
    56   1 H    0.999 --     7 C    0.987
    57   1 H    0.999 --     8 C    0.983
    58   1 H    0.998 --     8 C    0.984
    59   1 H    0.999 --     8 C    0.983
    60   1 H    0.999 --     9 C    0.983
    61   1 H    0.999 --     9 C    0.984
    62   1 H    0.998 --     9 C    0.983
    63   1 H    0.998 --    10 C    0.958
    64   1 H    0.998 --    13 C    0.984
    65   1 H    0.999 --    13 C    0.985
    66   1 H    0.999 --    13 C    0.984
    67   1 H    0.998 --    14 C    0.985
    68   1 H    0.998 --    14 C    0.985
    69   1 H    0.999 --    14 C    0.983
    70   1 H    0.998 --    15 C    0.984
    71   1 H    0.999 --    15 C    0.984
    72   1 H    0.999 --    15 C    0.987
    73   1 H    0.998 --    16 C    0.965
    74   1 H    0.994 --    18 C    0.943
    75   1 H    0.883 --    20 O    0.856
    76   1 H    0.997 --    25 C    0.962
    77   1 H    0.997 --    28 C    0.984
    78   1 H    0.999 --    28 C    0.987
    79   1 H    0.998 --    28 C    0.984
    80   1 H    0.999 --    29 C    0.984
    81   1 H    0.998 --    29 C    0.984
    82   1 H    0.999 --    29 C    0.984
    83   1 H    0.998 --    30 C    0.983
    84   1 H    0.999 --    30 C    0.983
    85   1 H    0.998 --    30 C    0.985
    86   1 H    0.997 --    31 C    0.958
    87   1 H    0.999 --    34 C    0.982
    88   1 H    0.999 --    34 C    0.987
    89   1 H    0.998 --    34 C    0.984
    90   1 H    0.998 --    35 C    0.984
    91   1 H    0.999 --    35 C    0.986
    92   1 H    0.997 --    35 C    0.975
    93   1 H    0.999 --    36 C    0.985
    94   1 H    0.997 --    36 C    0.984
    95   1 H    0.998 --    36 C    0.985
    96   1 H    0.998 --    37 C    0.962
    97   1 H    0.992 --    39 C    0.938
    98   1 H    0.999 --    41 C    0.968
    99   1 H    0.998 --    42 C    0.971
   100   1 H    0.998 --    43 C    0.971
   101   1 H    0.999 --    44 C    0.971
   102   1 H    0.999 --    45 C    0.968
   103   1 H    0.996 --    46 C    0.953
   104   1 H    0.999 --    48 C    0.968
   105   1 H    0.998 --    49 C    0.971
   106   1 H    0.998 --    50 C    0.971
   107   1 H    0.998 --    51 C    0.971
   108   1 H    0.999 --    52 C    0.969
 ---------------------------------------------------------------------------

molecular dipole:
                 x           y           z       tot (Debye)
 q only:        0.236       0.896       0.840
   full:        0.201       0.970       1.097       3.756

           -------------------------------------------------
          | TOTAL ENERGY             -149.283846185238 Eh   |
          | GRADIENT NORM               0.000295757897 Eh/Î± |
          | HOMO-LUMO GAP               3.164549122184 eV   |
           -------------------------------------------------

 * finished run on 2022/03/17 at 01:16:47.772
