   * xtb version 6.3.3 (4ae9cef) compiled by 'conda@95abc7406d43' on 2020-10-14
          program call               : xtb acid_213.xyz --opt --chrg 0 --uhf 0 --gfn 2
          number of atoms            :                    62
          number of electrons        :                   180
          charge                     :                     0
          spin                       :                   0.0

   ID    Z sym.   atoms
    1    6 C      1-11, 13, 14, 18-28, 30-35
    2    7 N      12, 17
    3    8 O      15, 16, 29, 36
    4    1 H      37-62

          :  Hamiltonian                  GFN2-xTB          :
 * total energy  :   -99.6615807 Eh     change       -0.1735657E-08 Eh
 * total energy  :   -99.6762086 Eh     change       -0.1462794E-01 Eh
 * total energy  :   -99.6802231 Eh     change       -0.4014558E-02 Eh
 * total energy  :   -99.6811269 Eh     change       -0.9037467E-03 Eh
 * total energy  :   -99.6819010 Eh     change       -0.7741457E-03 Eh
 * total energy  :   -99.6823339 Eh     change       -0.4328419E-03 Eh
 * total energy  :   -99.6827510 Eh     change       -0.4171545E-03 Eh
 * total energy  :   -99.6830837 Eh     change       -0.3326581E-03 Eh
 * total energy  :   -99.6833687 Eh     change       -0.2850500E-03 Eh
 * total energy  :   -99.6835570 Eh     change       -0.1882682E-03 Eh
 * total energy  :   -99.6917069 Eh     change       -0.1131117E-04 Eh
 * total energy  :   -99.6917183 Eh     change       -0.1135194E-04 Eh
 * total energy  :   -99.6917275 Eh     change       -0.9209234E-05 Eh
 * total energy  :   -99.6917333 Eh     change       -0.5811671E-05 Eh
 * total energy  :   -99.6917393 Eh     change       -0.5979221E-05 Eh
 * total energy  :   -99.6917466 Eh     change       -0.7307653E-05 Eh
 * total energy  :   -99.6917539 Eh     change       -0.7370935E-05 Eh
 * total energy  :   -99.6917604 Eh     change       -0.6500514E-05 Eh
 * total energy  :   -99.6917644 Eh     change       -0.3919411E-05 Eh
   *** GEOMETRY OPTIMIZATION CONVERGED AFTER 106 ITERATIONS ***

 final structure:
================
62
 xtb: 6.3.3 (4ae9cef)
C        -5.79361005998733   -2.56205606930934   -0.26871009772466
C        -5.58856744419193   -2.60404904488646   -1.61899821184370
C        -4.72466858100521   -1.68335266164496   -2.23300168272275
C        -4.07727717554046   -0.73770419352976   -1.48826338358079
C        -4.26511710926143   -0.67215623367571   -0.09103845793118
C        -5.14011991730465   -1.60116096607165    0.53133692115782
C        -5.32932517791613   -1.54118549679265    1.92724063787949
C        -4.67920192840091   -0.60534224868441    2.68083655338453
C        -3.80256745471186    0.30504171795091    2.07418295123349
C        -3.59134698191347    0.27383031744042    0.71922741425455
C        -2.67988157202878    1.27956873798657    0.08554859269158
N        -1.35876307333080    1.05258584009186    0.31369630617948
C        -0.80794238582690   -0.18625005632378    0.82585433238995
C        -1.05898266858511   -1.36523512664841   -0.14073794884715
O        -1.83536298882730   -2.29498970130557    0.40016135104592
O        -0.71167405762445   -1.34539584488363   -1.29187727647310
N         0.62962181626963    0.04893965031620    0.90124892722451
C         1.41129697399691   -1.04825725655354    0.86049305466943
C         2.88608663203386   -0.86071201301808    0.92934706508816
C         3.48405400707899   -0.57301539799597    2.12992264929201
C         4.87981690293664   -0.46739125711072    2.21921868386617
C         5.65757181869360   -0.65012359379227    1.11029975596446
C         5.07618514596983   -0.95233852920069   -0.13899850887267
C         3.66457569208976   -1.06849307231240   -0.23625035545230
C         3.08153584290756   -1.36505870437674   -1.48701367683547
C         3.86837026056661   -1.54859446848668   -2.58975333037254
C         5.26482348474735   -1.43774725659486   -2.49594235517751
C         5.85561667412658   -1.14547273738746   -1.29902897025974
O         0.89293727795577   -2.15527004380165    0.82041419565007
C         0.88559697275851    1.46206793846178    0.68478860909130
C        -0.26606922729731    1.82830112017976   -0.25728285535416
C        -0.41335830160411    3.33664810596876   -0.33928053210311
C         0.89766257805248    3.88262388537457   -0.90817302665221
C         2.10484015940648    3.45337900826204   -0.07377310737066
C         2.19810132456414    1.93066715655111    0.08221638544188
O        -3.08732338384901    2.24013571198172   -0.53351437725217
H        -6.46016029135486   -3.26578702927610    0.20942351975217
H        -6.09166638969456   -3.34377796082987   -2.22459635373066
H        -4.57522103527328   -1.72769707087755   -3.30152339061303
H        -3.41727368135565   -0.02652483630515   -1.96155396056750
H        -6.00020651265644   -2.25047524131002    2.39039255419070
H        -4.83047812063185   -0.55978967508858    3.74914928442571
H        -3.29555376490364    1.04238387328162    2.68092561188202
H        -1.22224943057032   -0.44721752408973    1.80899084174139
H        -1.96059824697054   -3.03303252799448   -0.21688226273829
H         2.87858204945461   -0.43243834739394    3.01353347743578
H         5.33112181375686   -0.24238974826610    3.17408324408936
H         6.73318873748461   -0.56968309455647    1.17517887600803
H         2.00748529858341   -1.45555264200104   -1.55876966729161
H         3.41836756977818   -1.78078877185533   -3.54344011672803
H         5.86837488486380   -1.58662520963547   -3.37937534517199
H         6.93001449545989   -1.05834734816154   -1.22097602714610
H         0.73491114432886    1.97438779762055    1.64786995009242
H        -0.04820741759613    1.43246102523458   -1.26070248041504
H        -0.60055004066723    3.74559333172195    0.65523491562143
H        -1.25251853946385    3.60445401489481   -0.97847669887949
H         0.85290838750472    4.97178544247838   -0.94553076512149
H         1.01975858417096    3.51894875196188   -1.93039242278499
H         3.01979828248777    3.82037761088736   -0.54098457144718
H         2.03454255206080    3.90543544363819    0.91828262322297
H         3.04318089984371    1.68399906119811    0.72426097985140
H         2.35491369642513    1.45785845857387   -0.88851604735113

          :  Hamiltonian                  GFN2-xTB          :
         :: total energy             -99.691764363333 Eh    ::
         :: gradient norm              0.000672889923 Eh/a0 ::
         :: HOMO-LUMO gap              2.977466181290 eV    ::
         :: SCC energy              -101.204212369688 Eh    ::
         :: -> dispersion             -0.085266291966 Eh    ::
         :: repulsion energy           1.510591565908 Eh    ::

    * Orbital Energies and Occupations

         #    Occupation            Energy/Eh            Energy/eV
      -------------------------------------------------------------
         1        2.0000           -0.7484451             -20.3662
       ...           ...                  ...                  ...
        78        2.0000           -0.4310603             -11.7297
        79        2.0000           -0.4284280             -11.6581
        80        2.0000           -0.4268605             -11.6155
        81        2.0000           -0.4248524             -11.5608
        82        2.0000           -0.4207289             -11.4486
        83        2.0000           -0.4129199             -11.2361
        84        2.0000           -0.4108339             -11.1794
        85        2.0000           -0.4046452             -11.0110
        86        2.0000           -0.4027580             -10.9596
        87        2.0000           -0.3942659             -10.7285
        88        2.0000           -0.3885480             -10.5729
        89        2.0000           -0.3879041             -10.5554
        90        2.0000           -0.3814773             -10.3805 (HOMO)
        91                         -0.2720574              -7.4031 (LUMO)
        92                         -0.2650174              -7.2115
        93                         -0.2407881              -6.5522
        94                         -0.2390169              -6.5040
        95                         -0.2321387              -6.3168
        96                         -0.2239757              -6.0947
        97                         -0.2152104              -5.8562
        98                         -0.1988815              -5.4118
        99                         -0.1907123              -5.1895
       100                         -0.1554313              -4.2295
       101                         -0.1487320              -4.0472
       ...                                ...                  ...
       170                          0.6932515              18.8643
      -------------------------------------------------------------
                  HL-Gap            0.1094199 Eh            2.9775 eV

     #   Z          covCN         q      C6AA      Î±(0)
     1   6 C        2.919    -0.035    28.882     8.813
     2   6 C        2.915    -0.030    28.744     8.792
     3   6 C        2.916    -0.028    28.702     8.785
     4   6 C        2.917    -0.030    28.749     8.793
     5   6 C        2.989     0.018    27.608     8.619
     6   6 C        2.987     0.016    27.637     8.623
     7   6 C        2.919    -0.033    28.816     8.803
     8   6 C        2.915    -0.029    28.716     8.787
     9   6 C        2.920    -0.030    28.749     8.793
    10   6 C        2.974    -0.025    28.619     8.775
    11   6 C        2.759     0.274    22.363     7.744
    12   7 N        2.767    -0.126    23.738     7.236
    13   6 C        3.794     0.093    19.054     6.216
    14   6 C        2.691     0.372    20.691     7.444
    15   8 O        1.659    -0.362    20.135     6.058
    16   8 O        0.856    -0.414    21.953     6.282
    17   7 N        2.770    -0.115    23.510     7.201
    18   6 C        2.775     0.276    22.325     7.739
    19   6 C        2.973    -0.016    28.400     8.741
    20   6 C        2.920    -0.030    28.750     8.793
    21   6 C        2.915    -0.031    28.764     8.795
    22   6 C        2.918    -0.034    28.856     8.809
    23   6 C        2.986     0.015    27.669     8.629
    24   6 C        2.989     0.017    27.616     8.620
    25   6 C        2.916    -0.031    28.783     8.798
    26   6 C        2.916    -0.026    28.655     8.778
    27   6 C        2.915    -0.027    28.685     8.783
    28   6 C        2.918    -0.034    28.855     8.809
    29   8 O        0.863    -0.430    22.295     6.331
    30   6 C        3.840     0.041    19.863     6.340
    31   6 C        3.852     0.050    19.696     6.312
    32   6 C        3.806    -0.068    21.792     6.645
    33   6 C        3.808    -0.065    21.731     6.636
    34   6 C        3.808    -0.062    21.688     6.629
    35   6 C        3.806    -0.064    21.727     6.636
    36   8 O        0.858    -0.421    22.098     6.303
    37   1 H        0.926     0.035     2.521     2.483
    38   1 H        0.926     0.034     2.535     2.490
    39   1 H        0.926     0.037     2.487     2.466
    40   1 H        0.926     0.041     2.441     2.443
    41   1 H        0.926     0.038     2.475     2.460
    42   1 H        0.926     0.037     2.489     2.467
    43   1 H        0.926     0.029     2.595     2.519
    44   1 H        0.923     0.067     2.124     2.279
    45   1 H        0.804     0.344     0.602     1.219
    46   1 H        0.926     0.033     2.541     2.493
    47   1 H        0.926     0.038     2.474     2.460
    48   1 H        0.926     0.039     2.466     2.456
    49   1 H        0.926     0.050     2.324     2.384
    50   1 H        0.926     0.039     2.458     2.452
    51   1 H        0.926     0.036     2.509     2.477
    52   1 H        0.926     0.035     2.511     2.478
    53   1 H        0.923     0.047     2.354     2.400
    54   1 H        0.923     0.054     2.266     2.354
    55   1 H        0.924     0.045     2.389     2.417
    56   1 H        0.925     0.080     1.983     2.202
    57   1 H        0.924     0.047     2.358     2.402
    58   1 H        0.924     0.043     2.412     2.429
    59   1 H        0.924     0.045     2.383     2.414
    60   1 H        0.924     0.040     2.449     2.447
    61   1 H        0.925     0.045     2.389     2.417
    62   1 H        0.924     0.047     2.352     2.398

Wiberg/Mayer (AO) data.
largest (>0.10) Wiberg bond orders for each atom

     #   Z sym  total        # sym  WBO       # sym  WBO       # sym  WBO
 ---------------------------------------------------------------------------
     1   6 C    3.991 --     2 C    1.558     6 C    1.278    37 H    0.968
                             4 C    0.119
     2   6 C    3.992 --     1 C    1.558     3 C    1.321    38 H    0.971
     3   6 C    3.992 --     4 C    1.557     2 C    1.321    39 H    0.971
     4   6 C    3.992 --     3 C    1.557     5 C    1.280    40 H    0.966
                             1 C    0.119
     5   6 C    3.989 --     4 C    1.280     6 C    1.252    10 C    1.251
     6   6 C    3.990 --     7 C    1.280     1 C    1.278     5 C    1.252
     7   6 C    3.991 --     8 C    1.553     6 C    1.280    41 H    0.968
                            10 C    0.116
     8   6 C    3.992 --     7 C    1.553     9 C    1.325    42 H    0.970
     9   6 C    3.991 --    10 C    1.517     8 C    1.325    43 H    0.970
    10   6 C    3.986 --     9 C    1.517     5 C    1.251    11 C    0.957
                             7 C    0.116
    11   6 C    3.944 --    36 O    1.692    12 N    1.208    10 C    0.957
    12   7 N    3.454 --    11 C    1.208    13 C    0.982    31 C    0.957
                            36 O    0.189
    13   6 C    3.964 --    12 N    0.982    17 N    0.970    44 H    0.949
                            14 C    0.908
    14   6 C    3.923 --    16 O    1.739    15 O    1.152    13 C    0.908
    15   8 O    2.213 --    14 C    1.152    45 H    0.856    16 O    0.168
    16   8 O    2.033 --    14 C    1.739    15 O    0.168
    17   7 N    3.477 --    18 C    1.247    13 C    0.970    30 C    0.959
                            29 O    0.188
    18   6 C    3.939 --    29 O    1.630    17 N    1.247    19 C    0.965
    19   6 C    3.986 --    20 C    1.514    24 C    1.247    18 C    0.965
                            22 C    0.115
    20   6 C    3.990 --    19 C    1.514    21 C    1.324    46 H    0.970
    21   6 C    3.991 --    22 C    1.553    20 C    1.324    47 H    0.970
    22   6 C    3.991 --    21 C    1.553    23 C    1.280    48 H    0.968
                            19 C    0.115
    23   6 C    3.990 --    22 C    1.280    28 C    1.278    24 C    1.253
    24   6 C    3.989 --    25 C    1.281    23 C    1.253    19 C    1.247
    25   6 C    3.991 --    26 C    1.556    24 C    1.281    49 H    0.964
                            28 C    0.119
    26   6 C    3.992 --    25 C    1.556    27 C    1.321    50 H    0.970
    27   6 C    3.992 --    28 C    1.558    26 C    1.321    51 H    0.971
    28   6 C    3.991 --    27 C    1.558    23 C    1.278    52 H    0.968
                            25 C    0.119
    29   8 O    2.051 --    18 C    1.630    17 N    0.188
    30   6 C    3.963 --    35 C    0.998    31 C    0.971    17 N    0.959
                            53 H    0.954
    31   6 C    3.963 --    32 C    0.996    30 C    0.971    12 N    0.957
                            54 H    0.952
    32   6 C    3.988 --    33 C    1.003    31 C    0.996    55 H    0.975
                            56 H    0.967
    33   6 C    3.995 --    34 C    1.010    32 C    1.003    58 H    0.977
                            57 H    0.976
    34   6 C    3.995 --    33 C    1.010    35 C    1.001    60 H    0.977
                            59 H    0.976
    35   6 C    3.992 --    34 C    1.001    30 C    0.998    62 H    0.974
                            61 H    0.971
    36   8 O    2.020 --    11 C    1.692    12 N    0.189
    37   1 H    0.998 --     1 C    0.968
    38   1 H    0.998 --     2 C    0.971
    39   1 H    0.998 --     3 C    0.971
    40   1 H    0.998 --     4 C    0.966
    41   1 H    0.998 --     7 C    0.968
    42   1 H    0.997 --     8 C    0.970
    43   1 H    0.999 --     9 C    0.970
    44   1 H    0.995 --    13 C    0.949
    45   1 H    0.881 --    15 O    0.856
    46   1 H    0.998 --    20 C    0.970
    47   1 H    0.997 --    21 C    0.970
    48   1 H    0.997 --    22 C    0.968
    49   1 H    0.997 --    25 C    0.964
    50   1 H    0.998 --    26 C    0.970
    51   1 H    0.998 --    27 C    0.971
    52   1 H    0.998 --    28 C    0.968
    53   1 H    0.998 --    30 C    0.954
    54   1 H    0.997 --    31 C    0.952
    55   1 H    0.998 --    32 C    0.975
    56   1 H    0.993 --    32 C    0.967
    57   1 H    0.997 --    33 C    0.976
    58   1 H    0.998 --    33 C    0.977
    59   1 H    0.997 --    34 C    0.976
    60   1 H    0.998 --    34 C    0.977
    61   1 H    0.998 --    35 C    0.971
    62   1 H    0.998 --    35 C    0.974
 ---------------------------------------------------------------------------

molecular dipole:
                 x           y           z       tot (Debye)
 q only:        1.258       0.596       0.556
   full:        1.300       0.326       0.750       3.902

           -------------------------------------------------
          | TOTAL ENERGY              -99.691764363333 Eh   |
          | GRADIENT NORM               0.000672889923 Eh/Î± |
          | HOMO-LUMO GAP               2.977466181290 eV   |
           -------------------------------------------------

 * finished run on 2022/03/16 at 22:36:40.769
