   * xtb version 6.3.3 (4ae9cef) compiled by 'conda@95abc7406d43' on 2020-10-14
          program call               : xtb acid_473.xyz --opt --chrg 0 --uhf 0 --gfn 2
          number of atoms            :                    66
          number of electrons        :                   218
          charge                     :                     0
          spin                       :                   0.0

   ID    Z sym.   atoms
    1    6 C      1-22, 24-28, 32, 33, 37-41
    2    7 N      23, 36
    3   35 Br     29, 42
    4   16 S      30, 43
    5    8 O      31, 34, 35, 44
    6    1 H      45-66

          :  Hamiltonian                  GFN2-xTB          :
 * total energy  :  -120.7932759 Eh     change       -0.5872252E-08 Eh
 * total energy  :  -120.8112540 Eh     change       -0.1797805E-01 Eh
 * total energy  :  -120.8172526 Eh     change       -0.5998666E-02 Eh
 * total energy  :  -120.8185648 Eh     change       -0.1312204E-02 Eh
 * total energy  :  -120.8191326 Eh     change       -0.5677407E-03 Eh
 * total energy  :  -120.8193988 Eh     change       -0.2662072E-03 Eh
 * total energy  :  -120.8197205 Eh     change       -0.3217573E-03 Eh
 * total energy  :  -120.8200677 Eh     change       -0.3471880E-03 Eh
 * total energy  :  -120.8204508 Eh     change       -0.3830778E-03 Eh
 * total energy  :  -120.8208555 Eh     change       -0.4046826E-03 Eh
 * total energy  :  -120.8273264 Eh     change       -0.7461527E-04 Eh
 * total energy  :  -120.8273340 Eh     change       -0.7581680E-05 Eh
 * total energy  :  -120.8273318 Eh     change        0.2201563E-05 Eh
 * total energy  :  -120.8273403 Eh     change       -0.8525230E-05 Eh
 * total energy  :  -120.8273392 Eh     change        0.1124430E-05 Eh
 * total energy  :  -120.8273455 Eh     change       -0.6347283E-05 Eh
 * total energy  :  -120.8273448 Eh     change        0.7356813E-06 Eh
 * total energy  :  -120.8273499 Eh     change       -0.5066689E-05 Eh
 * total energy  :  -120.8273505 Eh     change       -0.6520326E-06 Eh
   *** GEOMETRY OPTIMIZATION CONVERGED AFTER 75 ITERATIONS ***

 final structure:
================
66
 xtb: 6.3.3 (4ae9cef)
C        -2.62131085824990   -3.11900853263493   -4.08687523799020
C        -2.54397861449012   -4.29975322193098   -3.40555368257608
C        -2.18165472262076   -4.30108233367775   -2.05144889564685
C        -1.90554260707011   -3.12974497997647   -1.40216181079517
C        -1.97855065348181   -1.88983978601421   -2.07445473205801
C        -2.34127465478948   -1.89299928899812   -3.44830737707628
C        -2.40807590292277   -0.67436293092933   -4.15453591973474
C        -2.13453454475373    0.50511703061164   -3.52723029900592
C        -1.78139446870253    0.51465437839286   -2.17097425401492
C        -1.70171251277857   -0.64560397585733   -1.44593007457635
C        -1.25462829594793   -0.63117312801056    0.00034041548669
C         0.22765698437581   -1.03569841374209    0.07541301139765
C         0.73498457831524   -1.47363820268802    1.43108878737408
C        -0.07213433185416   -1.47689242594981    2.54099629899112
C         0.42606244547480   -1.82264715192941    3.80584897195678
C         1.74046308089129   -2.15083378286125    3.96079315130036
C         2.60790557941556   -2.16736433742463    2.84931630230198
C         2.10613796518593   -1.83902551390746    1.56025177121575
C         3.00018085080014   -1.88725611478711    0.46878410089346
C         4.31448307346826   -2.21895946803160    0.64966832542899
C         4.80921682574172   -2.52478468390716    1.92479555778036
C         3.96874686011747   -2.50440885334963    3.00053739893227
N         0.84883498859022    0.24490013764565   -0.27547920041001
C         1.37974885444337    0.42038058982784   -1.52489704262922
C         1.77701508705041    1.79439226564721   -1.86577166441131
C         2.37748961735029    2.75351651361263   -1.09438069336659
C         2.69079637534674    3.92031130660232   -1.81411542581650
C         2.32322161446455    3.81954516965102   -3.12344356054163
Br        2.52173582634126    5.14022953793514   -4.43781378861682
S         1.60695089256744    2.29624043753559   -3.51344722621105
O         1.56762150845927   -0.51176627983914   -2.28006150544123
C         0.12898048664300    1.24593807082647    0.46817526710459
C         0.80946881784058    1.43056966986093    1.84071373546882
O        -0.04257072252680    1.45772013259993    2.85781045900404
O         1.99392596080800    1.57301260898795    1.95576336734771
N        -1.21879899800782    0.72241147236841    0.54769409838954
C        -2.33284954934936    1.24641223726223    1.11884042422971
C        -2.33862573876238    2.65126880263433    1.56451394339333
C        -3.33575384773507    3.15333203291803    2.35811017114460
C        -3.21373640376996    4.52524985269032    2.63572660502277
C        -2.11926945728099    5.06508569586448    2.03172043368891
Br       -1.54870720115865    6.84979124974676    2.10812221994708
S        -1.21654510469214    3.90299486009651    1.12416978985643
O        -3.33854307134006    0.57309432924419    1.25381541322374
H        -2.89806222434060   -3.10331111814261   -5.13121052908048
H        -2.75902177976178   -5.23490566131167   -3.90088615723414
H        -2.12075149700604   -5.23916126512525   -1.51972002680284
H        -1.62775032375249   -3.16203597488538   -0.35994523767022
H        -2.67654491900746   -0.69393360366688   -5.20051744374796
H        -2.18117916320733    1.44045432372945   -4.06471102586869
H        -1.58233152088130    1.46837826945748   -1.70223170486593
H        -1.92938602918143   -1.24201616096058    0.60133051092683
H         0.48054295243202   -1.76560232069532   -0.69728894062851
H        -1.11205782862483   -1.19804278163818    2.47726193467621
H        -0.24505052613880   -1.81347577127949    4.65191438575358
H         2.13670438939938   -2.40333874418974    4.93368557662172
H         2.65437379835039   -1.66739714573889   -0.52705094747982
H         4.98092565243814   -2.24779994582596   -0.19936387787383
H         5.85129481677860   -2.78011046501368    2.04723772066168
H         4.33151199687040   -2.74706566890702    3.98922574550761
H         2.61768090541675    2.60913145774761   -0.05588752823760
H         3.16322251508405    4.78767484907029   -1.39157748207654
H         0.18086931724473    2.21195111810339   -0.05436507446242
H         0.43150725392051    1.55153169699323    3.70089007311085
H        -4.13227111333673    2.53063586739011    2.72219219047465
H        -3.89566068412162    5.08911606875193    3.24489020830982

          :  Hamiltonian                  GFN2-xTB          :
         :: total energy            -120.827350506866 Eh    ::
         :: gradient norm              0.000908123616 Eh/a0 ::
         :: HOMO-LUMO gap              2.249399737958 eV    ::
         :: SCC energy              -122.538628899667 Eh    ::
         :: -> dispersion             -0.110965083399 Eh    ::
         :: repulsion energy           1.707675370777 Eh    ::

    * Orbital Energies and Occupations

         #    Occupation            Energy/Eh            Energy/eV
      -------------------------------------------------------------
         1        2.0000           -0.8615895             -23.4450
       ...           ...                  ...                  ...
        97        2.0000           -0.4277176             -11.6388
        98        2.0000           -0.4258896             -11.5890
        99        2.0000           -0.4256215             -11.5818
       100        2.0000           -0.4248423             -11.5605
       101        2.0000           -0.4195487             -11.4165
       102        2.0000           -0.4157596             -11.3134
       103        2.0000           -0.4151587             -11.2970
       104        2.0000           -0.4118538             -11.2071
       105        2.0000           -0.4104033             -11.1676
       106        2.0000           -0.4075217             -11.0892
       107        2.0000           -0.4065864             -11.0638
       108        2.0000           -0.3900069             -10.6126
       109        2.0000           -0.3847750             -10.4703 (HOMO)
       110                         -0.3021110              -8.2209 (LUMO)
       111                         -0.2938626              -7.9964
       112                         -0.2810483              -7.6477
       113                         -0.2697221              -7.3395
       114                         -0.2672573              -7.2724
       115                         -0.2514215              -6.8415
       116                         -0.2411789              -6.5628
       117                         -0.2400340              -6.5317
       118                         -0.2360835              -6.4242
       119                         -0.2335559              -6.3554
       120                         -0.2320460              -6.3143
       ...                                ...                  ...
       218                          0.6870610              18.6959
      -------------------------------------------------------------
                  HL-Gap            0.0826639 Eh            2.2494 eV

     #   Z          covCN         q      C6AA      Î±(0)
     1   6 C        2.921    -0.031    28.784     8.798
     2   6 C        2.915    -0.027    28.686     8.783
     3   6 C        2.917    -0.027    28.670     8.780
     4   6 C        2.917    -0.037    28.912     8.817
     5   6 C        2.986     0.011    27.772     8.645
     6   6 C        2.988     0.019    27.573     8.614
     7   6 C        2.920    -0.032    28.806     8.801
     8   6 C        2.914    -0.029    28.715     8.787
     9   6 C        2.921    -0.032    28.791     8.799
    10   6 C        2.970    -0.003    28.091     8.694
    11   6 C        3.846     0.040    19.865     6.340
    12   6 C        3.862     0.038    19.894     6.343
    13   6 C        2.967    -0.012    28.308     8.727
    14   6 C        2.919    -0.042    29.032     8.836
    15   6 C        2.914    -0.036    28.885     8.813
    16   6 C        2.920    -0.036    28.888     8.814
    17   6 C        2.988     0.016    27.654     8.626
    18   6 C        2.986     0.011    27.768     8.644
    19   6 C        2.917    -0.037    28.922     8.819
    20   6 C        2.917    -0.025    28.623     8.773
    21   6 C        2.915    -0.026    28.659     8.779
    22   6 C        2.921    -0.033    28.830     8.805
    23   7 N        2.782    -0.121    23.619     7.218
    24   6 C        2.799     0.277    22.327     7.741
    25   6 C        2.996    -0.025    28.613     8.775
    26   6 C        3.105    -0.049    29.086     8.837
    27   6 C        3.133    -0.051    29.043     8.822
    28   6 C        2.942     0.080    26.218     8.398
    29  35 Br       1.138    -0.114   188.179    22.118
    30  16 S        2.464     0.068   138.313    19.794
    31   8 O        0.859    -0.417    22.017     6.291
    32   6 C        3.787     0.090    19.100     6.225
    33   6 C        2.688     0.355    20.976     7.495
    34   8 O        1.659    -0.358    20.050     6.045
    35   8 O        0.856    -0.384    21.372     6.198
    36   7 N        2.767    -0.114    23.486     7.198
    37   6 C        2.770     0.273    22.390     7.749
    38   6 C        2.984    -0.012    28.299     8.726
    39   6 C        3.128    -0.028    28.491     8.740
    40   6 C        3.130    -0.048    28.987     8.814
    41   6 C        2.941     0.090    25.999     8.363
    42  35 Br       1.136    -0.115   188.212    22.120
    43  16 S        2.461    -0.022   141.980    20.055
    44   8 O        0.861    -0.427    22.235     6.322
    45   1 H        0.926     0.037     2.483     2.464
    46   1 H        0.926     0.036     2.509     2.477
    47   1 H        0.926     0.035     2.522     2.484
    48   1 H        0.926     0.029     2.603     2.523
    49   1 H        0.926     0.040     2.452     2.449
    50   1 H        0.926     0.035     2.511     2.478
    51   1 H        0.926     0.014     2.828     2.630
    52   1 H        0.924     0.083     1.944     2.181
    53   1 H        0.924     0.089     1.888     2.149
    54   1 H        0.926     0.040     2.448     2.447
    55   1 H        0.926     0.035     2.523     2.484
    56   1 H        0.926     0.037     2.489     2.467
    57   1 H        0.926     0.050     2.314     2.379
    58   1 H        0.926     0.038     2.475     2.460
    59   1 H        0.926     0.036     2.505     2.475
    60   1 H        0.926     0.035     2.513     2.479
    61   1 H        0.926     0.074     2.046     2.237
    62   1 H        0.926     0.068     2.109     2.271
    63   1 H        0.923     0.075     2.031     2.229
    64   1 H        0.804     0.348     0.593     1.209
    65   1 H        0.926     0.082     1.962     2.190
    66   1 H        0.926     0.067     2.113     2.273

Wiberg/Mayer (AO) data.
largest (>0.10) Wiberg bond orders for each atom

     #   Z sym  total        # sym  WBO       # sym  WBO       # sym  WBO
 ---------------------------------------------------------------------------
     1   6 C    3.991 --     2 C    1.556     6 C    1.280    45 H    0.968
                             4 C    0.118
     2   6 C    3.992 --     1 C    1.556     3 C    1.324    46 H    0.971
     3   6 C    3.992 --     4 C    1.553     2 C    1.324    47 H    0.971
     4   6 C    3.992 --     3 C    1.553     5 C    1.285    48 H    0.966
                             1 C    0.118
     5   6 C    3.989 --     4 C    1.285     6 C    1.256    10 C    1.247
     6   6 C    3.990 --     1 C    1.280     7 C    1.276     5 C    1.256
     7   6 C    3.991 --     8 C    1.559     6 C    1.276    49 H    0.968
                            10 C    0.114
     8   6 C    3.992 --     7 C    1.559     9 C    1.319    50 H    0.970
     9   6 C    3.991 --    10 C    1.531     8 C    1.319    51 H    0.967
    10   6 C    3.983 --     9 C    1.531     5 C    1.247    11 C    0.984
                             7 C    0.114
    11   6 C    3.957 --    10 C    0.984    12 C    0.960    36 N    0.958
                            52 H    0.940
    12   6 C    3.954 --    13 C    0.986    11 C    0.960    23 N    0.945
                            53 H    0.943
    13   6 C    3.983 --    14 C    1.529    18 C    1.245    12 C    0.986
                            16 C    0.113
    14   6 C    3.990 --    13 C    1.529    15 C    1.319    54 H    0.963
    15   6 C    3.991 --    16 C    1.558    14 C    1.319    55 H    0.970
    16   6 C    3.991 --    15 C    1.558    17 C    1.276    56 H    0.968
                            13 C    0.113
    17   6 C    3.990 --    22 C    1.280    16 C    1.276    18 C    1.255
    18   6 C    3.988 --    19 C    1.287    17 C    1.255    13 C    1.245
    19   6 C    3.991 --    20 C    1.552    18 C    1.287    57 H    0.961
                            22 C    0.119
    20   6 C    3.992 --    19 C    1.552    21 C    1.325    58 H    0.971
    21   6 C    3.992 --    22 C    1.555    20 C    1.325    59 H    0.971
    22   6 C    3.991 --    21 C    1.555    17 C    1.280    60 H    0.968
                            19 C    0.119
    23   7 N    3.436 --    24 C    1.173    32 C    0.993    12 C    0.945
                            31 O    0.178
    24   6 C    3.949 --    31 O    1.675    23 N    1.173    25 C    1.020
    25   6 C    3.945 --    26 C    1.535    30 S    1.156    24 C    1.020
    26   6 C    3.985 --    25 C    1.535    27 C    1.299    61 H    0.953
    27   6 C    3.982 --    28 C    1.546    26 C    1.299    62 H    0.961
    28   6 C    3.910 --    27 C    1.546    30 S    1.194    29 Br   1.024
    29  35 Br   1.174 --    28 C    1.024
    30  16 S    2.666 --    28 C    1.194    25 C    1.156
    31   8 O    2.024 --    24 C    1.675    23 N    0.178
    32   6 C    3.974 --    23 N    0.993    36 N    0.982    63 H    0.917
                            33 C    0.915
    33   6 C    3.922 --    35 O    1.774    34 O    1.160    32 C    0.915
    34   8 O    2.225 --    33 C    1.160    64 H    0.852    35 O    0.181
    35   8 O    2.062 --    33 C    1.774    34 O    0.181
    36   7 N    3.468 --    37 C    1.206    32 C    0.982    11 C    0.958
                            44 O    0.186
    37   6 C    3.955 --    44 O    1.644    36 N    1.206    38 C    1.023
    38   6 C    3.939 --    39 C    1.549    43 S    1.134    37 C    1.023
                            41 C    0.103
    39   6 C    3.984 --    38 C    1.549    40 C    1.296    65 H    0.956
    40   6 C    3.983 --    41 C    1.554    39 C    1.296    66 H    0.961
    41   6 C    3.908 --    40 C    1.554    43 S    1.168    42 Br   1.025
                            38 C    0.103
    42  35 Br   1.180 --    41 C    1.025
    43  16 S    2.637 --    41 C    1.168    38 C    1.134
    44   8 O    2.003 --    37 C    1.644    36 N    0.186
    45   1 H    0.998 --     1 C    0.968
    46   1 H    0.998 --     2 C    0.971
    47   1 H    0.998 --     3 C    0.971
    48   1 H    0.999 --     4 C    0.966
    49   1 H    0.997 --     7 C    0.968
    50   1 H    0.998 --     8 C    0.970
    51   1 H    0.999 --     9 C    0.967
    52   1 H    0.992 --    11 C    0.940
    53   1 H    0.991 --    12 C    0.943
    54   1 H    0.998 --    14 C    0.963
    55   1 H    0.998 --    15 C    0.970
    56   1 H    0.997 --    16 C    0.968
    57   1 H    0.997 --    19 C    0.961
    58   1 H    0.998 --    20 C    0.971
    59   1 H    0.998 --    21 C    0.971
    60   1 H    0.998 --    22 C    0.968
    61   1 H    0.995 --    26 C    0.953
    62   1 H    0.995 --    27 C    0.961
    63   1 H    0.994 --    32 C    0.917
    64   1 H    0.878 --    34 O    0.852
    65   1 H    0.993 --    39 C    0.956
    66   1 H    0.995 --    40 C    0.961
 ---------------------------------------------------------------------------

molecular dipole:
                 x           y           z       tot (Debye)
 q only:        0.019      -0.531       1.138
   full:       -0.187      -0.868       1.890       5.308

           -------------------------------------------------
          | TOTAL ENERGY             -120.827350506866 Eh   |
          | GRADIENT NORM               0.000908123616 Eh/Î± |
          | HOMO-LUMO GAP               2.249399737958 eV   |
           -------------------------------------------------

 * finished run on 2022/03/17 at 01:37:04.283
