   * xtb version 6.3.3 (4ae9cef) compiled by 'conda@95abc7406d43' on 2020-10-14
          program call               : xtb acid_380.xyz --opt --chrg 0 --uhf 0 --gfn 2
          number of atoms            :                    66
          number of electrons        :                   206
          charge                     :                     0
          spin                       :                   0.0

   ID    Z sym.   atoms
    1    6 C      1-14, 16-24, 27, 28, 32-40
    2    7 N      15, 31
    3    8 O      25, 26, 29, 30, 41, 42
    4    1 H      43-66

          :  Hamiltonian                  GFN2-xTB          :
 * total energy  :  -115.3264213 Eh     change       -0.5642363E-08 Eh
 * total energy  :  -115.3391807 Eh     change       -0.1275942E-01 Eh
 * total energy  :  -115.3433205 Eh     change       -0.4139761E-02 Eh
 * total energy  :  -115.3444897 Eh     change       -0.1169149E-02 Eh
 * total energy  :  -115.3449503 Eh     change       -0.4606620E-03 Eh
 * total energy  :  -115.3451219 Eh     change       -0.1716054E-03 Eh
 * total energy  :  -115.3452510 Eh     change       -0.1290729E-03 Eh
 * total energy  :  -115.3453568 Eh     change       -0.1058215E-03 Eh
 * total energy  :  -115.3454545 Eh     change       -0.9771911E-04 Eh
 * total energy  :  -115.3455426 Eh     change       -0.8807871E-04 Eh
 * total energy  :  -115.3460997 Eh     change       -0.1314355E-04 Eh
 * total energy  :  -115.3461154 Eh     change       -0.1561457E-04 Eh
 * total energy  :  -115.3461326 Eh     change       -0.1723234E-04 Eh
 * total energy  :  -115.3461477 Eh     change       -0.1512045E-04 Eh
 * total energy  :  -115.3461592 Eh     change       -0.1147462E-04 Eh
 * total energy  :  -115.3461677 Eh     change       -0.8495416E-05 Eh
 * total energy  :  -115.3461745 Eh     change       -0.6827975E-05 Eh
 * total energy  :  -115.3461758 Eh     change       -0.1320968E-05 Eh
 * total energy  :  -115.3461795 Eh     change       -0.3629971E-05 Eh
   *** GEOMETRY OPTIMIZATION CONVERGED AFTER 40 ITERATIONS ***

 final structure:
================
66
 xtb: 6.3.3 (4ae9cef)
C         0.94990823630390   -1.33427061020057    2.55261100193411
C         1.16468191050739   -1.88661319463837    3.80167248925776
C         1.09644656808505   -3.25891609334714    3.97433656250348
C         0.81553786232223   -4.07561697583931    2.89289175563862
C         0.60381923792183   -3.52404381316542    1.64161617056145
C         0.67064363533779   -2.15076362166981    1.46349070951937
C         0.42387719979608   -1.53193890780364    0.11068556472484
C        -0.87798250333430   -0.68635579848910    0.09098238346305
C        -1.87373831664805   -1.20632600516662   -0.92195574524813
C        -2.26711956311743   -0.47325487459722   -2.03080443409824
C        -3.18944222219822   -0.99992591834902   -2.92009291197935
C        -3.72510555970208   -2.25775194449907   -2.70976705861788
C        -3.33927132722001   -2.99105189156997   -1.59943317822386
C        -2.42086454415661   -2.46699647882986   -0.70938651522116
N        -0.41579046431485    0.66408996013573   -0.15039359601542
C        -0.94951331608469    1.83904309896101    0.28749873354609
C        -2.34443556263324    1.83282717172605    0.74768087056914
C        -3.03141015332018    2.90715693651033    1.23884325431429
C        -4.35715218159138    2.45579006959944    1.48623699800482
C        -5.52815997420164    3.03818970943438    1.97250373236079
C        -6.65514213642611    2.25290139120621    2.05863058317742
C        -6.64118491348181    0.90915674293030    1.67321350485631
C        -5.49735470022964    0.30698871801640    1.19126571192950
C        -4.36102047535872    1.09711526421674    1.10503221799265
O        -3.13982955738754    0.72680087970236    0.66726256599574
O        -0.30215619679705    2.87109972074804    0.27099446779596
C         0.92801458391349    0.66014757642041   -0.67369739211792
C         0.90643720041277    0.79209242380613   -2.21048567359786
O         1.77622303480044   -0.02241022595661   -2.80256210021420
O         0.18794785950138    1.54229119381798   -2.80587354031967
N         1.48074420475593   -0.58460845595809   -0.22337219752992
C         2.76061983312472   -1.03522403199463   -0.31436207624427
C         3.81776849712911   -0.07891712735619   -0.67501060074508
C         5.13788806816347   -0.38383405031669   -0.84662950645549
C         5.78947865217810    0.83015475171627   -1.20056698413226
C         4.77055422174966    1.80571350471464   -1.21160057549360
C         5.01968808518497    3.13467359295511   -1.51817349602464
C         6.32355591542459    3.47143965932263   -1.81968665941344
C         7.34618122686783    2.51847841000763   -1.81481761461039
C         7.09921633252212    1.19940442996925   -1.50823457307658
O         3.58078221258806    1.24822198494094   -0.89247921648357
O         3.03445050808150   -2.19944209348612   -0.08144088394766
H         1.00868738676514   -0.26289714465583    2.41862880716342
H         1.38843836625064   -1.24511079187365    4.64132896365056
H         1.26763148285826   -3.69026363073453    4.94945960284357
H         0.76804417761826   -5.14672058131490    3.02208553260661
H         0.40088971627254   -4.16327985862616    0.79515840761038
H         0.38808588153028   -2.32239779281105   -0.65030785233806
H        -1.34540216233773   -0.73293674757196    1.08198083226349
H        -1.86520155705750    0.51330816042463   -2.20256436242507
H        -3.49036328250512   -0.41918620736570   -3.77925586341978
H        -4.44457978252769   -2.66477508889938   -3.40462411309393
H        -3.75817379626078   -3.97115483423580   -1.42472248996396
H        -2.12537743065324   -3.03272644032988    0.16292228435426
H        -2.62818329583397    3.88664285723049    1.39152399963162
H        -5.54125161576033    4.07546036600619    2.26818920110798
H        -7.57528295011712    2.67838048849837    2.43005690735719
H        -7.54925223030715    0.33121772229818    1.75417016989168
H        -5.47544945249633   -0.72692604861320    0.88622201685530
H         1.45672060554630    1.54455556333010   -0.28478992280257
H         1.75576603023439    0.09513483062848   -3.76646112299975
H         5.57027969632295   -1.35579979730068   -0.72987205065190
H         4.22409500541071    3.86236722265449   -1.51904741931062
H         6.56139075637220    4.49507073964361   -2.06597921984990
H         8.35078775744386    2.83111954047473   -2.05757686318743
H         7.88990927476486    0.46539839552156   -1.50315319362711

          :  Hamiltonian                  GFN2-xTB          :
         :: total energy            -115.346179460481 Eh    ::
         :: gradient norm              0.000874213646 Eh/a0 ::
         :: HOMO-LUMO gap              3.062056405128 eV    ::
         :: SCC energy              -117.078097411979 Eh    ::
         :: -> dispersion             -0.090972445348 Eh    ::
         :: repulsion energy           1.730180042368 Eh    ::

    * Orbital Energies and Occupations

         #    Occupation            Energy/Eh            Energy/eV
      -------------------------------------------------------------
         1        2.0000           -0.7686181             -20.9152
       ...           ...                  ...                  ...
        91        2.0000           -0.4263124             -11.6006
        92        2.0000           -0.4156801             -11.3112
        93        2.0000           -0.4124740             -11.2240
        94        2.0000           -0.4116271             -11.2009
        95        2.0000           -0.4095311             -11.1439
        96        2.0000           -0.4081110             -11.1053
        97        2.0000           -0.4078160             -11.0972
        98        2.0000           -0.4058554             -11.0439
        99        2.0000           -0.4039007             -10.9907
       100        2.0000           -0.3988614             -10.8536
       101        2.0000           -0.3966306             -10.7929
       102        2.0000           -0.3952848             -10.7562
       103        2.0000           -0.3907563             -10.6330 (HOMO)
       104                         -0.2782278              -7.5710 (LUMO)
       105                         -0.2744490              -7.4681
       106                         -0.2554993              -6.9525
       107                         -0.2351930              -6.3999
       108                         -0.2303166              -6.2672
       109                         -0.2277869              -6.1984
       110                         -0.2267225              -6.1694
       111                         -0.2259441              -6.1483
       112                         -0.2253874              -6.1331
       113                         -0.2142819              -5.8309
       114                         -0.2112385              -5.7481
       ...                                ...                  ...
       192                          0.7199016              19.5895
      -------------------------------------------------------------
                  HL-Gap            0.1125285 Eh            3.0621 eV

     #   Z          covCN         q      C6AA      Î±(0)
     1   6 C        2.924    -0.032    28.804     8.801
     2   6 C        2.920    -0.027    28.679     8.782
     3   6 C        2.920    -0.029    28.714     8.787
     4   6 C        2.920    -0.026    28.640     8.776
     5   6 C        2.923    -0.027    28.670     8.781
     6   6 C        2.974     0.012    27.745     8.640
     7   6 C        3.830     0.044    19.822     6.335
     8   6 C        3.820     0.036    19.956     6.357
     9   6 C        2.972     0.004    27.926     8.668
    10   6 C        2.922    -0.033    28.830     8.805
    11   6 C        2.921    -0.026    28.664     8.780
    12   6 C        2.920    -0.031    28.762     8.795
    13   6 C        2.919    -0.028    28.701     8.785
    14   6 C        2.925    -0.037    28.926     8.820
    15   7 N        2.763    -0.103    23.261     7.163
    16   6 C        2.762     0.263    22.569     7.780
    17   6 C        3.096     0.094    25.807     8.326
    18   6 C        2.988    -0.052    29.284     8.877
    19   6 C        3.083    -0.009    28.159     8.699
    20   6 C        2.911    -0.032    28.808     8.801
    21   6 C        2.921    -0.036    28.888     8.814
    22   6 C        2.927    -0.030    28.760     8.795
    23   6 C        2.907    -0.050    29.247     8.868
    24   6 C        3.117     0.129    25.023     8.194
    25   8 O        1.720    -0.213    17.529     5.653
    26   8 O        0.860    -0.429    22.269     6.327
    27   6 C        3.772     0.089    19.137     6.234
    28   6 C        2.688     0.357    20.939     7.489
    29   8 O        1.659    -0.364    20.155     6.060
    30   8 O        0.856    -0.381    21.297     6.187
    31   7 N        2.761    -0.104    23.286     7.167
    32   6 C        2.761     0.265    22.536     7.774
    33   6 C        3.091     0.093    25.825     8.330
    34   6 C        2.988    -0.053    29.301     8.879
    35   6 C        3.082    -0.010    28.169     8.701
    36   6 C        3.113     0.130    25.019     8.194
    37   6 C        2.907    -0.051    29.254     8.869
    38   6 C        2.927    -0.031    28.770     8.796
    39   6 C        2.920    -0.036    28.895     8.815
    40   6 C        2.911    -0.033    28.828     8.804
    41   8 O        1.720    -0.221    17.670     5.676
    42   8 O        0.860    -0.430    22.287     6.329
    43   1 H        0.925     0.030     2.593     2.518
    44   1 H        0.926     0.036     2.508     2.476
    45   1 H        0.926     0.036     2.502     2.474
    46   1 H        0.926     0.038     2.472     2.459
    47   1 H        0.926     0.039     2.465     2.455
    48   1 H        0.924     0.058     2.217     2.329
    49   1 H        0.924     0.066     2.135     2.285
    50   1 H        0.926     0.047     2.353     2.399
    51   1 H        0.926     0.038     2.471     2.458
    52   1 H        0.926     0.035     2.511     2.478
    53   1 H        0.926     0.036     2.507     2.476
    54   1 H        0.926     0.032     2.565     2.504
    55   1 H        0.927     0.069     2.098     2.265
    56   1 H        0.926     0.046     2.374     2.409
    57   1 H        0.926     0.042     2.419     2.432
    58   1 H        0.926     0.044     2.395     2.420
    59   1 H        0.926     0.048     2.349     2.397
    60   1 H        0.923     0.117     1.636     2.000
    61   1 H        0.804     0.342     0.608     1.225
    62   1 H        0.927     0.067     2.118     2.276
    63   1 H        0.926     0.053     2.280     2.361
    64   1 H        0.926     0.045     2.388     2.416
    65   1 H        0.926     0.041     2.432     2.439
    66   1 H        0.926     0.044     2.395     2.420

Wiberg/Mayer (AO) data.
largest (>0.10) Wiberg bond orders for each atom

     #   Z sym  total        # sym  WBO       # sym  WBO       # sym  WBO
 ---------------------------------------------------------------------------
     1   6 C    3.992 --     2 C    1.449     6 C    1.409    43 H    0.969
                             4 C    0.112
     2   6 C    3.992 --     1 C    1.449     3 C    1.435    44 H    0.971
                             5 C    0.111
     3   6 C    3.991 --     4 C    1.442     2 C    1.435    45 H    0.971
                             6 C    0.110
     4   6 C    3.992 --     3 C    1.442     5 C    1.441    46 H    0.971
                             1 C    0.112
     5   6 C    3.990 --     4 C    1.441     6 C    1.417    47 H    0.968
                             2 C    0.111
     6   6 C    3.985 --     5 C    1.417     1 C    1.409     7 C    0.988
                             3 C    0.110
     7   6 C    3.963 --     6 C    0.988    31 N    0.959    48 H    0.955
                             8 C    0.949
     8   6 C    3.964 --     9 C    0.983    15 N    0.974     7 C    0.949
                            49 H    0.947
     9   6 C    3.985 --    10 C    1.423    14 C    1.403     8 C    0.983
                            12 C    0.110
    10   6 C    3.990 --    11 C    1.435     9 C    1.423    50 H    0.964
                            13 C    0.110
    11   6 C    3.992 --    12 C    1.447    10 C    1.435    51 H    0.971
                            14 C    0.113
    12   6 C    3.991 --    11 C    1.447    13 C    1.431    52 H    0.971
                             9 C    0.110
    13   6 C    3.992 --    14 C    1.453    12 C    1.431    53 H    0.971
                            10 C    0.110
    14   6 C    3.991 --    13 C    1.453     9 C    1.403    54 H    0.969
                            11 C    0.113
    15   7 N    3.466 --    16 C    1.192    27 C    0.985     8 C    0.974
                            26 O    0.185
    16   6 C    3.955 --    26 O    1.647    15 N    1.192    17 C    1.027
    17   6 C    3.913 --    18 C    1.575    25 O    1.072    16 C    1.027
    18   6 C    3.982 --    17 C    1.575    19 C    1.226    55 H    0.970
    19   6 C    3.986 --    20 C    1.321    24 C    1.265    18 C    1.226
    20   6 C    3.984 --    21 C    1.510    19 C    1.321    56 H    0.969
                            23 C    0.116
    21   6 C    3.990 --    20 C    1.510    22 C    1.374    57 H    0.971
    22   6 C    3.980 --    23 C    1.487    21 C    1.374    58 H    0.971
    23   6 C    3.988 --    22 C    1.487    24 C    1.349    59 H    0.967
                            20 C    0.116
    24   6 C    3.920 --    23 C    1.349    19 C    1.265    25 O    1.090
    25   8 O    2.396 --    24 C    1.090    17 C    1.072
    26   8 O    1.992 --    16 C    1.647    15 N    0.185
    27   6 C    3.964 --    31 N    0.993    15 N    0.985    60 H    0.913
                            28 C    0.913
    28   6 C    3.916 --    30 O    1.783    29 O    1.152    27 C    0.913
    29   8 O    2.218 --    28 C    1.152    61 H    0.857    30 O    0.181
    30   8 O    2.066 --    28 C    1.783    29 O    0.181
    31   7 N    3.463 --    32 C    1.199    27 C    0.993     7 C    0.959
                            42 O    0.187
    32   6 C    3.957 --    42 O    1.646    31 N    1.199    33 C    1.022
    33   6 C    3.913 --    34 C    1.581    41 O    1.070    32 C    1.022
    34   6 C    3.983 --    33 C    1.581    35 C    1.223    62 H    0.970
    35   6 C    3.986 --    40 C    1.322    36 C    1.267    34 C    1.223
    36   6 C    3.918 --    37 C    1.353    35 C    1.267    41 O    1.083
    37   6 C    3.987 --    38 C    1.485    36 C    1.353    63 H    0.967
                            40 C    0.116
    38   6 C    3.980 --    37 C    1.485    39 C    1.376    64 H    0.971
    39   6 C    3.991 --    40 C    1.508    38 C    1.376    65 H    0.971
    40   6 C    3.984 --    39 C    1.508    35 C    1.322    66 H    0.969
                            37 C    0.116
    41   8 O    2.387 --    36 C    1.083    33 C    1.070
    42   8 O    1.986 --    32 C    1.646    31 N    0.187
    43   1 H    0.999 --     1 C    0.969
    44   1 H    0.998 --     2 C    0.971
    45   1 H    0.998 --     3 C    0.971
    46   1 H    0.998 --     4 C    0.971
    47   1 H    0.998 --     5 C    0.968
    48   1 H    0.995 --     7 C    0.955
    49   1 H    0.995 --     8 C    0.947
    50   1 H    0.998 --    10 C    0.964
    51   1 H    0.998 --    11 C    0.971
    52   1 H    0.998 --    12 C    0.971
    53   1 H    0.998 --    13 C    0.971
    54   1 H    0.999 --    14 C    0.969
    55   1 H    0.995 --    18 C    0.970
    56   1 H    0.998 --    20 C    0.969
    57   1 H    0.998 --    21 C    0.971
    58   1 H    0.998 --    22 C    0.971
    59   1 H    0.997 --    23 C    0.967
    60   1 H    0.986 --    27 C    0.913
    61   1 H    0.883 --    29 O    0.857
    62   1 H    0.995 --    34 C    0.970
    63   1 H    0.997 --    37 C    0.967
    64   1 H    0.998 --    38 C    0.971
    65   1 H    0.998 --    39 C    0.971
    66   1 H    0.998 --    40 C    0.969
 ---------------------------------------------------------------------------

molecular dipole:
                 x           y           z       tot (Debye)
 q only:       -0.732      -0.528       0.047
   full:       -0.709      -0.473      -0.149       2.199

           -------------------------------------------------
          | TOTAL ENERGY             -115.346179460481 Eh   |
          | GRADIENT NORM               0.000874213646 Eh/Î± |
          | HOMO-LUMO GAP               3.062056405128 eV   |
           -------------------------------------------------

 * finished run on 2022/03/17 at 00:31:32.056
