   * xtb version 6.3.3 (4ae9cef) compiled by 'conda@95abc7406d43' on 2020-10-14
          program call               : xtb acid_105.xyz --opt --chrg 0 --uhf 0 --gfn 2
          number of atoms            :                    66
          number of electrons        :                   218
          charge                     :                     0
          spin                       :                   0.0

   ID    Z sym.   atoms
    1    6 C      1-22, 24-26, 29, 30, 32, 33, 37-39, 42, 43
    2    7 N      23, 36
    3   35 Br     27, 40
    4   16 S      28, 41
    5    8 O      31, 34, 35, 44
    6    1 H      45-66

          :  Hamiltonian                  GFN2-xTB          :
 * total energy  :  -120.8106288 Eh     change       -0.2148056E-08 Eh
 * total energy  :  -120.8269496 Eh     change       -0.1632088E-01 Eh
 * total energy  :  -120.8319029 Eh     change       -0.4953261E-02 Eh
 * total energy  :  -120.8333079 Eh     change       -0.1404973E-02 Eh
 * total energy  :  -120.8342945 Eh     change       -0.9866681E-03 Eh
 * total energy  :  -120.8348014 Eh     change       -0.5068820E-03 Eh
 * total energy  :  -120.8352515 Eh     change       -0.4500593E-03 Eh
 * total energy  :  -120.8355862 Eh     change       -0.3347749E-03 Eh
 * total energy  :  -120.8358009 Eh     change       -0.2146967E-03 Eh
 * total energy  :  -120.8359787 Eh     change       -0.1777429E-03 Eh
 * total energy  :  -120.8375745 Eh     change       -0.1424164E-04 Eh
 * total energy  :  -120.8375870 Eh     change       -0.1245957E-04 Eh
 * total energy  :  -120.8375970 Eh     change       -0.1002158E-04 Eh
 * total energy  :  -120.8376040 Eh     change       -0.7064559E-05 Eh
 * total energy  :  -120.8376116 Eh     change       -0.7560638E-05 Eh
 * total energy  :  -120.8376202 Eh     change       -0.8560200E-05 Eh
 * total energy  :  -120.8376281 Eh     change       -0.7924707E-05 Eh
 * total energy  :  -120.8376339 Eh     change       -0.5844878E-05 Eh
 * total energy  :  -120.8376387 Eh     change       -0.4740072E-05 Eh
   *** GEOMETRY OPTIMIZATION CONVERGED AFTER 60 ITERATIONS ***

 final structure:
================
66
 xtb: 6.3.3 (4ae9cef)
C        -1.42868516446356    1.64045563004506   -1.65313870258208
C        -2.33973795711270    2.65447483717271   -1.73485763881329
C        -3.29065166601678    2.85852859799054   -0.71356471479791
C        -4.26843453618283    3.87202483814240   -0.78595654087032
C        -5.17933536784947    4.03387801802992    0.21988235189518
C        -5.15259980840951    3.19398324320326    1.34490947456619
C        -4.21611455821425    2.20469844796401    1.44683894033410
C        -3.26619206615826    2.00802615421287    0.42268342786713
C        -2.30911722126439    0.97637193131704    0.48140924590799
C        -1.42058531720844    0.77505994136685   -0.54348384532709
C        -0.43309224161024   -0.35970863862924   -0.48869532773272
C         0.65774703740523   -0.12789696652764    0.57733568779959
C         1.97305841044050    0.30868765356839   -0.01239538340972
C         2.46272726165809    1.56378242685546    0.23055177364836
C         3.69546056514273    1.97932579977691   -0.31133900019063
C         4.22309546505455    3.26513953793659   -0.07042123798156
C         5.42735249369607    3.63513377163351   -0.60000903150197
C         6.15837267734035    2.73885231915304   -1.39590418744476
C         5.67329725963697    1.48634976697153   -1.64858604168451
C         4.43481289942805    1.07343118856579   -1.11568786904914
C         3.90447755393164   -0.21159225419802   -1.35321943206470
C         2.70420845432623   -0.58413161730001   -0.82079122523139
N         0.76885609705761   -1.41336501521459    1.26319893377888
C         1.52304701084379   -1.50610066687024    2.38584215720939
C         1.52694459967555   -2.85865488496205    3.02335550996040
C         2.42307165964514   -3.83497053364911    2.70662768903941
Br        3.72111910608845   -3.75279880886523    1.35302503996447
S         2.22835294996566   -5.25945047261527    3.67025278386000
C         0.93153161028112   -4.51939857358469    4.51786922792321
C         0.67292837183859   -3.26126126509823    4.08067850619048
O         2.15621369005024   -0.57334639486685    2.82476689429075
C        -0.18246137138493   -2.38006002237027    0.78202130382345
C         0.46181264537462   -3.49543705342342   -0.07532173406314
O         0.57227246311717   -4.63415577887478    0.58781041605625
O         0.80151625647554   -3.33307525828469   -1.21349604977609
N        -1.05335925885990   -1.60876969026436   -0.07425248445664
C        -2.12372385467938   -2.22596875618452   -0.63231169012770
C        -2.84417617912855   -1.42949800423003   -1.66587739303174
C        -4.09828924213609   -0.91812565894167   -1.50820542781156
Br       -5.15257761949203   -0.99780894785316    0.03255161253555
S        -4.65784299428692   -0.07868235700490   -2.91283561827007
C        -3.20142763233729   -0.46752855789242   -3.73799890436005
C        -2.33959077546856   -1.17576565162670   -2.96715439819726
O        -2.46251182806491   -3.34082230636647   -0.29383192093297
H        -0.70798338416937    1.48614711429776   -2.44290122125288
H        -2.34954184538282    3.31121885923783   -2.59260688209173
H        -4.28496247123575    4.51500674038726   -1.65424018961676
H        -5.92887070566402    4.80877320017254    0.15628948614224
H        -5.88236674929190    3.33471234678483    2.12802171832684
H        -4.19742717341195    1.54917372620272    2.30490504446076
H        -2.30843168044477    0.31993541292617    1.34078728668634
H         0.04419373351093   -0.48969625494467   -1.46939155002435
H         0.32854902801960    0.62245324059541    1.30869119612314
H         1.91049372671198    2.25223665528017    0.85421316600985
H         3.65782381375183    3.95028142442377    0.54494753731734
H         5.82755839886002    4.62024422114474   -0.40927174405834
H         7.10871778344103    3.04872449787826   -1.80548525822125
H         6.23232934129583    0.79159890670165   -2.25908359288525
H         4.46632397981442   -0.90393385765069   -1.96305644714484
H         2.31217868507653   -1.57055872633450   -1.01644737507342
H         0.43658038385010   -5.06164125409214    5.29827735472254
H        -0.09198230813357   -2.62743490799137    4.49127463313133
H        -0.74763777947104   -2.86048973266885    1.59379358128411
H         0.94840035709346   -5.33361140901250    0.02605897160458
H        -3.07231931574198   -0.14976703035332   -4.75305617781539
H        -1.38339469660917   -1.53320114118971   -3.30399371455567

          :  Hamiltonian                  GFN2-xTB          :
         :: total energy            -120.837638684668 Eh    ::
         :: gradient norm              0.000263237055 Eh/a0 ::
         :: HOMO-LUMO gap              2.740088830640 eV    ::
         :: SCC energy              -122.556034177187 Eh    ::
         :: -> dispersion             -0.113504951740 Eh    ::
         :: repulsion energy           1.715490097945 Eh    ::

    * Orbital Energies and Occupations

         #    Occupation            Energy/Eh            Energy/eV
      -------------------------------------------------------------
         1        2.0000           -0.8530582             -23.2129
       ...           ...                  ...                  ...
        97        2.0000           -0.4257182             -11.5844
        98        2.0000           -0.4252548             -11.5718
        99        2.0000           -0.4198736             -11.4253
       100        2.0000           -0.4186805             -11.3929
       101        2.0000           -0.4176092             -11.3637
       102        2.0000           -0.4148804             -11.2895
       103        2.0000           -0.4137128             -11.2577
       104        2.0000           -0.4080764             -11.1043
       105        2.0000           -0.4055990             -11.0369
       106        2.0000           -0.4053620             -11.0305
       107        2.0000           -0.4007153             -10.9040
       108        2.0000           -0.3915790             -10.6554
       109        2.0000           -0.3812765             -10.3751 (HOMO)
       110                         -0.2805801              -7.6350 (LUMO)
       111                         -0.2766609              -7.5283
       112                         -0.2731780              -7.4336
       113                         -0.2693583              -7.3296
       114                         -0.2625430              -7.1442
       115                         -0.2507031              -6.8220
       116                         -0.2489839              -6.7752
       117                         -0.2451296              -6.6703
       118                         -0.2327242              -6.3327
       119                         -0.2302380              -6.2651
       120                         -0.2241953              -6.1007
       ...                                ...                  ...
       218                          0.6949766              18.9113
      -------------------------------------------------------------
                  HL-Gap            0.1006964 Eh            2.7401 eV

     #   Z          covCN         q      C6AA      Î±(0)
     1   6 C        2.919    -0.039    28.979     8.828
     2   6 C        2.918    -0.034    28.848     8.808
     3   6 C        2.987     0.013    27.712     8.635
     4   6 C        2.918    -0.033    28.827     8.804
     5   6 C        2.916    -0.026    28.649     8.777
     6   6 C        2.916    -0.025    28.635     8.775
     7   6 C        2.918    -0.031    28.764     8.795
     8   6 C        2.987     0.016    27.641     8.624
     9   6 C        2.923    -0.040    28.990     8.830
    10   6 C        2.970    -0.006    28.176     8.707
    11   6 C        3.818     0.040    19.891     6.347
    12   6 C        3.826     0.049    19.742     6.322
    13   6 C        2.969     0.004    27.938     8.670
    14   6 C        2.922    -0.034    28.855     8.809
    15   6 C        2.987     0.017    27.627     8.622
    16   6 C        2.918    -0.033    28.822     8.804
    17   6 C        2.916    -0.029    28.716     8.787
    18   6 C        2.916    -0.029    28.718     8.788
    19   6 C        2.918    -0.034    28.836     8.806
    20   6 C        2.987     0.015    27.676     8.630
    21   6 C        2.918    -0.032    28.806     8.801
    22   6 C        2.919    -0.037    28.923     8.819
    23   7 N        2.764    -0.114    23.486     7.198
    24   6 C        2.762     0.280    22.257     7.726
    25   6 C        3.197    -0.040    28.425     8.691
    26   6 C        2.941     0.074    26.337     8.417
    27  35 Br       1.126    -0.127   188.539    22.139
    28  16 S        2.432     0.039   139.468    19.877
    29   6 C        2.939    -0.025    28.635     8.776
    30   6 C        3.117    -0.042    28.875     8.801
    31   8 O        0.859    -0.405    21.781     6.257
    32   6 C        3.763     0.099    18.997     6.213
    33   6 C        2.689     0.361    20.871     7.477
    34   8 O        1.659    -0.355    19.991     6.036
    35   8 O        0.856    -0.383    21.342     6.194
    36   7 N        2.770    -0.112    23.433     7.190
    37   6 C        2.765     0.282    22.233     7.722
    38   6 C        3.199    -0.033    28.254     8.663
    39   6 C        2.940     0.078    26.257     8.404
    40  35 Br       1.141    -0.111   188.100    22.114
    41  16 S        2.448     0.030   139.846    19.903
    42   6 C        2.938    -0.026    28.660     8.780
    43   6 C        3.117    -0.043    28.905     8.806
    44   8 O        0.859    -0.423    22.152     6.310
    45   1 H        0.926     0.030     2.583     2.514
    46   1 H        0.926     0.039     2.465     2.455
    47   1 H        0.926     0.035     2.513     2.479
    48   1 H        0.926     0.037     2.493     2.469
    49   1 H        0.926     0.039     2.464     2.455
    50   1 H        0.926     0.041     2.429     2.437
    51   1 H        0.925     0.037     2.493     2.469
    52   1 H        0.923     0.057     2.234     2.337
    53   1 H        0.923     0.060     2.199     2.319
    54   1 H        0.926     0.037     2.490     2.467
    55   1 H        0.926     0.034     2.525     2.485
    56   1 H        0.926     0.033     2.549     2.497
    57   1 H        0.926     0.033     2.549     2.497
    58   1 H        0.926     0.035     2.519     2.482
    59   1 H        0.926     0.041     2.436     2.441
    60   1 H        0.926     0.046     2.369     2.407
    61   1 H        0.926     0.065     2.141     2.288
    62   1 H        0.926     0.055     2.254     2.348
    63   1 H        0.923     0.078     1.998     2.211
    64   1 H        0.804     0.352     0.585     1.201
    65   1 H        0.926     0.063     2.158     2.297
    66   1 H        0.926     0.059     2.213     2.326

Wiberg/Mayer (AO) data.
largest (>0.10) Wiberg bond orders for each atom

     #   Z sym  total        # sym  WBO       # sym  WBO       # sym  WBO
 ---------------------------------------------------------------------------
     1   6 C    3.991 --     2 C    1.559    10 C    1.297    45 H    0.968
     2   6 C    3.991 --     1 C    1.559     3 C    1.279    46 H    0.968
                             9 C    0.115
     3   6 C    3.990 --     4 C    1.280     2 C    1.279     8 C    1.249
     4   6 C    3.992 --     5 C    1.558     3 C    1.280    47 H    0.968
                             7 C    0.118
     5   6 C    3.989 --     4 C    1.558     6 C    1.319    48 H    0.971
     6   6 C    3.992 --     7 C    1.559     5 C    1.319    49 H    0.971
     7   6 C    3.990 --     6 C    1.559     8 C    1.276    50 H    0.967
                             4 C    0.118
     8   6 C    3.990 --     9 C    1.285     7 C    1.276     3 C    1.249
     9   6 C    3.991 --    10 C    1.521     8 C    1.285    51 H    0.965
                             2 C    0.115
    10   6 C    3.984 --     9 C    1.521     1 C    1.297    11 C    0.990
    11   6 C    3.959 --    10 C    0.990    36 N    0.957    12 C    0.955
                            52 H    0.951
    12   6 C    3.955 --    13 C    0.988    11 C    0.955    53 H    0.954
                            23 N    0.948
    13   6 C    3.983 --    14 C    1.527    22 C    1.294    12 C    0.988
    14   6 C    3.989 --    13 C    1.527    15 C    1.281    54 H    0.965
                            21 C    0.115
    15   6 C    3.990 --    14 C    1.281    16 C    1.279    20 C    1.251
    16   6 C    3.990 --    17 C    1.558    15 C    1.279    55 H    0.968
                            19 C    0.118
    17   6 C    3.992 --    16 C    1.558    18 C    1.321    56 H    0.971
    18   6 C    3.990 --    19 C    1.557    17 C    1.321    57 H    0.971
    19   6 C    3.992 --    18 C    1.557    20 C    1.281    58 H    0.968
                            16 C    0.118
    20   6 C    3.990 --    19 C    1.281    21 C    1.277    15 C    1.251
    21   6 C    3.991 --    22 C    1.563    20 C    1.277    59 H    0.968
                            14 C    0.115
    22   6 C    3.990 --    21 C    1.563    13 C    1.294    60 H    0.963
    23   7 N    3.470 --    24 C    1.215    32 C    0.986    12 C    0.948
                            31 O    0.197
    24   6 C    3.951 --    31 O    1.703    23 N    1.215    25 C    0.947
    25   6 C    3.979 --    26 C    1.546    30 C    1.240    24 C    0.947
    26   6 C    3.906 --    25 C    1.546    28 S    1.168    27 Br   1.018
                            29 C    0.106
    27  35 Br   1.173 --    26 C    1.018
    28  16 S    2.646 --    29 C    1.196    26 C    1.168
    29   6 C    3.949 --    30 C    1.628    28 S    1.196    61 H    0.967
                            26 C    0.106
    30   6 C    3.985 --    29 C    1.628    25 C    1.240    62 H    0.962
    31   8 O    2.042 --    24 C    1.703    23 N    0.197
    32   6 C    3.965 --    23 N    0.986    36 N    0.981    63 H    0.945
                            33 C    0.902
    33   6 C    3.919 --    35 O    1.778    34 O    1.172    32 C    0.902
    34   8 O    2.235 --    33 C    1.172    64 H    0.849    35 O    0.185
    35   8 O    2.065 --    33 C    1.778    34 O    0.185
    36   7 N    3.466 --    37 C    1.215    32 C    0.981    11 C    0.957
                            44 O    0.192
    37   6 C    3.950 --    44 O    1.686    36 N    1.215    38 C    0.959
    38   6 C    3.980 --    39 C    1.542    43 C    1.234    37 C    0.959
    39   6 C    3.910 --    38 C    1.542    41 S    1.171    40 Br   1.023
                            42 C    0.103
    40  35 Br   1.184 --    39 C    1.023
    41  16 S    2.645 --    42 C    1.191    39 C    1.171
    42   6 C    3.948 --    43 C    1.632    41 S    1.191    65 H    0.968
                            39 C    0.103
    43   6 C    3.985 --    42 C    1.632    38 C    1.234    66 H    0.961
    44   8 O    2.021 --    37 C    1.686    36 N    0.192
    45   1 H    0.999 --     1 C    0.968
    46   1 H    0.998 --     2 C    0.968
    47   1 H    0.998 --     4 C    0.968
    48   1 H    0.998 --     5 C    0.971
    49   1 H    0.998 --     6 C    0.971
    50   1 H    0.998 --     7 C    0.967
    51   1 H    0.998 --     9 C    0.965
    52   1 H    0.996 --    11 C    0.951
    53   1 H    0.996 --    12 C    0.954
    54   1 H    0.998 --    14 C    0.965
    55   1 H    0.998 --    16 C    0.968
    56   1 H    0.998 --    17 C    0.971
    57   1 H    0.998 --    18 C    0.971
    58   1 H    0.998 --    19 C    0.968
    59   1 H    0.997 --    21 C    0.968
    60   1 H    0.997 --    22 C    0.963
    61   1 H    0.993 --    29 C    0.967
    62   1 H    0.997 --    30 C    0.962
    63   1 H    0.993 --    32 C    0.945
    64   1 H    0.876 --    34 O    0.849
    65   1 H    0.995 --    42 C    0.968
    66   1 H    0.997 --    43 C    0.961
 ---------------------------------------------------------------------------

molecular dipole:
                 x           y           z       tot (Debye)
 q only:       -0.386       0.853      -0.574
   full:       -0.279       0.750      -0.607       2.553

           -------------------------------------------------
          | TOTAL ENERGY             -120.837638684668 Eh   |
          | GRADIENT NORM               0.000263237055 Eh/Î± |
          | HOMO-LUMO GAP               2.740088830640 eV   |
           -------------------------------------------------

 * finished run on 2022/03/16 at 21:22:26.338
