   * xtb version 6.3.3 (4ae9cef) compiled by 'conda@95abc7406d43' on 2020-10-14
          program call               : xtb acid_260.xyz --opt --chrg 0 --uhf 0 --gfn 2
          number of atoms            :                    50
          number of electrons        :                   144
          charge                     :                     0
          spin                       :                   0.0

   ID    Z sym.   atoms
    1    6 C      1-7, 9, 10, 14-20, 22-27
    2    7 N      8, 13
    3    8 O      11, 12, 21, 28
    4    1 H      29-50

          :  Hamiltonian                  GFN2-xTB          :
 * total energy  :   -80.4745281 Eh     change       -0.4878885E-08 Eh
 * total energy  :   -80.4847355 Eh     change       -0.1020740E-01 Eh
 * total energy  :   -80.4872377 Eh     change       -0.2502142E-02 Eh
 * total energy  :   -80.4877502 Eh     change       -0.5125419E-03 Eh
 * total energy  :   -80.4880335 Eh     change       -0.2833173E-03 Eh
 * total energy  :   -80.4881943 Eh     change       -0.1607609E-03 Eh
 * total energy  :   -80.4883363 Eh     change       -0.1420416E-03 Eh
 * total energy  :   -80.4884553 Eh     change       -0.1189825E-03 Eh
 * total energy  :   -80.4885491 Eh     change       -0.9379155E-04 Eh
 * total energy  :   -80.4886154 Eh     change       -0.6630151E-04 Eh
 * total energy  :   -80.4912382 Eh     change       -0.7121493E-05 Eh
 * total energy  :   -80.4912448 Eh     change       -0.6651106E-05 Eh
 * total energy  :   -80.4912518 Eh     change       -0.7042188E-05 Eh
 * total energy  :   -80.4912584 Eh     change       -0.6562480E-05 Eh
 * total energy  :   -80.4912644 Eh     change       -0.6029400E-05 Eh
 * total energy  :   -80.4912704 Eh     change       -0.6003254E-05 Eh
 * total energy  :   -80.4912765 Eh     change       -0.6039064E-05 Eh
 * total energy  :   -80.4912822 Eh     change       -0.5675882E-05 Eh
 * total energy  :   -80.4912871 Eh     change       -0.4955894E-05 Eh
   *** GEOMETRY OPTIMIZATION CONVERGED AFTER 54 ITERATIONS ***

 final structure:
================
50
 xtb: 6.3.3 (4ae9cef)
C         3.03346488003565   -0.15422707279811   -2.03264956608411
C         4.27484093520723   -0.54536062609030   -2.50079521710602
C         5.42629977921029   -0.11898334980768   -1.85907159971399
C         5.33731820831889    0.71765769001878   -0.75866412368654
C         4.09917322859634    1.12555055890144   -0.29706827525166
C         2.94061795814996    0.67528121149478   -0.91967334972434
C         1.62261722900952    1.17805812567853   -0.45768816007251
N         0.60536903872214    0.29136358844700   -0.36800739159147
C        -0.70871193843146    0.84620402234611   -0.08373388044250
C        -0.60424262893153    2.00471948012125    0.92993378977389
O         0.05822851179145    1.62572029856658    2.03038651655187
O        -1.18918040935201    3.04443139905651    0.82672710543886
N        -1.47394088352453   -0.26260258045986    0.45100302937024
C        -2.72655703086209   -0.15461279082187    0.98717339425825
C        -3.52885212336964    1.00009726177746    0.49178259022653
C        -3.75738953972814    1.18301163701559   -0.86725818403490
C        -4.53372366990032    2.24131133048502   -1.30139886644495
C        -5.08048970658530    3.12372658392104   -0.38475738374624
C        -4.87078582223126    2.93284386986626    0.96995243530240
C        -4.10733662193814    1.86711436771285    1.40954871048559
O        -3.15907045604785   -0.97087970441694    1.77444306377611
C        -0.54062153089457   -1.29534479663615    0.87289035241226
C         0.59222616096923   -1.14275737684517   -0.14469340068984
C         1.84503359653629   -1.80816571797518    0.41587177817368
C         1.43583867352256   -3.06905303649547    1.20337171056780
C         0.14031428437254   -3.68146042129315    0.66736209608156
C        -1.05508062634027   -2.72915731526383    0.85275824161041
O         1.41854916446568    2.36172117546316   -0.22873378816129
H         2.13547172947748   -0.47083920331790   -2.54224960036241
H         4.34491514917462   -1.18215405721416   -3.37034052813085
H         6.39348465602071   -0.43062280508068   -2.22437134063622
H         6.23497107994676    1.05997271617142   -0.26599713254316
H         4.01469872200529    1.79291676059328    0.54715052647859
H        -1.16183331993765    1.25901412096293   -0.99577189366426
H         0.10287517177604    2.36650756485462    2.65496384071710
H        -3.34463312097020    0.48352222994313   -1.58093757760206
H        -4.71030803442474    2.37965838322405   -2.35800278941444
H        -5.67535739853548    3.95710165431640   -0.72796263455080
H        -5.30419489367676    3.61467689694254    1.68609796032928
H        -3.94558426872597    1.70290176101558    2.46436819377026
H        -0.16481284147844   -1.04235137473492    1.87362128613381
H         0.29211028691564   -1.63168123989553   -1.08207426427434
H         2.36874262343662   -1.11390342964130    1.07425332970437
H         2.52443706174115   -2.07623217678970   -0.39328628372362
H         2.23964530921613   -3.80381062836070    1.14407601896233
H         1.29707279557841   -2.82424949525908    2.25696742695541
H        -0.05852334266750   -4.61904783824358    1.18678024866942
H         0.27437030632399   -3.91872939709071   -0.38951743513278
H        -1.58450603444148   -2.93802606139587    1.78042380734142
H        -1.76694729752375   -2.85082919296645    0.03565821368963

          :  Hamiltonian                  GFN2-xTB          :
         :: total energy             -80.491287109542 Eh    ::
         :: gradient norm              0.000228234992 Eh/a0 ::
         :: HOMO-LUMO gap              3.388183838276 eV    ::
         :: SCC energy               -81.621675327912 Eh    ::
         :: -> dispersion             -0.062467252290 Eh    ::
         :: repulsion energy           1.129444913222 Eh    ::

    * Orbital Energies and Occupations

         #    Occupation            Energy/Eh            Energy/eV
      -------------------------------------------------------------
         1        2.0000           -0.7501097             -20.4115
       ...           ...                  ...                  ...
        60        2.0000           -0.4413798             -12.0106
        61        2.0000           -0.4409297             -11.9983
        62        2.0000           -0.4399321             -11.9712
        63        2.0000           -0.4359032             -11.8615
        64        2.0000           -0.4252910             -11.5728
        65        2.0000           -0.4237138             -11.5298
        66        2.0000           -0.4220899             -11.4857
        67        2.0000           -0.4098913             -11.1537
        68        2.0000           -0.4077567             -11.0956
        69        2.0000           -0.4064586             -11.0603
        70        2.0000           -0.4051561             -11.0249
        71        2.0000           -0.3935588             -10.7093
        72        2.0000           -0.3893122             -10.5937 (HOMO)
        73                         -0.2647987              -7.2055 (LUMO)
        74                         -0.2448850              -6.6637
        75                         -0.2420304              -6.5860
        76                         -0.2371941              -6.4544
        77                         -0.2245603              -6.1106
        78                         -0.2057628              -5.5991
        79                         -0.1970750              -5.3627
        80                         -0.1085164              -2.9529
        81                         -0.0935024              -2.5443
        82                         -0.0434359              -1.1820
        83                         -0.0201916              -0.5494
       ...                                ...                  ...
       134                          0.6714098              18.2700
      -------------------------------------------------------------
                  HL-Gap            0.1245135 Eh            3.3882 eV

     #   Z          covCN         q      C6AA      Î±(0)
     1   6 C        2.922    -0.028    28.707     8.786
     2   6 C        2.919    -0.027    28.681     8.782
     3   6 C        2.920    -0.025    28.627     8.774
     4   6 C        2.919    -0.026    28.641     8.776
     5   6 C        2.924    -0.019    28.479     8.751
     6   6 C        2.975    -0.011    28.275     8.722
     7   6 C        2.774     0.270    22.441     7.759
     8   7 N        2.765    -0.115    23.515     7.202
     9   6 C        3.790     0.093    19.049     6.216
    10   6 C        2.688     0.367    20.773     7.459
    11   8 O        1.659    -0.375    20.366     6.092
    12   8 O        0.856    -0.392    21.522     6.220
    13   7 N        2.763    -0.132    23.856     7.254
    14   6 C        2.762     0.270    22.439     7.758
    15   6 C        2.977    -0.017    28.441     8.748
    16   6 C        2.923    -0.028    28.709     8.787
    17   6 C        2.920    -0.024    28.613     8.772
    18   6 C        2.921    -0.022    28.566     8.765
    19   6 C        2.920    -0.021    28.528     8.759
    20   6 C        2.925    -0.015    28.388     8.738
    21   8 O        0.859    -0.420    22.079     6.300
    22   6 C        3.847     0.051    19.682     6.310
    23   6 C        3.831     0.041    19.864     6.341
    24   6 C        3.805    -0.065    21.738     6.637
    25   6 C        3.803    -0.063    21.711     6.634
    26   6 C        3.804    -0.065    21.738     6.638
    27   6 C        3.805    -0.066    21.770     6.642
    28   8 O        0.862    -0.428    22.244     6.323
    29   1 H        0.926     0.035     2.511     2.478
    30   1 H        0.926     0.040     2.451     2.448
    31   1 H        0.926     0.041     2.436     2.441
    32   1 H        0.926     0.043     2.410     2.428
    33   1 H        0.926     0.051     2.304     2.374
    34   1 H        0.923     0.069     2.097     2.264
    35   1 H        0.804     0.339     0.615     1.231
    36   1 H        0.926     0.028     2.610     2.526
    37   1 H        0.926     0.038     2.475     2.460
    38   1 H        0.926     0.040     2.451     2.448
    39   1 H        0.926     0.042     2.421     2.433
    40   1 H        0.926     0.043     2.404     2.424
    41   1 H        0.923     0.054     2.276     2.359
    42   1 H        0.923     0.048     2.340     2.392
    43   1 H        0.924     0.044     2.393     2.419
    44   1 H        0.925     0.043     2.403     2.424
    45   1 H        0.924     0.044     2.400     2.423
    46   1 H        0.924     0.045     2.388     2.417
    47   1 H        0.925     0.047     2.361     2.403
    48   1 H        0.924     0.038     2.480     2.463
    49   1 H        0.925     0.070     2.087     2.259
    50   1 H        0.924     0.049     2.331     2.387

Wiberg/Mayer (AO) data.
largest (>0.10) Wiberg bond orders for each atom

     #   Z sym  total        # sym  WBO       # sym  WBO       # sym  WBO
 ---------------------------------------------------------------------------
     1   6 C    3.991 --     2 C    1.448     6 C    1.392    29 H    0.969
                             4 C    0.110
     2   6 C    3.992 --     1 C    1.448     3 C    1.435    30 H    0.970
                             5 C    0.109
     3   6 C    3.991 --     4 C    1.438     2 C    1.435    31 H    0.971
                             6 C    0.107
     4   6 C    3.991 --     5 C    1.447     3 C    1.438    32 H    0.970
                             1 C    0.110
     5   6 C    3.989 --     4 C    1.447     6 C    1.400    33 H    0.968
                             2 C    0.109
     6   6 C    3.987 --     5 C    1.400     1 C    1.392     7 C    0.986
                             3 C    0.107
     7   6 C    3.943 --    28 O    1.634     8 N    1.230     6 C    0.986
     8   7 N    3.468 --     7 C    1.230     9 C    0.975    23 C    0.963
                            28 O    0.184
     9   6 C    3.965 --    13 N    0.979     8 N    0.975    34 H    0.946
                            10 C    0.910
    10   6 C    3.924 --    12 O    1.769    11 O    1.127     9 C    0.910
    11   8 O    2.190 --    10 C    1.127    35 H    0.861    12 O    0.167
    12   8 O    2.059 --    10 C    1.769    11 O    0.167
    13   7 N    3.432 --    14 C    1.185     9 C    0.979    22 C    0.962
                            21 O    0.181
    14   6 C    3.944 --    21 O    1.697    13 N    1.185    15 C    0.975
    15   6 C    3.988 --    20 C    1.405    16 C    1.397    14 C    0.975
                            18 C    0.109
    16   6 C    3.992 --    17 C    1.449    15 C    1.397    36 H    0.969
                            19 C    0.111
    17   6 C    3.992 --    16 C    1.449    18 C    1.434    37 H    0.970
                            20 C    0.110
    18   6 C    3.992 --    19 C    1.441    17 C    1.434    38 H    0.971
                            15 C    0.109
    19   6 C    3.991 --    20 C    1.443    18 C    1.441    39 H    0.970
                            16 C    0.111
    20   6 C    3.990 --    19 C    1.443    15 C    1.405    40 H    0.969
                            17 C    0.110
    21   8 O    2.019 --    14 C    1.697    13 N    0.181
    22   6 C    3.965 --    27 C    0.994    23 C    0.973    13 N    0.962
                            41 H    0.954
    23   6 C    3.965 --    24 C    0.995    22 C    0.973     8 N    0.963
                            42 H    0.955
    24   6 C    3.993 --    25 C    0.997    23 C    0.995    44 H    0.976
                            43 H    0.975
    25   6 C    3.994 --    26 C    1.011    24 C    0.997    46 H    0.979
                            45 H    0.978
    26   6 C    3.995 --    25 C    1.011    27 C    0.999    48 H    0.979
                            47 H    0.978
    27   6 C    3.988 --    26 C    0.999    22 C    0.994    50 H    0.977
                            49 H    0.975
    28   8 O    2.052 --     7 C    1.634     8 N    0.184
    29   1 H    0.999 --     1 C    0.969
    30   1 H    0.998 --     2 C    0.970
    31   1 H    0.998 --     3 C    0.971
    32   1 H    0.998 --     4 C    0.970
    33   1 H    0.997 --     5 C    0.968
    34   1 H    0.994 --     9 C    0.946
    35   1 H    0.885 --    11 O    0.861
    36   1 H    0.999 --    16 C    0.969
    37   1 H    0.998 --    17 C    0.970
    38   1 H    0.998 --    18 C    0.971
    39   1 H    0.998 --    19 C    0.970
    40   1 H    0.998 --    20 C    0.969
    41   1 H    0.997 --    22 C    0.954
    42   1 H    0.997 --    23 C    0.955
    43   1 H    0.998 --    24 C    0.975
    44   1 H    0.998 --    24 C    0.976
    45   1 H    0.998 --    25 C    0.978
    46   1 H    0.998 --    25 C    0.979
    47   1 H    0.997 --    26 C    0.978
    48   1 H    0.999 --    26 C    0.979
    49   1 H    0.995 --    27 C    0.975
    50   1 H    0.998 --    27 C    0.977
 ---------------------------------------------------------------------------

molecular dipole:
                 x           y           z       tot (Debye)
 q only:        1.423      -1.567      -0.513
   full:        1.606      -1.401      -0.571       5.609

           -------------------------------------------------
          | TOTAL ENERGY              -80.491287109542 Eh   |
          | GRADIENT NORM               0.000228234992 Eh/Î± |
          | HOMO-LUMO GAP               3.388183838276 eV   |
           -------------------------------------------------

 * finished run on 2022/03/16 at 23:07:05.001
