   * xtb version 6.3.3 (4ae9cef) compiled by 'conda@95abc7406d43' on 2020-10-14
          program call               : xtb acid_268.xyz --opt --chrg 0 --uhf 0 --gfn 2
          number of atoms            :                    68
          number of electrons        :                   214
          charge                     :                     0
          spin                       :                   0.0

   ID    Z sym.   atoms
    1    6 C      1, 3-16, 18, 20-22, 24-27, 29, 30, 34-40
    2    8 O      2, 17, 28, 31, 32, 42
    3    7 N      19, 33
    4   35 Br     23, 41
    5    1 H      43-68

          :  Hamiltonian                  GFN2-xTB          :
 * total energy  :  -120.2147346 Eh     change       -0.1590735E-08 Eh
 * total energy  :  -120.2296896 Eh     change       -0.1495502E-01 Eh
 * total energy  :  -120.2342807 Eh     change       -0.4591064E-02 Eh
 * total energy  :  -120.2356632 Eh     change       -0.1382473E-02 Eh
 * total energy  :  -120.2365201 Eh     change       -0.8569104E-03 Eh
 * total energy  :  -120.2369965 Eh     change       -0.4763830E-03 Eh
 * total energy  :  -120.2374515 Eh     change       -0.4550551E-03 Eh
 * total energy  :  -120.2379608 Eh     change       -0.5093143E-03 Eh
 * total energy  :  -120.2384486 Eh     change       -0.4877618E-03 Eh
 * total energy  :  -120.2388188 Eh     change       -0.3701466E-03 Eh
 * total energy  :  -120.2427220 Eh     change       -0.2163081E-04 Eh
 * total energy  :  -120.2427464 Eh     change       -0.2448063E-04 Eh
 * total energy  :  -120.2427768 Eh     change       -0.3035467E-04 Eh
 * total energy  :  -120.2427820 Eh     change       -0.5158519E-05 Eh
 * total energy  :  -120.2427928 Eh     change       -0.1084908E-04 Eh
 * total energy  :  -120.2428098 Eh     change       -0.1702068E-04 Eh
 * total energy  :  -120.2428239 Eh     change       -0.1403367E-04 Eh
 * total energy  :  -120.2428323 Eh     change       -0.8407688E-05 Eh
 * total energy  :  -120.2428372 Eh     change       -0.4936396E-05 Eh
   *** GEOMETRY OPTIMIZATION CONVERGED AFTER 99 ITERATIONS ***

 final structure:
================
68
 xtb: 6.3.3 (4ae9cef)
C         2.00447512308781   -2.91986133716277    0.41274366639791
O         1.55242659700721   -3.39195430139591   -0.78180280923366
C         1.97313552921397   -4.66403339177757   -1.20742667224653
C         2.81366399338402   -3.63642597944490    1.28659333709809
C         3.20016404323309   -3.08294095689608    2.49533754373253
C         2.78162823631242   -1.81625208923018    2.85371477851172
C         1.97424693530789   -1.09978673402586    1.98842656973074
C         1.59234028651470   -1.62906978495163    0.76838582658861
C         0.67748322816447   -0.86410260480510   -0.14685554149658
C        -0.75921915120408   -0.82927638174474    0.41501406886970
C        -1.62070306458119   -1.87989583136744   -0.23095321220073
C        -2.29515532616568   -1.65775201726848   -1.41664400780435
C        -3.05134122389364   -2.66208304914692   -1.99808033335501
C        -3.12031165304304   -3.90086887425972   -1.39230739413990
C        -2.43308239576412   -4.14789482866422   -0.21503852734935
C        -1.67617118903810   -3.14419779591147    0.37424594615625
O        -0.95017955204098   -3.29235277200765    1.51969743201507
C        -0.93808201013987   -4.54553496469177    2.15504344533380
N        -1.19433486925785    0.53966744406147    0.17946518060817
C        -2.43838169873910    0.96324503739850    0.50133259190347
C        -2.69734539983082    2.40695021442408    0.16228864795540
C        -2.30281903129779    3.43885713644605    1.00286758126149
Br       -1.31791543502099    3.03686145980753    2.58613041489007
C        -2.58927305330503    4.76026737937334    0.70980188654153
C        -3.28841114745345    5.05691090050989   -0.44703849806768
C        -3.69799141964068    4.04051250261826   -1.29444012042652
C        -3.40914010903210    2.72185102477220   -0.98823385222176
O        -3.28163617766178    0.25225863193927    0.99735791617364
C        -0.13877042401243    1.37554660708833   -0.32981572460602
C        -0.42074389458200    1.78135659925814   -1.79460513248917
O        -0.13985493871998    3.06844319367887   -1.99708948545036
O        -0.83752755214995    1.04589721447810   -2.64068142302142
N         1.03568560980495    0.54550083153653   -0.24534742944637
C         2.31324399192747    0.96493183838416   -0.42977750225944
C         2.48758201845745    2.45659615840997   -0.37083130214902
C         2.41045836263637    3.10558672864877    0.85687891583240
C         2.63946726761820    4.46664576698622    0.94705958460485
C         2.95484043063108    5.19345910340816   -0.18963868613817
C         3.03929346978512    4.56295166989066   -1.41785610540678
C         2.80873535493027    3.19975619537328   -1.49696313545293
Br        2.87705003706919    2.34701167570171   -3.19912117332487
O         3.24905566338501    0.21177601685660   -0.57071294320534
H         1.63553791987908   -5.45045019305242   -0.52371424639758
H         3.06141508652811   -4.71455962609514   -1.31169853102174
H         1.50997276376229   -4.81404973788873   -2.18155883854752
H         3.15036203934463   -4.62983055927715    1.03521132233729
H         3.83167390656107   -3.65424796545763    3.15971082625486
H         3.07874151903093   -1.38825119973868    3.79868426996441
H         1.63657629750281   -0.11056524720894    2.26313985652630
H         0.68533527918812   -1.32255588054456   -1.14265319800424
H        -0.74725463671350   -1.01135119366492    1.49710077009761
H        -2.22003104409895   -0.69499400853548   -1.89782668590725
H        -3.57853065085082   -2.47523707472457   -2.92085942361779
H        -3.70775174650551   -4.69133409280897   -1.83581556544748
H        -2.49662905934984   -5.12639756510061    0.23443364264884
H        -0.27600176761342   -4.43011998943092    3.01207425002666
H        -1.93586682467523   -4.83326907498044    2.50126407852105
H        -0.54232768152566   -5.32609154075594    1.49699127311509
H        -2.27140645328403    5.54296633513482    1.38117956873368
H        -3.51775072665928    6.08548348344306   -0.67961640791335
H        -4.24961423167964    4.27392681287391   -2.19203296365035
H        -3.73511553064494    1.92104032224107   -1.63470258773820
H        -0.00510578639262    2.30029804894641    0.24909705487616
H        -0.25687400415948    3.30554659231419   -2.93341783313940
H         2.17357669342251    2.53426599626985    1.74227031838214
H         2.57182706937047    4.95733378973481    1.90545428864932
H         3.13628739615502    6.25524462853679   -0.12356524046303
H         3.28236671149826    5.11863830349442   -2.31027332098665

          :  Hamiltonian                  GFN2-xTB          :
         :: total energy            -120.242837200564 Eh    ::
         :: gradient norm              0.000593363397 Eh/a0 ::
         :: HOMO-LUMO gap              2.638646596934 eV    ::
         :: SCC energy              -121.881470320441 Eh    ::
         :: -> dispersion             -0.105948508471 Eh    ::
         :: repulsion energy           1.634441015365 Eh    ::

    * Orbital Energies and Occupations

         #    Occupation            Energy/Eh            Energy/eV
      -------------------------------------------------------------
         1        2.0000           -0.8497701             -23.1234
       ...           ...                  ...                  ...
        95        2.0000           -0.4245023             -11.5513
        96        2.0000           -0.4218675             -11.4796
        97        2.0000           -0.4162389             -11.3264
        98        2.0000           -0.4152399             -11.2993
        99        2.0000           -0.4116667             -11.2020
       100        2.0000           -0.4086791             -11.1207
       101        2.0000           -0.4065159             -11.0619
       102        2.0000           -0.4050148             -11.0210
       103        2.0000           -0.4025039             -10.9527
       104        2.0000           -0.3974200             -10.8143
       105        2.0000           -0.3958402             -10.7714
       106        2.0000           -0.3804026             -10.3513
       107        2.0000           -0.3728127             -10.1447 (HOMO)
       108                         -0.2758442              -7.5061 (LUMO)
       109                         -0.2626229              -7.1463
       110                         -0.2613045              -7.1105
       111                         -0.2605462              -7.0898
       112                         -0.2563379              -6.9753
       113                         -0.2325502              -6.3280
       114                         -0.2279193              -6.2020
       115                         -0.2255355              -6.1371
       116                         -0.2189381              -5.9576
       117                         -0.2127122              -5.7882
       118                         -0.2117223              -5.7613
       ...                                ...                  ...
       204                          0.6735218              18.3275
      -------------------------------------------------------------
                  HL-Gap            0.0969685 Eh            2.6386 eV

     #   Z          covCN         q      C6AA      Î±(0)
     1   6 C        2.868     0.149    24.767     8.158
     2   8 O        1.705    -0.269    18.468     5.802
     3   6 C        3.644     0.040    20.241     6.467
     4   6 C        2.918    -0.064    29.583     8.919
     5   6 C        2.921    -0.031    28.766     8.795
     6   6 C        2.918    -0.039    28.965     8.826
     7   6 C        2.925    -0.028    28.695     8.785
     8   6 C        2.975    -0.004    28.109     8.697
     9   6 C        3.826     0.048    19.746     6.323
    10   6 C        3.825     0.047    19.769     6.327
    11   6 C        2.974    -0.009    28.232     8.716
    12   6 C        2.923    -0.030    28.747     8.793
    13   6 C        2.918    -0.038    28.953     8.824
    14   6 C        2.921    -0.031    28.777     8.797
    15   6 C        2.918    -0.064    29.603     8.922
    16   6 C        2.869     0.143    24.877     8.176
    17   8 O        1.705    -0.275    18.568     5.818
    18   6 C        3.644     0.041    20.224     6.465
    19   7 N        2.765    -0.105    23.289     7.167
    20   6 C        2.765     0.279    22.288     7.732
    21   6 C        3.043    -0.025    28.590     8.770
    22   6 C        2.920     0.076    26.297     8.409
    23  35 Br       1.069    -0.160   189.485    22.195
    24   6 C        2.993    -0.033    28.804     8.804
    25   6 C        2.923    -0.026    28.658     8.779
    26   6 C        2.918    -0.028    28.693     8.784
    27   6 C        2.926    -0.024    28.609     8.772
    28   8 O        0.859    -0.405    21.782     6.257
    29   6 C        3.757     0.090    19.137     6.237
    30   6 C        2.688     0.348    21.084     7.515
    31   8 O        1.659    -0.376    20.382     6.095
    32   8 O        0.856    -0.367    21.025     6.148
    33   7 N        2.766    -0.111    23.415     7.187
    34   6 C        2.764     0.280    22.266     7.728
    35   6 C        3.044    -0.023    28.545     8.763
    36   6 C        2.926    -0.027    28.674     8.782
    37   6 C        2.918    -0.027    28.681     8.782
    38   6 C        2.923    -0.026    28.644     8.777
    39   6 C        2.994    -0.033    28.819     8.806
    40   6 C        2.919     0.085    26.115     8.380
    41  35 Br       1.070    -0.158   189.415    22.191
    42   8 O        0.859    -0.401    21.694     6.245
    43   1 H        0.924     0.037     2.494     2.470
    44   1 H        0.924     0.046     2.372     2.408
    45   1 H        0.925     0.063     2.160     2.298
    46   1 H        0.926     0.039     2.460     2.453
    47   1 H        0.926     0.038     2.479     2.462
    48   1 H        0.926     0.038     2.471     2.458
    49   1 H        0.926     0.033     2.539     2.492
    50   1 H        0.924     0.077     2.013     2.219
    51   1 H        0.924     0.079     1.994     2.208
    52   1 H        0.926     0.052     2.292     2.368
    53   1 H        0.926     0.039     2.464     2.455
    54   1 H        0.926     0.037     2.487     2.466
    55   1 H        0.926     0.038     2.480     2.463
    56   1 H        0.925     0.061     2.186     2.312
    57   1 H        0.924     0.044     2.390     2.418
    58   1 H        0.924     0.037     2.486     2.466
    59   1 H        0.926     0.060     2.196     2.317
    60   1 H        0.926     0.051     2.303     2.373
    61   1 H        0.926     0.051     2.303     2.373
    62   1 H        0.926     0.055     2.262     2.352
    63   1 H        0.923     0.067     2.116     2.275
    64   1 H        0.804     0.350     0.588     1.205
    65   1 H        0.926     0.052     2.299     2.371
    66   1 H        0.926     0.054     2.270     2.356
    67   1 H        0.926     0.051     2.310     2.377
    68   1 H        0.926     0.061     2.193     2.316

Wiberg/Mayer (AO) data.
largest (>0.10) Wiberg bond orders for each atom

     #   Z sym  total        # sym  WBO       # sym  WBO       # sym  WBO
 ---------------------------------------------------------------------------
     1   6 C    3.935 --     4 C    1.379     8 C    1.324     2 O    1.063
     2   8 O    2.235 --     1 C    1.063     3 C    0.983
     3   6 C    3.945 --     2 O    0.983    45 H    0.979    44 H    0.976
                            43 H    0.976
     4   6 C    3.987 --     5 C    1.436     1 C    1.379    46 H    0.966
                             7 C    0.102
     5   6 C    3.990 --     6 C    1.442     4 C    1.436    47 H    0.971
                             8 C    0.106
     6   6 C    3.991 --     5 C    1.442     7 C    1.427    48 H    0.971
     7   6 C    3.990 --     8 C    1.436     6 C    1.427    49 H    0.968
                             4 C    0.102
     8   6 C    3.982 --     7 C    1.436     1 C    1.324     9 C    0.993
                             5 C    0.106
     9   6 C    3.957 --     8 C    0.993    33 N    0.950    50 H    0.950
                            10 C    0.949
    10   6 C    3.956 --    11 C    0.992    19 N    0.953     9 C    0.949
                            51 H    0.946
    11   6 C    3.982 --    12 C    1.443    16 C    1.320    10 C    0.992
                            14 C    0.106
    12   6 C    3.988 --    11 C    1.443    13 C    1.421    52 H    0.962
                            15 C    0.102
    13   6 C    3.991 --    14 C    1.448    12 C    1.421    53 H    0.971
    14   6 C    3.991 --    13 C    1.448    15 C    1.430    54 H    0.971
                            11 C    0.106
    15   6 C    3.987 --    14 C    1.430    16 C    1.386    55 H    0.966
                            12 C    0.102
    16   6 C    3.933 --    15 C    1.386    11 C    1.320    17 O    1.057
    17   8 O    2.229 --    16 C    1.057    18 C    0.984
    18   6 C    3.946 --    17 O    0.984    56 H    0.980    58 H    0.976
                            57 H    0.976
    19   7 N    3.481 --    20 C    1.221    29 C    0.990    10 C    0.953
                            28 O    0.199
    20   6 C    3.952 --    28 O    1.702    19 N    1.221    21 C    0.944
    21   6 C    3.986 --    27 C    1.405    22 C    1.386    20 C    0.944
                            25 C    0.108
    22   6 C    3.940 --    24 C    1.413    21 C    1.386    23 Br   0.976
                            26 C    0.101
    23  35 Br   1.125 --    22 C    0.976
    24   6 C    3.989 --    25 C    1.437    22 C    1.413    59 H    0.967
                            27 C    0.109
    25   6 C    3.990 --    24 C    1.437    26 C    1.436    60 H    0.968
                            21 C    0.108
    26   6 C    3.991 --    27 C    1.440    25 C    1.436    61 H    0.969
                            22 C    0.101
    27   6 C    3.989 --    26 C    1.440    21 C    1.405    62 H    0.967
                            24 C    0.109
    28   8 O    2.041 --    20 C    1.702    19 N    0.199
    29   6 C    3.972 --    19 N    0.990    33 N    0.985    63 H    0.939
                            30 C    0.903
    30   6 C    3.919 --    32 O    1.794    31 O    1.146    29 C    0.903
    31   8 O    2.210 --    30 C    1.146    64 H    0.851    32 O    0.183
    32   8 O    2.083 --    30 C    1.794    31 O    0.183
    33   7 N    3.469 --    34 C    1.207    29 C    0.985     9 C    0.950
                            42 O    0.193
    34   6 C    3.949 --    42 O    1.707    33 N    1.207    35 C    0.950
    35   6 C    3.986 --    36 C    1.398    40 C    1.390    34 C    0.950
                            38 C    0.108
    36   6 C    3.990 --    37 C    1.444    35 C    1.398    65 H    0.966
                            39 C    0.110
    37   6 C    3.990 --    36 C    1.444    38 C    1.431    66 H    0.968
                            40 C    0.100
    38   6 C    3.991 --    39 C    1.443    37 C    1.431    67 H    0.968
                            35 C    0.108
    39   6 C    3.988 --    38 C    1.443    40 C    1.407    68 H    0.967
                            36 C    0.110
    40   6 C    3.942 --    39 C    1.407    35 C    1.390    41 Br   0.983
                            37 C    0.100
    41  35 Br   1.129 --    40 C    0.983
    42   8 O    2.047 --    34 C    1.707    33 N    0.193
    43   1 H    0.999 --     3 C    0.976
    44   1 H    0.998 --     3 C    0.976
    45   1 H    0.996 --     3 C    0.979
    46   1 H    0.998 --     4 C    0.966
    47   1 H    0.998 --     5 C    0.971
    48   1 H    0.998 --     6 C    0.971
    49   1 H    0.998 --     7 C    0.968
    50   1 H    0.994 --     9 C    0.950
    51   1 H    0.993 --    10 C    0.946
    52   1 H    0.997 --    12 C    0.962
    53   1 H    0.998 --    13 C    0.971
    54   1 H    0.998 --    14 C    0.971
    55   1 H    0.998 --    15 C    0.966
    56   1 H    0.996 --    18 C    0.980
    57   1 H    0.998 --    18 C    0.976
    58   1 H    0.999 --    18 C    0.976
    59   1 H    0.996 --    24 C    0.967
    60   1 H    0.997 --    25 C    0.968
    61   1 H    0.996 --    26 C    0.969
    62   1 H    0.997 --    27 C    0.967
    63   1 H    0.995 --    29 C    0.939
    64   1 H    0.877 --    31 O    0.851
    65   1 H    0.997 --    36 C    0.966
    66   1 H    0.995 --    37 C    0.968
    67   1 H    0.997 --    38 C    0.968
    68   1 H    0.996 --    39 C    0.967
 ---------------------------------------------------------------------------

molecular dipole:
                 x           y           z       tot (Debye)
 q only:       -0.145       0.686      -0.041
   full:       -0.419       0.908      -0.008       2.541

           -------------------------------------------------
          | TOTAL ENERGY             -120.242837200564 Eh   |
          | GRADIENT NORM               0.000593363397 Eh/Î± |
          | HOMO-LUMO GAP               2.638646596934 eV   |
           -------------------------------------------------

 * finished run on 2022/03/16 at 23:10:53.805
