   * xtb version 6.3.3 (4ae9cef) compiled by 'conda@95abc7406d43' on 2020-10-14
          program call               : xtb acid_91.xyz --opt --chrg 0 --uhf 0 --gfn 2
          number of atoms            :                    78
          number of electrons        :                   262
          charge                     :                     0
          spin                       :                   0.0

   ID    Z sym.   atoms
    1    6 C      1-22, 24-27, 31-34, 36, 37, 41-48
    2    7 N      23, 40
    3    9 F      28-30, 49-51
    4    8 O      35, 38, 39, 52
    5    1 H      53-78

          :  Hamiltonian                  GFN2-xTB          :
 * total energy  :  -149.4645851 Eh     change       -0.4793378E-08 Eh
 * total energy  :  -149.4844171 Eh     change       -0.1983197E-01 Eh
 * total energy  :  -149.4904322 Eh     change       -0.6015172E-02 Eh
 * total energy  :  -149.4923542 Eh     change       -0.1921990E-02 Eh
 * total energy  :  -149.4942511 Eh     change       -0.1896868E-02 Eh
 * total energy  :  -149.4961165 Eh     change       -0.1865432E-02 Eh
 * total energy  :  -149.4976663 Eh     change       -0.1549822E-02 Eh
 * total energy  :  -149.4985456 Eh     change       -0.8792123E-03 Eh
 * total energy  :  -149.4989487 Eh     change       -0.4031525E-03 Eh
 * total energy  :  -149.4997354 Eh     change       -0.7866599E-03 Eh
 * total energy  :  -149.5054533 Eh     change       -0.1106538E-04 Eh
 * total energy  :  -149.5054647 Eh     change       -0.1139396E-04 Eh
 * total energy  :  -149.5054773 Eh     change       -0.1265134E-04 Eh
 * total energy  :  -149.5054912 Eh     change       -0.1388199E-04 Eh
 * total energy  :  -149.5055050 Eh     change       -0.1375337E-04 Eh
 * total energy  :  -149.5055175 Eh     change       -0.1253296E-04 Eh
 * total energy  :  -149.5055292 Eh     change       -0.1166573E-04 Eh
 * total energy  :  -149.5055414 Eh     change       -0.1224530E-04 Eh
 * total energy  :  -149.5055459 Eh     change       -0.4521451E-05 Eh
   *** GEOMETRY OPTIMIZATION CONVERGED AFTER 68 ITERATIONS ***

 final structure:
================
78
 xtb: 6.3.3 (4ae9cef)
C        -3.72246256047050   -3.24322453634880   -1.86918656319136
C        -4.20724186099559   -3.49518624496807   -0.61811678390217
C        -3.60452480095424   -2.89262306710526    0.49444618257533
C        -2.55468824000040   -2.03117800644959    0.33948750157950
C        -2.04535440109749   -1.72099038184135   -0.94129495096536
C        -2.63209579546653   -2.36948595032504   -2.06391018331398
C        -2.11326501717658   -2.14117631004114   -3.35533505736131
C        -1.04124657936087   -1.31616977884938   -3.54021548778615
C        -0.47853798837804   -0.64634650126304   -2.44659214218743
C        -0.97595613059797   -0.81344610592450   -1.17709837378634
C        -0.39033673223848    0.02164687823669   -0.06464471914241
C         1.08385002673962   -0.29028382341930    0.26367969378705
C         1.21352277636468   -0.68476000950453    1.71862241252998
C         1.52862033751419    0.25397203897418    2.66567683598792
C         1.61642698192843   -0.08212404814413    4.02284965105515
C         1.36993915856230   -1.36153760944796    4.42767231391558
C         1.01596711895315   -2.35418505038751    3.49082540196946
C         0.93038405833891   -2.02074615157077    2.11121109230974
C         0.54971497532563   -3.03535022093477    1.20515313944814
C         0.27354060458215   -4.30229842856112    1.63849695074995
C         0.36781037968571   -4.62926045390760    2.99841000712905
C         0.73360630375155   -3.67359310366310    3.90264702103293
N         1.80649147216609    0.93102459974087   -0.05984728469241
C         3.16786114150904    0.87879060927977   -0.06418871461262
C         3.87108728066869    2.11408813295420   -0.53291049396498
C         4.70200369854445    2.06431040240832   -1.65139463060747
C         4.91171002894331    0.78725107565378   -2.42504006604436
F         5.20393523836022    1.03167721760743   -3.71545759735423
F         5.96426262954475    0.09484594508991   -1.94571771275586
F         3.87590582992786   -0.05284384243327   -2.43418148600081
C         5.38661027124581    3.19901277197858   -2.06402070241374
C         5.25444271378945    4.38321371217256   -1.36077526524705
C         4.44900283188258    4.43361363767913   -0.23652411132452
C         3.76153330974687    3.30493805057434    0.17340681143921
O         3.76214659607614   -0.10327693003465    0.31768508130974
C         0.95381637372275    2.00026562877057   -0.49255847852380
C         1.26720760259730    2.50685967644862   -1.94034325125868
O         0.63781865010066    3.60971312900338   -2.27494324325193
O         2.03294905976666    1.93455117975181   -2.66002882610470
N        -0.38392661489593    1.43614308902127   -0.41979433439154
C        -1.47549247203512    2.21081825112464   -0.48230155971690
C        -2.78237012923842    1.49881740046143   -0.32184945592408
C        -3.45315968906112    1.11048411358437   -1.47607187870196
C        -4.67126157715385    0.46176524712943   -1.39438430815576
C        -5.24212796271766    0.20441560351272   -0.15898185832976
C        -4.59552935002054    0.60272457449633    0.99547153473909
C        -3.36721017491393    1.24949814313755    0.91541649692428
C        -2.70744521055338    1.62534775594062    2.21370649519540
F        -2.39784401438436    0.52580794703802    2.93629310803369
F        -1.55984248733710    2.30490205310337    2.08265547132882
F        -3.50579951214647    2.36675413377534    2.99300072207531
O        -1.42288708955779    3.41275300503110   -0.72228720162383
H        -4.15998094045289   -3.71868665567181   -2.73517752335469
H        -5.04031333749755   -4.16709176726682   -0.47600524843703
H        -3.96941862911764   -3.11798238829337    1.48518948070022
H        -2.10280255018371   -1.61431327353044    1.22577198340353
H        -2.57307020984299   -2.64446086365888   -4.19330190633144
H        -0.62512138340870   -1.15931482519637   -4.52317974924517
H         0.35957542623321    0.01285823070520   -2.61738188820818
H        -0.98028846862608   -0.09838111079824    0.84698719237694
H         1.48606039926474   -1.08664722400486   -0.37171786163885
H         1.72273964698923    1.27475835838118    2.37114786339817
H         1.87865717565747    0.68177998211084    4.73928930975157
H         1.43507477599986   -1.63273858944108    5.47131808569174
H         0.46785362643054   -2.81739237116180    0.15201290547466
H        -0.01902782192155   -5.06123393916511    0.92788473553212
H         0.15173546889686   -5.63698428501282    3.32108766973703
H         0.81085573999531   -3.91154776676338    4.95392938042199
H         6.01703193779968    3.15175168316945   -2.93836826789677
H         5.78608265848699    5.26292562052505   -1.68824495931954
H         4.35489918616205    5.35162546625168    0.32352944870691
H         3.15252907058231    3.34119355251998    1.06491759559346
H         1.00586871802081    2.87700881912010    0.17979168228869
H        -0.11604151657809    3.82713426812913   -1.65269433470653
H        -3.00673065039819    1.31569347900100   -2.43683176303794
H        -5.17441103153041    0.15645276343859   -2.29832363074885
H        -6.19117107816659   -0.30323240944109   -0.09330097312737
H        -5.03214627236362    0.41690279749676    1.96485057046459

          :  Hamiltonian                  GFN2-xTB          :
         :: total energy            -149.505545920883 Eh    ::
         :: gradient norm              0.000250072297 Eh/a0 ::
         :: HOMO-LUMO gap              2.535416164409 eV    ::
         :: SCC energy              -151.500877417865 Eh    ::
         :: -> dispersion             -0.126139092071 Eh    ::
         :: repulsion energy           1.989402467287 Eh    ::

    * Orbital Energies and Occupations

         #    Occupation            Energy/Eh            Energy/eV
      -------------------------------------------------------------
         1        2.0000           -0.8980745             -24.4379
       ...           ...                  ...                  ...
       119        2.0000           -0.4381874             -11.9237
       120        2.0000           -0.4377327             -11.9113
       121        2.0000           -0.4337492             -11.8029
       122        2.0000           -0.4307991             -11.7226
       123        2.0000           -0.4297060             -11.6929
       124        2.0000           -0.4240805             -11.5398
       125        2.0000           -0.4226686             -11.5014
       126        2.0000           -0.4189056             -11.3990
       127        2.0000           -0.4072748             -11.0825
       128        2.0000           -0.4065164             -11.0619
       129        2.0000           -0.4044939             -11.0068
       130        2.0000           -0.3987040             -10.8493
       131        2.0000           -0.3833461             -10.4314 (HOMO)
       132                         -0.2901712              -7.8960 (LUMO)
       133                         -0.2826990              -7.6926
       134                         -0.2797230              -7.6117
       135                         -0.2686522              -7.3104
       136                         -0.2662701              -7.2456
       137                         -0.2607922              -7.0965
       138                         -0.2599809              -7.0744
       139                         -0.2545680              -6.9271
       140                         -0.2506533              -6.8206
       141                         -0.2342658              -6.3747
       142                         -0.2173914              -5.9155
       ...                                ...                  ...
       234                          0.6878954              18.7186
      -------------------------------------------------------------
                  HL-Gap            0.0931748 Eh            2.5354 eV

     #   Z          covCN         q      C6AA      Î±(0)
     1   6 C        2.921    -0.035    28.866     8.811
     2   6 C        2.915    -0.030    28.741     8.791
     3   6 C        2.917    -0.029    28.728     8.789
     4   6 C        2.916    -0.039    28.979     8.828
     5   6 C        2.982     0.004    27.922     8.668
     6   6 C        2.988     0.014    27.701     8.634
     7   6 C        2.920    -0.035    28.864     8.810
     8   6 C        2.914    -0.028    28.691     8.783
     9   6 C        2.922    -0.035    28.869     8.811
    10   6 C        2.967    -0.015    28.386     8.739
    11   6 C        3.817     0.038    19.916     6.351
    12   6 C        3.825     0.047    19.769     6.327
    13   6 C        2.969     0.000    28.016     8.682
    14   6 C        2.921    -0.028    28.691     8.784
    15   6 C        2.914    -0.027    28.673     8.781
    16   6 C        2.920    -0.033    28.831     8.805
    17   6 C        2.988     0.018    27.606     8.619
    18   6 C        2.985     0.010    27.795     8.648
    19   6 C        2.917    -0.035    28.874     8.812
    20   6 C        2.917    -0.027    28.686     8.783
    21   6 C        2.915    -0.028    28.710     8.786
    22   6 C        2.921    -0.033    28.816     8.803
    23   7 N        2.759    -0.108    23.366     7.179
    24   6 C        2.767     0.278    22.297     7.733
    25   6 C        2.974    -0.006    28.176     8.707
    26   6 C        2.977    -0.006    28.165     8.705
    27   6 C        3.335     0.492    17.220     6.574
    28   9 F        0.792    -0.207    11.310     3.973
    29   9 F        0.791    -0.205    11.285     3.968
    30   9 F        0.791    -0.192    11.153     3.945
    31   6 C        2.923    -0.018    28.452     8.747
    32   6 C        2.920    -0.021    28.529     8.759
    33   6 C        2.919    -0.021    28.522     8.758
    34   6 C        2.924    -0.030    28.747     8.793
    35   8 O        0.859    -0.400    21.688     6.244
    36   6 C        3.746     0.079    19.335     6.272
    37   6 C        2.683     0.351    21.044     7.507
    38   8 O        1.654    -0.369    20.250     6.075
    39   8 O        0.856    -0.367    21.041     6.150
    40   7 N        2.763    -0.099    23.179     7.150
    41   6 C        2.766     0.272    22.408     7.752
    42   6 C        2.976    -0.002    28.067     8.690
    43   6 C        2.926    -0.016    28.421     8.743
    44   6 C        2.919    -0.015    28.386     8.737
    45   6 C        2.920    -0.018    28.465     8.749
    46   6 C        2.924    -0.018    28.465     8.749
    47   6 C        2.977    -0.024    28.605     8.773
    48   6 C        3.336     0.489    17.244     6.575
    49   9 F        0.791    -0.214    11.376     3.984
    50   9 F        0.791    -0.205    11.291     3.969
    51   9 F        0.791    -0.198    11.213     3.956
    52   8 O        0.859    -0.444    22.588     6.372
    53   1 H        0.926     0.040     2.448     2.447
    54   1 H        0.926     0.039     2.467     2.456
    55   1 H        0.926     0.038     2.482     2.464
    56   1 H        0.926     0.029     2.596     2.519
    57   1 H        0.926     0.043     2.413     2.429
    58   1 H        0.926     0.049     2.336     2.390
    59   1 H        0.926     0.051     2.312     2.378
    60   1 H        0.924     0.053     2.281     2.362
    61   1 H        0.924     0.080     1.976     2.198
    62   1 H        0.926     0.027     2.636     2.539
    63   1 H        0.926     0.038     2.471     2.458
    64   1 H        0.926     0.039     2.455     2.450
    65   1 H        0.926     0.027     2.626     2.534
    66   1 H        0.926     0.032     2.553     2.499
    67   1 H        0.926     0.035     2.521     2.483
    68   1 H        0.926     0.037     2.487     2.466
    69   1 H        0.926     0.070     2.084     2.257
    70   1 H        0.926     0.058     2.216     2.328
    71   1 H        0.926     0.056     2.251     2.346
    72   1 H        0.926     0.043     2.412     2.429
    73   1 H        0.922     0.063     2.161     2.299
    74   1 H        0.799     0.370     0.545     1.160
    75   1 H        0.926     0.060     2.202     2.321
    76   1 H        0.926     0.063     2.160     2.299
    77   1 H        0.926     0.064     2.158     2.297
    78   1 H        0.926     0.068     2.111     2.272

Wiberg/Mayer (AO) data.
largest (>0.10) Wiberg bond orders for each atom

     #   Z sym  total        # sym  WBO       # sym  WBO       # sym  WBO
 ---------------------------------------------------------------------------
     1   6 C    3.991 --     2 C    1.557     6 C    1.280    53 H    0.968
                             4 C    0.118
     2   6 C    3.992 --     1 C    1.557     3 C    1.323    54 H    0.970
     3   6 C    3.990 --     4 C    1.553     2 C    1.323    55 H    0.971
     4   6 C    3.992 --     3 C    1.553     5 C    1.284    56 H    0.959
                             1 C    0.118
     5   6 C    3.988 --     4 C    1.284     6 C    1.251    10 C    1.251
     6   6 C    3.990 --     1 C    1.280     7 C    1.279     5 C    1.251
     7   6 C    3.989 --     8 C    1.553     6 C    1.279    57 H    0.967
                            10 C    0.114
     8   6 C    3.991 --     7 C    1.553     9 C    1.326    58 H    0.969
     9   6 C    3.989 --    10 C    1.524     8 C    1.326    59 H    0.965
    10   6 C    3.982 --     9 C    1.524     5 C    1.251    11 C    0.986
                             7 C    0.114
    11   6 C    3.956 --    10 C    0.986    12 C    0.954    40 N    0.950
                            60 H    0.946
    12   6 C    3.957 --    13 C    0.984    23 N    0.960    11 C    0.954
                            61 H    0.946
    13   6 C    3.983 --    14 C    1.530    18 C    1.250    12 C    0.984
                            16 C    0.114
    14   6 C    3.991 --    13 C    1.530    15 C    1.322    62 H    0.967
    15   6 C    3.992 --    16 C    1.557    14 C    1.322    63 H    0.970
    16   6 C    3.990 --    15 C    1.557    17 C    1.277    64 H    0.968
                            13 C    0.114
    17   6 C    3.990 --    22 C    1.280    16 C    1.277    18 C    1.254
    18   6 C    3.989 --    19 C    1.284    17 C    1.254    13 C    1.250
    19   6 C    3.992 --    20 C    1.553    18 C    1.284    65 H    0.963
                            22 C    0.119
    20   6 C    3.992 --    19 C    1.553    21 C    1.323    66 H    0.971
    21   6 C    3.992 --    22 C    1.556    20 C    1.323    67 H    0.971
    22   6 C    3.991 --    21 C    1.556    17 C    1.280    68 H    0.968
                            19 C    0.119
    23   7 N    3.462 --    24 C    1.194    36 C    1.003    12 C    0.960
                            35 O    0.192
    24   6 C    3.951 --    35 O    1.708    23 N    1.194    25 C    0.962
    25   6 C    3.987 --    34 C    1.409    26 C    1.382    24 C    0.962
                            32 C    0.110
    26   6 C    3.979 --    31 C    1.421    25 C    1.382    27 C    0.949
                            33 C    0.107
    27   6 C    3.832 --    30 F    0.962    26 C    0.949    28 F    0.945
                            29 F    0.941
    28   9 F    1.068 --    27 C    0.945
    29   9 F    1.072 --    27 C    0.941
    30   9 F    1.091 --    27 C    0.962
    31   6 C    3.987 --    32 C    1.438    26 C    1.421    69 H    0.965
                            34 C    0.109
    32   6 C    3.990 --    33 C    1.438    31 C    1.438    70 H    0.969
                            25 C    0.110
    33   6 C    3.990 --    34 C    1.441    32 C    1.438    71 H    0.969
                            26 C    0.107
    34   6 C    3.990 --    33 C    1.441    25 C    1.409    72 H    0.967
                            31 C    0.109
    35   8 O    2.040 --    24 C    1.708    23 N    0.192
    36   6 C    3.958 --    23 N    1.003    40 N    0.966    73 H    0.935
                            37 C    0.885
    37   6 C    3.932 --    39 O    1.776    38 O    1.210    36 C    0.885
    38   8 O    2.235 --    37 C    1.210    74 H    0.757    39 O    0.183
    39   8 O    2.083 --    37 C    1.776    38 O    0.183
    40   7 N    3.513 --    41 C    1.286    36 C    0.966    11 C    0.950
                            52 O    0.192
    41   6 C    3.950 --    52 O    1.600    40 N    1.286    42 C    0.959
    42   6 C    3.988 --    43 C    1.401    47 C    1.391    41 C    0.959
                            45 C    0.108
    43   6 C    3.988 --    44 C    1.445    42 C    1.401    75 H    0.968
                            46 C    0.111
    44   6 C    3.989 --    43 C    1.445    45 C    1.433    76 H    0.967
                            47 C    0.106
    45   6 C    3.989 --    46 C    1.447    44 C    1.433    77 H    0.968
                            42 C    0.108
    46   6 C    3.987 --    45 C    1.447    47 C    1.406    78 H    0.966
                            43 C    0.111
    47   6 C    3.972 --    46 C    1.406    42 C    1.391    48 C    0.951
                            44 C    0.106
    48   6 C    3.825 --    51 F    0.954    47 C    0.951    50 F    0.949
                            49 F    0.934
    49   9 F    1.063 --    48 C    0.934
    50   9 F    1.079 --    48 C    0.949
    51   9 F    1.081 --    48 C    0.954
    52   8 O    2.028 --    41 C    1.600    40 N    0.192
    53   1 H    0.998 --     1 C    0.968
    54   1 H    0.998 --     2 C    0.970
    55   1 H    0.998 --     3 C    0.971
    56   1 H    0.999 --     4 C    0.959
    57   1 H    0.997 --     7 C    0.967
    58   1 H    0.997 --     8 C    0.969
    59   1 H    0.997 --     9 C    0.965
    60   1 H    0.997 --    11 C    0.946
    61   1 H    0.993 --    12 C    0.946
    62   1 H    0.999 --    14 C    0.967
    63   1 H    0.998 --    15 C    0.970
    64   1 H    0.997 --    16 C    0.968
    65   1 H    0.999 --    19 C    0.963
    66   1 H    0.998 --    20 C    0.971
    67   1 H    0.998 --    21 C    0.971
    68   1 H    0.998 --    22 C    0.968
    69   1 H    0.995 --    31 C    0.965
    70   1 H    0.996 --    32 C    0.969
    71   1 H    0.996 --    33 C    0.969
    72   1 H    0.998 --    34 C    0.967
    73   1 H    0.996 --    36 C    0.935
    74   1 H    0.863 --    38 O    0.757
    75   1 H    0.996 --    43 C    0.968
    76   1 H    0.995 --    44 C    0.967
    77   1 H    0.995 --    45 C    0.968
    78   1 H    0.994 --    46 C    0.966
 ---------------------------------------------------------------------------

molecular dipole:
                 x           y           z       tot (Debye)
 q only:       -2.979      -0.262       0.367
   full:       -3.220      -0.052       0.617       8.334

           -------------------------------------------------
          | TOTAL ENERGY             -149.505545920883 Eh   |
          | GRADIENT NORM               0.000250072297 Eh/Î± |
          | HOMO-LUMO GAP               2.535416164409 eV   |
           -------------------------------------------------

 * finished run on 2022/03/17 at 02:14:31.803
