   * xtb version 6.3.3 (4ae9cef) compiled by 'conda@95abc7406d43' on 2020-10-14
          program call               : xtb acid_350.xyz --opt --chrg 0 --uhf 0 --gfn 2
          number of atoms            :                    80
          number of electrons        :                   234
          charge                     :                     0
          spin                       :                   0.0

   ID    Z sym.   atoms
    1    6 C      1-14, 16-28, 30, 31, 35-47
    2    7 N      15, 34
    3    8 O      29, 32, 33, 48
    4    1 H      49-80

          :  Hamiltonian                  GFN2-xTB          :
 * total energy  :  -128.3518575 Eh     change       -0.1826294E-08 Eh
 * total energy  :  -128.3680274 Eh     change       -0.1616991E-01 Eh
 * total energy  :  -128.3729786 Eh     change       -0.4951168E-02 Eh
 * total energy  :  -128.3746798 Eh     change       -0.1701218E-02 Eh
 * total energy  :  -128.3757643 Eh     change       -0.1084497E-02 Eh
 * total energy  :  -128.3764032 Eh     change       -0.6389176E-03 Eh
 * total energy  :  -128.3770203 Eh     change       -0.6170758E-03 Eh
 * total energy  :  -128.3776914 Eh     change       -0.6710940E-03 Eh
 * total energy  :  -128.3783860 Eh     change       -0.6946149E-03 Eh
 * total energy  :  -128.3789553 Eh     change       -0.5692822E-03 Eh
 * total energy  :  -128.3899779 Eh     change       -0.8242105E-05 Eh
 * total energy  :  -128.3899777 Eh     change        0.1962275E-06 Eh
 * total energy  :  -128.3899847 Eh     change       -0.6950025E-05 Eh
 * total energy  :  -128.3899818 Eh     change        0.2902755E-05 Eh
 * total energy  :  -128.3899881 Eh     change       -0.6281487E-05 Eh
 * total energy  :  -128.3899930 Eh     change       -0.4884681E-05 Eh
 * total energy  :  -128.3899865 Eh     change        0.6507015E-05 Eh
 * total energy  :  -128.3899947 Eh     change       -0.8262781E-05 Eh
 * total energy  :  -128.3899978 Eh     change       -0.3065084E-05 Eh
   *** GEOMETRY OPTIMIZATION CONVERGED AFTER 94 ITERATIONS ***

 final structure:
================
80
 xtb: 6.3.3 (4ae9cef)
C        -2.73814025780298   -5.12668055038042    0.05163184816690
C        -3.65602807837886   -5.51184838622446   -0.90932050374818
C        -3.77853234822652   -4.78930418954811   -2.08303812650614
C        -2.97679990453297   -3.68047907951392   -2.29424060160826
C        -2.05811936305079   -3.29733161076093   -1.33524488066400
C        -1.93442301003215   -4.01525971153630   -0.15217226382817
C        -0.91253288228280   -3.60953250212067    0.88256760462957
C         0.52049852334380   -3.79581744185619    0.33511408365145
C         1.54576043575954   -4.34931866045500    1.29935008009696
C         1.40143826878343   -4.31349493655437    2.67993153895865
C         2.41594695891023   -4.78121151414698    3.49994385775903
C         3.58345512464217   -5.28260111219044    2.95312810914165
C         3.73623001664045   -5.31559816176766    1.57671548140107
C         2.72476172126407   -4.85211217234529    0.75668893927070
N         0.89703883699987   -2.43697301935656   -0.04705508879476
C         1.58308047215040   -2.11992100907940   -1.17537091396894
C         1.74864021720892   -0.64499572451474   -1.37219007471458
C         2.99634381394472   -0.06693927369749   -1.18234425100367
C         3.15212783545016    1.30164594948415   -1.29618447374992
C         2.06472966749645    2.11992764573576   -1.59146321085980
C         2.21597139733822    3.58097023476187   -1.66269124583200
C         3.29361080036900    4.15699919445291   -2.33016044421381
C         3.42169515976188    5.53200706399600   -2.39641449176335
C         2.48176635327931    6.34963188803389   -1.79072158501144
C         1.41125982565955    5.78568757647406   -1.11713145205935
C         1.27758912093682    4.41128482056900   -1.05539332940302
C         0.82219461142833    1.52951966496422   -1.81153869311370
C         0.66579586872195    0.16111711556432   -1.71214369214900
O         2.02730075914630   -2.96483845571238   -1.92124376030335
C         0.27399422259204   -1.54219841428324    0.88400113512824
C         1.13534689380109   -1.36443334368144    2.15167907420822
O         2.42934479259276   -1.32888365912602    1.84775602659663
O         0.69995688154013   -1.21208950928202    3.25712550862473
N        -0.98762527601709   -2.17399566309548    1.17160581167395
C        -2.19796803964776   -1.55221661399596    1.28836862482766
C        -2.18635556307248   -0.07603504624354    1.05526884107602
C        -1.47212706113245    0.83195731894924    1.82803720467036
C        -1.49527683949503    2.17775370467492    1.51229711975755
C        -2.22833566106515    2.64718644160405    0.42365664558996
C        -2.24194002450335    4.07800401343151    0.08284936703013
C        -2.28910638811783    5.04623843614205    1.08358662655332
C        -2.30023452902151    6.39080058822390    0.76227280739824
C        -2.25731429757972    6.79147709693969   -0.56289741051962
C        -2.20793457109147    5.83822133968854   -1.56642582114950
C        -2.20476440169317    4.49359589100386   -1.24721771773971
C        -2.95691923287831    1.73122970450128   -0.33333929442663
C        -2.94327025782971    0.38780517108194   -0.01709160033836
O        -3.21680870746399   -2.17844736227348    1.48257580542950
H        -2.65114556315478   -5.68720343048737    0.97066244408182
H        -4.28116417901483   -6.37549265684262   -0.73791348093964
H        -4.49843820853375   -5.08657788115888   -2.83102252918059
H        -3.06668702983430   -3.11263573458342   -3.20884543394209
H        -1.43371645648141   -2.43160166520197   -1.50777206531232
H        -1.08215661828869   -4.18930355035198    1.79389328160974
H         0.51941265143878   -4.40755936195965   -0.57323400013740
H         0.50659974401511   -3.91928847988723    3.13704308728221
H         2.28906534116250   -4.74900161902195    4.57202459938448
H         4.37104031175519   -5.64595792998761    3.59655332026382
H         4.64494859632469   -5.70372865050408    1.14138115729854
H         2.84520532688142   -4.86475223564354   -0.31624589884525
H         3.83672311651500   -0.69615342723188   -0.93194881103329
H         4.12150885661287    1.74674535344702   -1.12697686767534
H         4.01951641806575    3.52195648008197   -2.81699734379983
H         4.25718685949790    5.96831308774754   -2.92419694744328
H         2.58452880906897    7.42335496316848   -1.84309944764524
H         0.67517307648759    6.41480665366928   -0.63867185363421
H         0.44958732614723    3.97532714178717   -0.51651694648638
H        -0.02327431340490    2.14877547626762   -2.07098175025527
H        -0.30289271944817   -0.28069752978005   -1.90342964888916
H         0.14159099872162   -0.53503819350470    0.46623937449221
H         2.97037199354970   -1.20707848820312    2.64518797351551
H        -0.91089510890287    0.48490090678502    2.68237433861954
H        -0.92077287141603    2.87207004174447    2.10814439340985
H        -2.34312113550076    4.74077458942952    2.11812409322365
H        -2.34601223583247    7.12961432583961    1.54915926709600
H        -2.26226861098786    7.84222251336160   -0.81271591355539
H        -2.16652867290903    6.14381668299969   -2.60151579524511
H        -2.15186611624712    3.75813011887272   -2.03704849120074
H        -3.55759484111704    2.07981983440345   -1.16051649118494
H        -3.51925063000088   -0.31905907175542   -0.59662482795940

          :  Hamiltonian                  GFN2-xTB          :
         :: total energy            -128.389997781186 Eh    ::
         :: gradient norm              0.000531074752 Eh/a0 ::
         :: HOMO-LUMO gap              3.356029318285 eV    ::
         :: SCC energy              -130.541366516700 Eh    ::
         :: -> dispersion             -0.119272721227 Eh    ::
         :: repulsion energy           2.147458888019 Eh    ::

    * Orbital Energies and Occupations

         #    Occupation            Energy/Eh            Energy/eV
      -------------------------------------------------------------
         1        2.0000           -0.7762188             -21.1220
       ...           ...                  ...                  ...
       105        2.0000           -0.4185042             -11.3881
       106        2.0000           -0.4153656             -11.3027
       107        2.0000           -0.4138158             -11.2605
       108        2.0000           -0.4135136             -11.2523
       109        2.0000           -0.4116846             -11.2025
       110        2.0000           -0.4107526             -11.1771
       111        2.0000           -0.4059161             -11.0455
       112        2.0000           -0.4056879             -11.0393
       113        2.0000           -0.3995870             -10.8733
       114        2.0000           -0.3977896             -10.8244
       115        2.0000           -0.3959298             -10.7738
       116        2.0000           -0.3943923             -10.7320
       117        2.0000           -0.3894151             -10.5965 (HOMO)
       118                         -0.2660833              -7.2405 (LUMO)
       119                         -0.2616107              -7.1188
       120                         -0.2597242              -7.0675
       121                         -0.2397672              -6.5244
       122                         -0.2377409              -6.4693
       123                         -0.2358099              -6.4167
       124                         -0.2314105              -6.2970
       125                         -0.2311634              -6.2903
       126                         -0.2294967              -6.2449
       127                         -0.2290911              -6.2339
       128                         -0.2241146              -6.0985
       ...                                ...                  ...
       224                          0.6825736              18.5738
      -------------------------------------------------------------
                  HL-Gap            0.1233318 Eh            3.3560 eV

     #   Z          covCN         q      C6AA      Î±(0)
     1   6 C        2.924    -0.027    28.684     8.783
     2   6 C        2.920    -0.024    28.611     8.772
     3   6 C        2.921    -0.028    28.696     8.785
     4   6 C        2.920    -0.026    28.661     8.779
     5   6 C        2.924    -0.028    28.695     8.785
     6   6 C        2.974     0.011    27.767     8.644
     7   6 C        3.828     0.040    19.877     6.344
     8   6 C        3.842     0.035    19.951     6.354
     9   6 C        2.971    -0.001    28.047     8.687
    10   6 C        2.921    -0.039    28.970     8.827
    11   6 C        2.920    -0.030    28.755     8.794
    12   6 C        2.919    -0.031    28.767     8.795
    13   6 C        2.919    -0.027    28.685     8.783
    14   6 C        2.926    -0.033    28.820     8.804
    15   7 N        2.774    -0.111    23.424     7.188
    16   6 C        2.758     0.274    22.361     7.744
    17   6 C        2.978    -0.019    28.484     8.755
    18   6 C        2.921    -0.023    28.580     8.767
    19   6 C        2.924    -0.032    28.798     8.800
    20   6 C        2.977     0.013    27.711     8.635
    21   6 C        2.978     0.009    27.802     8.649
    22   6 C        2.924    -0.033    28.823     8.804
    23   6 C        2.919    -0.029    28.720     8.788
    24   6 C        2.920    -0.029    28.734     8.790
    25   6 C        2.918    -0.028    28.704     8.786
    26   6 C        2.926    -0.033    28.833     8.806
    27   6 C        2.924    -0.034    28.837     8.806
    28   6 C        2.920    -0.032    28.801     8.801
    29   8 O        0.859    -0.418    22.050     6.296
    30   6 C        3.780     0.088    19.139     6.232
    31   6 C        2.688     0.352    21.025     7.504
    32   8 O        1.659    -0.364    20.169     6.063
    33   8 O        0.856    -0.382    21.332     6.192
    34   7 N        2.765    -0.121    23.634     7.220
    35   6 C        2.763     0.275    22.351     7.742
    36   6 C        2.975    -0.021    28.515     8.759
    37   6 C        2.918    -0.037    28.914     8.818
    38   6 C        2.924    -0.034    28.842     8.807
    39   6 C        2.976     0.012    27.735     8.639
    40   6 C        2.976     0.010    27.787     8.647
    41   6 C        2.925    -0.033    28.816     8.803
    42   6 C        2.918    -0.028    28.712     8.787
    43   6 C        2.920    -0.029    28.728     8.789
    44   6 C        2.918    -0.028    28.689     8.783
    45   6 C        2.925    -0.031    28.776     8.797
    46   6 C        2.924    -0.032    28.807     8.802
    47   6 C        2.925    -0.023    28.571     8.766
    48   8 O        0.859    -0.413    21.941     6.280
    49   1 H        0.926     0.037     2.487     2.466
    50   1 H        0.926     0.039     2.468     2.457
    51   1 H        0.926     0.036     2.500     2.472
    52   1 H        0.926     0.034     2.529     2.487
    53   1 H        0.925     0.019     2.749     2.593
    54   1 H        0.924     0.064     2.151     2.294
    55   1 H        0.924     0.077     2.015     2.220
    56   1 H        0.926     0.039     2.465     2.455
    57   1 H        0.926     0.037     2.489     2.467
    58   1 H        0.926     0.035     2.513     2.479
    59   1 H        0.926     0.039     2.467     2.456
    60   1 H        0.926     0.056     2.252     2.347
    61   1 H        0.926     0.046     2.370     2.407
    62   1 H        0.926     0.042     2.425     2.435
    63   1 H        0.926     0.034     2.528     2.487
    64   1 H        0.926     0.033     2.538     2.492
    65   1 H        0.926     0.033     2.548     2.496
    66   1 H        0.926     0.031     2.566     2.505
    67   1 H        0.926     0.030     2.588     2.516
    68   1 H        0.926     0.039     2.467     2.456
    69   1 H        0.925     0.028     2.613     2.528
    70   1 H        0.923     0.074     2.046     2.237
    71   1 H        0.804     0.344     0.603     1.220
    72   1 H        0.926     0.046     2.368     2.406
    73   1 H        0.926     0.037     2.484     2.464
    74   1 H        0.926     0.034     2.531     2.488
    75   1 H        0.926     0.032     2.557     2.501
    76   1 H        0.926     0.031     2.567     2.505
    77   1 H        0.926     0.032     2.561     2.503
    78   1 H        0.926     0.029     2.600     2.522
    79   1 H        0.926     0.041     2.439     2.442
    80   1 H        0.926     0.045     2.384     2.414

Wiberg/Mayer (AO) data.
largest (>0.10) Wiberg bond orders for each atom

     #   Z sym  total        # sym  WBO       # sym  WBO       # sym  WBO
 ---------------------------------------------------------------------------
     1   6 C    3.990 --     2 C    1.441     6 C    1.416    49 H    0.968
                             4 C    0.110
     2   6 C    3.992 --     3 C    1.442     1 C    1.441    50 H    0.971
                             5 C    0.112
     3   6 C    3.991 --     2 C    1.442     4 C    1.435    51 H    0.971
                             6 C    0.110
     4   6 C    3.992 --     5 C    1.449     3 C    1.435    52 H    0.971
                             1 C    0.110
     5   6 C    3.992 --     4 C    1.449     6 C    1.409    53 H    0.967
                             2 C    0.112
     6   6 C    3.986 --     1 C    1.416     5 C    1.409     7 C    0.989
                             3 C    0.110
     7   6 C    3.962 --     6 C    0.989     8 C    0.962    34 N    0.952
                            54 H    0.952
     8   6 C    3.959 --     9 C    0.984     7 C    0.962    55 H    0.953
                            15 N    0.949
     9   6 C    3.985 --    10 C    1.420    14 C    1.405     8 C    0.984
                            12 C    0.109
    10   6 C    3.991 --    11 C    1.435     9 C    1.420    56 H    0.964
                            13 C    0.110
    11   6 C    3.992 --    12 C    1.445    10 C    1.435    57 H    0.971
                            14 C    0.113
    12   6 C    3.991 --    11 C    1.445    13 C    1.433    58 H    0.971
                             9 C    0.109
    13   6 C    3.991 --    14 C    1.452    12 C    1.433    59 H    0.970
                            10 C    0.110
    14   6 C    3.989 --    13 C    1.452     9 C    1.405    60 H    0.966
                            11 C    0.113
    15   7 N    3.473 --    16 C    1.205    30 C    0.993     8 C    0.949
                            29 O    0.191
    16   6 C    3.944 --    29 O    1.697    15 N    1.205    17 C    0.958
    17   6 C    3.982 --    18 C    1.405    28 C    1.391    16 C    0.958
                            20 C    0.103
    18   6 C    3.990 --    19 C    1.450    17 C    1.405    61 H    0.969
                            27 C    0.106
    19   6 C    3.990 --    18 C    1.450    20 C    1.391    62 H    0.967
                            28 C    0.106
    20   6 C    3.988 --    19 C    1.391    27 C    1.384    21 C    1.044
                            17 C    0.103
    21   6 C    3.989 --    26 C    1.391    22 C    1.390    20 C    1.044
                            24 C    0.106
    22   6 C    3.991 --    23 C    1.451    21 C    1.390    63 H    0.969
                            25 C    0.109
    23   6 C    3.992 --    22 C    1.451    24 C    1.435    64 H    0.971
                            26 C    0.109
    24   6 C    3.987 --    25 C    1.436    23 C    1.435    65 H    0.971
                            21 C    0.106
    25   6 C    3.992 --    26 C    1.450    24 C    1.436    66 H    0.970
                            22 C    0.109
    26   6 C    3.991 --    25 C    1.450    21 C    1.391    67 H    0.966
                            23 C    0.109
    27   6 C    3.990 --    28 C    1.455    20 C    1.384    68 H    0.967
                            18 C    0.106
    28   6 C    3.991 --    27 C    1.455    17 C    1.391    69 H    0.966
                            19 C    0.106
    29   8 O    2.020 --    16 C    1.697    15 N    0.191
    30   6 C    3.976 --    15 N    0.993    34 N    0.992    70 H    0.915
                            31 C    0.911
    31   6 C    3.918 --    33 O    1.778    32 O    1.153    30 C    0.911
    32   8 O    2.217 --    31 C    1.153    71 H    0.856    33 O    0.181
    33   8 O    2.063 --    31 C    1.778    32 O    0.181
    34   7 N    3.446 --    35 C    1.187    30 C    0.992     7 C    0.952
                            48 O    0.185
    35   6 C    3.943 --    48 O    1.704    34 N    1.187    36 C    0.969
    36   6 C    3.982 --    37 C    1.397    47 C    1.391    35 C    0.969
                            39 C    0.101
    37   6 C    3.990 --    38 C    1.453    36 C    1.397    72 H    0.966
                            46 C    0.105
    38   6 C    3.991 --    37 C    1.453    39 C    1.387    73 H    0.967
                            47 C    0.106
    39   6 C    3.988 --    38 C    1.387    46 C    1.383    40 C    1.049
                            36 C    0.101
    40   6 C    3.989 --    41 C    1.388    45 C    1.386    39 C    1.049
                            43 C    0.105
    41   6 C    3.991 --    42 C    1.451    40 C    1.388    74 H    0.968
                            44 C    0.108
    42   6 C    3.992 --    41 C    1.451    43 C    1.435    75 H    0.971
                            45 C    0.108
    43   6 C    3.987 --    42 C    1.435    44 C    1.433    76 H    0.971
                            40 C    0.105
    44   6 C    3.992 --    45 C    1.452    43 C    1.433    77 H    0.971
                            41 C    0.108
    45   6 C    3.991 --    44 C    1.452    40 C    1.386    78 H    0.968
                            42 C    0.108
    46   6 C    3.990 --    47 C    1.458    39 C    1.383    79 H    0.967
                            37 C    0.105
    47   6 C    3.990 --    46 C    1.458    36 C    1.391    80 H    0.968
                            38 C    0.106
    48   8 O    2.028 --    35 C    1.704    34 N    0.185
    49   1 H    0.999 --     1 C    0.968
    50   1 H    0.998 --     2 C    0.971
    51   1 H    0.998 --     3 C    0.971
    52   1 H    0.999 --     4 C    0.971
    53   1 H    1.000 --     5 C    0.967
    54   1 H    0.995 --     7 C    0.952
    55   1 H    0.993 --     8 C    0.953
    56   1 H    0.998 --    10 C    0.964
    57   1 H    0.998 --    11 C    0.971
    58   1 H    0.998 --    12 C    0.971
    59   1 H    0.998 --    13 C    0.970
    60   1 H    0.997 --    14 C    0.966
    61   1 H    0.997 --    18 C    0.969
    62   1 H    0.998 --    19 C    0.967
    63   1 H    0.999 --    22 C    0.969
    64   1 H    0.998 --    23 C    0.971
    65   1 H    0.998 --    24 C    0.971
    66   1 H    0.998 --    25 C    0.970
    67   1 H    0.999 --    26 C    0.966
    68   1 H    0.998 --    27 C    0.967
    69   1 H    0.999 --    28 C    0.966
    70   1 H    0.994 --    30 C    0.915
    71   1 H    0.881 --    32 O    0.856
    72   1 H    0.997 --    37 C    0.966
    73   1 H    0.998 --    38 C    0.967
    74   1 H    0.999 --    41 C    0.968
    75   1 H    0.998 --    42 C    0.971
    76   1 H    0.999 --    43 C    0.971
    77   1 H    0.998 --    44 C    0.971
    78   1 H    0.999 --    45 C    0.968
    79   1 H    0.998 --    46 C    0.967
    80   1 H    0.997 --    47 C    0.968
 ---------------------------------------------------------------------------

molecular dipole:
                 x           y           z       tot (Debye)
 q only:        1.147       1.072       0.015
   full:        1.305       1.403       0.130       4.882

           -------------------------------------------------
          | TOTAL ENERGY             -128.389997781186 Eh   |
          | GRADIENT NORM               0.000531074752 Eh/Î± |
          | HOMO-LUMO GAP               3.356029318285 eV   |
           -------------------------------------------------

 * finished run on 2022/03/17 at 00:09:51.176
