   * xtb version 6.3.3 (4ae9cef) compiled by 'conda@95abc7406d43' on 2020-10-14
          program call               : xtb acid_272.xyz --opt --chrg 0 --uhf 0 --gfn 2
          number of atoms            :                    78
          number of electrons        :                   262
          charge                     :                     0
          spin                       :                   0.0

   ID    Z sym.   atoms
    1    6 C      1, 2, 6-15, 19-22, 24-34, 36, 37, 41-51
    2    9 F      3-5, 16-18
    3    7 N      23, 40
    4    8 O      35, 38, 39, 52
    5    1 H      53-78

          :  Hamiltonian                  GFN2-xTB          :
 * total energy  :  -149.4735862 Eh     change       -0.5439347E-08 Eh
 * total energy  :  -149.4944180 Eh     change       -0.2083181E-01 Eh
 * total energy  :  -149.5009262 Eh     change       -0.6508143E-02 Eh
 * total energy  :  -149.5031161 Eh     change       -0.2189925E-02 Eh
 * total energy  :  -149.5049326 Eh     change       -0.1816519E-02 Eh
 * total energy  :  -149.5063797 Eh     change       -0.1447031E-02 Eh
 * total energy  :  -149.5075772 Eh     change       -0.1197587E-02 Eh
 * total energy  :  -149.5086632 Eh     change       -0.1085923E-02 Eh
 * total energy  :  -149.5096522 Eh     change       -0.9890369E-03 Eh
 * total energy  :  -149.5104152 Eh     change       -0.7629987E-03 Eh
 * total energy  :  -149.5131420 Eh     change       -0.2295082E-04 Eh
 * total energy  :  -149.5131604 Eh     change       -0.1833768E-04 Eh
 * total energy  :  -149.5131744 Eh     change       -0.1402576E-04 Eh
 * total energy  :  -149.5131831 Eh     change       -0.8674172E-05 Eh
 * total energy  :  -149.5131886 Eh     change       -0.5567280E-05 Eh
 * total energy  :  -149.5131942 Eh     change       -0.5559561E-05 Eh
 * total energy  :  -149.5132019 Eh     change       -0.7730737E-05 Eh
 * total energy  :  -149.5132127 Eh     change       -0.1073038E-04 Eh
 * total energy  :  -149.5132162 Eh     change       -0.3591925E-05 Eh
   *** GEOMETRY OPTIMIZATION CONVERGED AFTER 44 ITERATIONS ***

 final structure:
================
78
 xtb: 6.3.3 (4ae9cef)
C        -2.59338859713256   -1.97686923542953   -0.12682099980286
C        -2.40882308547515   -3.08956172577248    0.86937831684248
F        -3.44168127590739   -3.93794276983728    0.89816138593826
F        -2.25183001295113   -2.67179521828620    2.14193684745576
F        -1.31817804917578   -3.83473300813785    0.60444967666138
C        -3.73035029967333   -1.99282736730230   -0.92598228068195
C        -3.89779467993792   -1.05354436821732   -1.92526404507816
C        -2.91415645344394   -0.10732005793623   -2.14924462666582
C        -1.79203491926108   -0.08033742097377   -1.34544332626484
C        -1.62069281960853   -0.99228058715421   -0.30918012542753
C        -0.36026557049318   -0.90413891247146    0.51432872944307
C         0.87845729461966   -1.26847132424016   -0.34605397189658
C         1.41527472038618   -2.64770815052917   -0.04856227608014
C         1.28638622976757   -3.71458384377963   -0.93968391826653
C         0.59055401494730   -3.55202595853555   -2.26164632085258
F        -0.69299501319595   -3.13107922115993   -2.12662263838230
F         1.16786153400525   -2.65377847523909   -3.07834284449648
F         0.51696733207050   -4.68932619087474   -2.96185993944864
C         1.79777158879891   -4.96478710740182   -0.61463808804688
C         2.43843704482482   -5.16336102368827    0.59352273115676
C         2.57026508279068   -4.11102556895631    1.48170693897979
C         2.06010530300770   -2.86675458424782    1.16283012249705
N         1.84890732130700   -0.22954547954401   -0.03239020724727
C         3.11875824977695   -0.28088141340311   -0.53499681474273
C         3.95018081188878    0.91688932288579   -0.20899708961639
C         3.66019678712448    2.16919967145145   -0.80808280294637
C         2.63632365262485    2.33318361065492   -1.76783374738795
C         2.36656051901650    3.56341240975566   -2.29934440503565
C         3.11023443022758    4.68611793084301   -1.90395753400050
C         4.12561205820698    4.55426665016616   -0.99930134457007
C         4.43311211348729    3.29903924443502   -0.43252165476648
C         5.48634291769353    3.13463507315319    0.49137481072660
C         5.77326481561209    1.90450117957530    1.01286497266454
C         5.00230723657072    0.78773893802919    0.66066146718744
O         3.50382503850079   -1.22424764851612   -1.18702262403303
C         1.31753394876087    0.80046876986740    0.80870583369433
C         2.02417309802623    0.86165037995145    2.20021693718735
O         1.73385338080426    1.93282995855705    2.90495549280394
O         2.76155976648491   -0.00441456945845    2.57457285935900
N        -0.08769496858653    0.45799145492627    0.95942246437996
C        -0.94773408123272    1.39709907995924    1.41020076342786
C        -2.37538720183919    1.00399271054957    1.53029209171561
C        -2.74134432487411    0.12454651364113    2.51769859921635
C        -4.07839225618333   -0.27310259861716    2.65453997649437
C        -5.02777563681094    0.19848080542328    1.79295046111356
C        -4.69402798537288    1.13628780351848    0.79359995270647
C        -3.35136834613146    1.58038195730184    0.67799378226949
C        -3.03497117688945    2.55604957294342   -0.28952341298078
C        -4.00117700610225    3.05420568454207   -1.11807126758618
C        -5.32231026052341    2.59087155713514   -1.02862448542826
C        -5.66137496271066    1.65668105843229   -0.09101630710686
O        -0.53140489430053    2.50940823071836    1.72731905524410
H        -4.47850295234406   -2.75378995810872   -0.77047297810500
H        -4.78378107471313   -1.07591598127947   -2.53927511892673
H        -3.02017983559544    0.61052501292929   -2.94733776745432
H        -1.03018427465727    0.66532735709907   -1.51777034058611
H        -0.39649836342213   -1.56170344370187    1.38906098874625
H         0.62661053613834   -1.18230440775292   -1.40908042168213
H         1.69480198282090   -5.78073191865256   -1.31259942133084
H         2.83608022490455   -6.13678531278751    0.83472210345237
H         3.07444367855918   -4.25367685640005    2.42511626718669
H         2.19187881143532   -2.04515110185833    1.85056511524974
H         2.08506170199405    1.46310024729163   -2.09693882372332
H         1.58293881696771    3.67841142976660   -3.03400847571940
H         2.87974047347396    5.65083176217418   -2.33084698508323
H         4.71443676189188    5.41113397824051   -0.70549490573836
H         6.06627215178533    4.00158528961594    0.77308132368847
H         6.58855846586497    1.78198765568075    1.70929632977475
H         5.21732338239480   -0.17619170394281    1.09468957689895
H         1.39717016533222    1.80185722199661    0.34773804462258
H         0.97459244176230    2.44627167988150    2.51397341989122
H        -1.99984898171716   -0.27187782307392    3.19482379353941
H        -4.33880382696123   -0.97000059472742    3.43567690304225
H        -6.05417522072865   -0.12823570027743    1.87402138157669
H        -2.02249288037185    2.92544545482586   -0.35008637978561
H        -3.75304829730345    3.81081690765537   -1.84753338130045
H        -6.07000539400174    2.98812248261057   -1.69883460548504
H        -6.68006290704547    1.30746058408017   -0.00514081309372

          :  Hamiltonian                  GFN2-xTB          :
         :: total energy            -149.513216250331 Eh    ::
         :: gradient norm              0.000323990568 Eh/a0 ::
         :: HOMO-LUMO gap              2.701417854762 eV    ::
         :: SCC energy              -151.506207961920 Eh    ::
         :: -> dispersion             -0.127059430407 Eh    ::
         :: repulsion energy           1.987329991140 Eh    ::

    * Orbital Energies and Occupations

         #    Occupation            Energy/Eh            Energy/eV
      -------------------------------------------------------------
         1        2.0000           -0.8913253             -24.2542
       ...           ...                  ...                  ...
       119        2.0000           -0.4388844             -11.9427
       120        2.0000           -0.4367266             -11.8839
       121        2.0000           -0.4320833             -11.7576
       122        2.0000           -0.4294657             -11.6864
       123        2.0000           -0.4284313             -11.6582
       124        2.0000           -0.4274866             -11.6325
       125        2.0000           -0.4245261             -11.5519
       126        2.0000           -0.4243816             -11.5480
       127        2.0000           -0.4125057             -11.2249
       128        2.0000           -0.4051893             -11.0258
       129        2.0000           -0.4026458             -10.9565
       130        2.0000           -0.3987131             -10.8495
       131        2.0000           -0.3901059             -10.6153 (HOMO)
       132                         -0.2908306              -7.9139 (LUMO)
       133                         -0.2783782              -7.5751
       134                         -0.2751909              -7.4883
       135                         -0.2719814              -7.4010
       136                         -0.2584963              -7.0340
       137                         -0.2569608              -6.9923
       138                         -0.2547756              -6.9328
       139                         -0.2521602              -6.8616
       140                         -0.2475993              -6.7375
       141                         -0.2403118              -6.5392
       142                         -0.2251977              -6.1279
       ...                                ...                  ...
       234                          0.6836927              18.6042
      -------------------------------------------------------------
                  HL-Gap            0.0992753 Eh            2.7014 eV

     #   Z          covCN         q      C6AA      Î±(0)
     1   6 C        2.975    -0.029    28.720     8.791
     2   6 C        3.335     0.485    17.306     6.590
     3   9 F        0.792    -0.197    11.201     3.953
     4   9 F        0.791    -0.213    11.370     3.983
     5   9 F        0.791    -0.212    11.359     3.981
     6   6 C        2.924    -0.020    28.499     8.754
     7   6 C        2.921    -0.020    28.513     8.756
     8   6 C        2.918    -0.016    28.402     8.739
     9   6 C        2.928    -0.025    28.623     8.774
    10   6 C        2.971     0.011    27.776     8.645
    11   6 C        3.813     0.041    19.872     6.345
    12   6 C        3.820     0.052    19.697     6.316
    13   6 C        2.971     0.022    27.523     8.605
    14   6 C        2.975    -0.023    28.586     8.770
    15   6 C        3.335     0.486    17.298     6.588
    16   9 F        0.791    -0.230    11.554     4.015
    17   9 F        0.791    -0.204    11.278     3.967
    18   9 F        0.792    -0.199    11.228     3.958
    19   6 C        2.924    -0.019    28.485     8.752
    20   6 C        2.920    -0.021    28.520     8.758
    21   6 C        2.919    -0.015    28.391     8.738
    22   6 C        2.926    -0.027    28.687     8.784
    23   7 N        2.761    -0.119    23.589     7.213
    24   6 C        2.763     0.278    22.291     7.732
    25   6 C        2.974    -0.028    28.692     8.786
    26   6 C        2.987     0.007    27.849     8.657
    27   6 C        2.917    -0.039    28.963     8.825
    28   6 C        2.916    -0.028    28.709     8.786
    29   6 C        2.915    -0.029    28.724     8.789
    30   6 C        2.919    -0.032    28.800     8.800
    31   6 C        2.986     0.015    27.667     8.628
    32   6 C        2.918    -0.033    28.817     8.803
    33   6 C        2.915    -0.025    28.629     8.774
    34   6 C        2.921    -0.018    28.448     8.747
    35   8 O        0.859    -0.410    21.881     6.272
    36   6 C        3.756     0.078    19.328     6.268
    37   6 C        2.684     0.350    21.062     7.510
    38   8 O        1.655    -0.363    20.150     6.060
    39   8 O        0.856    -0.366    21.007     6.145
    40   7 N        2.760    -0.112    23.437     7.190
    41   6 C        2.768     0.272    22.403     7.752
    42   6 C        2.974    -0.023    28.577     8.769
    43   6 C        2.922    -0.028    28.712     8.787
    44   6 C        2.915    -0.028    28.698     8.785
    45   6 C        2.919    -0.034    28.835     8.806
    46   6 C        2.987     0.014    27.698     8.633
    47   6 C        2.988     0.015    27.661     8.627
    48   6 C        2.917    -0.033    28.814     8.802
    49   6 C        2.917    -0.028    28.689     8.783
    50   6 C        2.916    -0.028    28.705     8.786
    51   6 C        2.919    -0.034    28.845     8.807
    52   8 O        0.860    -0.459    22.894     6.415
    53   1 H        0.926     0.072     2.062     2.246
    54   1 H        0.926     0.062     2.175     2.306
    55   1 H        0.926     0.060     2.199     2.319
    56   1 H        0.926     0.052     2.290     2.367
    57   1 H        0.924     0.064     2.150     2.293
    58   1 H        0.924     0.062     2.172     2.305
    59   1 H        0.926     0.067     2.118     2.276
    60   1 H        0.926     0.057     2.231     2.336
    61   1 H        0.926     0.060     2.204     2.321
    62   1 H        0.926     0.076     2.024     2.225
    63   1 H        0.925     0.026     2.649     2.545
    64   1 H        0.926     0.033     2.542     2.493
    65   1 H        0.926     0.036     2.500     2.473
    66   1 H        0.926     0.039     2.466     2.456
    67   1 H        0.926     0.042     2.427     2.436
    68   1 H        0.926     0.046     2.375     2.410
    69   1 H        0.926     0.055     2.260     2.351
    70   1 H        0.922     0.066     2.127     2.281
    71   1 H        0.800     0.367     0.551     1.167
    72   1 H        0.926     0.044     2.399     2.422
    73   1 H        0.926     0.051     2.307     2.375
    74   1 H        0.926     0.045     2.387     2.416
    75   1 H        0.926     0.040     2.455     2.450
    76   1 H        0.926     0.040     2.448     2.447
    77   1 H        0.926     0.040     2.448     2.446
    78   1 H        0.926     0.040     2.444     2.445

Wiberg/Mayer (AO) data.
largest (>0.10) Wiberg bond orders for each atom

     #   Z sym  total        # sym  WBO       # sym  WBO       # sym  WBO
 ---------------------------------------------------------------------------
     1   6 C    3.970 --     6 C    1.413    10 C    1.384     2 C    0.951
                             8 C    0.104
     2   6 C    3.823 --     3 F    0.959     1 C    0.951     5 F    0.939
                             4 F    0.936
     3   9 F    1.082 --     2 C    0.959
     4   9 F    1.066 --     2 C    0.936
     5   9 F    1.068 --     2 C    0.939
     6   6 C    3.986 --     7 C    1.442     1 C    1.413    53 H    0.965
                             9 C    0.108
     7   6 C    3.988 --     6 C    1.442     8 C    1.432    54 H    0.968
                            10 C    0.107
     8   6 C    3.989 --     9 C    1.448     7 C    1.432    55 H    0.968
                             1 C    0.104
     9   6 C    3.990 --     8 C    1.448    10 C    1.407    56 H    0.965
                             6 C    0.108
    10   6 C    3.986 --     9 C    1.407     1 C    1.384    11 C    0.995
                             7 C    0.107
    11   6 C    3.966 --    10 C    0.995    40 N    0.960    57 H    0.953
                            12 C    0.948
    12   6 C    3.968 --    13 C    0.991    23 N    0.961    58 H    0.952
                            11 C    0.948
    13   6 C    3.986 --    22 C    1.413    14 C    1.383    12 C    0.991
                            20 C    0.108
    14   6 C    3.969 --    19 C    1.414    13 C    1.383    15 C    0.952
                            21 C    0.105
    15   6 C    3.818 --    18 F    0.958    14 C    0.952    17 F    0.946
                            16 F    0.922
    16   9 F    1.048 --    15 C    0.922
    17   9 F    1.077 --    15 C    0.946
    18   9 F    1.080 --    15 C    0.958
    19   6 C    3.987 --    20 C    1.442    14 C    1.414    59 H    0.966
                            22 C    0.109
    20   6 C    3.989 --    19 C    1.442    21 C    1.436    60 H    0.969
                            13 C    0.108
    21   6 C    3.990 --    22 C    1.444    20 C    1.436    61 H    0.969
                            14 C    0.105
    22   6 C    3.986 --    21 C    1.444    13 C    1.413    62 H    0.957
                            19 C    0.109
    23   7 N    3.445 --    24 C    1.178    36 C    1.001    12 C    0.961
                            35 O    0.185
    24   6 C    3.940 --    35 O    1.712    23 N    1.178    25 C    0.962
    25   6 C    3.985 --    34 C    1.519    26 C    1.246    24 C    0.962
                            32 C    0.115
    26   6 C    3.989 --    27 C    1.277    31 C    1.255    25 C    1.246
    27   6 C    3.992 --    28 C    1.555    26 C    1.277    63 H    0.966
                            30 C    0.118
    28   6 C    3.992 --    27 C    1.555    29 C    1.320    64 H    0.971
    29   6 C    3.992 --    30 C    1.558    28 C    1.320    65 H    0.971
    30   6 C    3.990 --    29 C    1.558    31 C    1.278    66 H    0.968
                            27 C    0.118
    31   6 C    3.990 --    30 C    1.278    32 C    1.278    26 C    1.255
    32   6 C    3.991 --    33 C    1.556    31 C    1.278    67 H    0.968
                            25 C    0.115
    33   6 C    3.991 --    32 C    1.556    34 C    1.323    68 H    0.969
    34   6 C    3.989 --    25 C    1.519    33 C    1.323    69 H    0.968
    35   8 O    2.036 --    24 C    1.712    23 N    0.185
    36   6 C    3.957 --    23 N    1.001    40 N    0.967    70 H    0.932
                            37 C    0.887
    37   6 C    3.930 --    39 O    1.774    38 O    1.207    36 C    0.887
    38   8 O    2.241 --    37 C    1.207    71 H    0.773    39 O    0.182
    39   8 O    2.081 --    37 C    1.774    38 O    0.182
    40   7 N    3.492 --    41 C    1.255    36 C    0.967    11 C    0.960
                            52 O    0.184
    41   6 C    3.938 --    52 O    1.599    40 N    1.255    42 C    0.976
    42   6 C    3.984 --    43 C    1.511    47 C    1.241    41 C    0.976
                            45 C    0.113
    43   6 C    3.990 --    42 C    1.511    44 C    1.323    72 H    0.969
    44   6 C    3.990 --    45 C    1.554    43 C    1.323    73 H    0.968
    45   6 C    3.991 --    44 C    1.554    46 C    1.278    74 H    0.967
                            42 C    0.113
    46   6 C    3.990 --    51 C    1.279    45 C    1.278    47 C    1.253
    47   6 C    3.988 --    48 C    1.283    46 C    1.253    42 C    1.241
    48   6 C    3.991 --    49 C    1.553    47 C    1.283    75 H    0.966
                            51 C    0.118
    49   6 C    3.991 --    48 C    1.553    50 C    1.323    76 H    0.970
    50   6 C    3.992 --    51 C    1.556    49 C    1.323    77 H    0.970
    51   6 C    3.990 --    50 C    1.556    46 C    1.279    78 H    0.968
                            48 C    0.118
    52   8 O    2.006 --    41 C    1.599    40 N    0.184
    53   1 H    0.994 --     6 C    0.965
    54   1 H    0.995 --     7 C    0.968
    55   1 H    0.996 --     8 C    0.968
    56   1 H    0.997 --     9 C    0.965
    57   1 H    0.995 --    11 C    0.953
    58   1 H    0.996 --    12 C    0.952
    59   1 H    0.995 --    19 C    0.966
    60   1 H    0.996 --    20 C    0.969
    61   1 H    0.996 --    21 C    0.969
    62   1 H    0.994 --    22 C    0.957
    63   1 H    0.999 --    27 C    0.966
    64   1 H    0.998 --    28 C    0.971
    65   1 H    0.998 --    29 C    0.971
    66   1 H    0.998 --    30 C    0.968
    67   1 H    0.997 --    32 C    0.968
    68   1 H    0.997 --    33 C    0.969
    69   1 H    0.997 --    34 C    0.968
    70   1 H    0.995 --    36 C    0.932
    71   1 H    0.865 --    38 O    0.773
    72   1 H    0.998 --    43 C    0.969
    73   1 H    0.996 --    44 C    0.968
    74   1 H    0.997 --    45 C    0.967
    75   1 H    0.998 --    48 C    0.966
    76   1 H    0.998 --    49 C    0.970
    77   1 H    0.998 --    50 C    0.970
    78   1 H    0.998 --    51 C    0.968
 ---------------------------------------------------------------------------

molecular dipole:
                 x           y           z       tot (Debye)
 q only:       -1.748       1.153      -0.172
   full:       -2.014       1.340      -0.310       6.200

           -------------------------------------------------
          | TOTAL ENERGY             -149.513216250331 Eh   |
          | GRADIENT NORM               0.000323990568 Eh/Î± |
          | HOMO-LUMO GAP               2.701417854762 eV   |
           -------------------------------------------------

 * finished run on 2022/03/16 at 23:14:28.002
