   * xtb version 6.3.3 (4ae9cef) compiled by 'conda@95abc7406d43' on 2020-10-14
          program call               : xtb acid_401.xyz --opt --chrg 0 --uhf 0 --gfn 2
          number of atoms            :                    60
          number of electrons        :                   218
          charge                     :                     0
          spin                       :                   0.0

   ID    Z sym.   atoms
    1    6 C      1-14, 16-19, 24, 25, 27, 28, 32-35, 40, 41
    2    7 N      15, 31
    3    9 F      20-22, 36-38
    4    8 O      23, 26, 29, 30, 39, 42
    5    1 H      43-60

          :  Hamiltonian                  GFN2-xTB          :
 * total energy  :  -127.7994944 Eh     change       -0.2048523E-08 Eh
 * total energy  :  -127.8140442 Eh     change       -0.1454986E-01 Eh
 * total energy  :  -127.8185555 Eh     change       -0.4511276E-02 Eh
 * total energy  :  -127.8194088 Eh     change       -0.8532818E-03 Eh
 * total energy  :  -127.8198227 Eh     change       -0.4139049E-03 Eh
 * total energy  :  -127.8200618 Eh     change       -0.2390731E-03 Eh
 * total energy  :  -127.8203014 Eh     change       -0.2396535E-03 Eh
 * total energy  :  -127.8205676 Eh     change       -0.2661628E-03 Eh
 * total energy  :  -127.8208763 Eh     change       -0.3086653E-03 Eh
 * total energy  :  -127.8211938 Eh     change       -0.3175408E-03 Eh
 * total energy  :  -127.8231280 Eh     change       -0.1106389E-04 Eh
 * total energy  :  -127.8231428 Eh     change       -0.1472955E-04 Eh
 * total energy  :  -127.8231611 Eh     change       -0.1834922E-04 Eh
 * total energy  :  -127.8231699 Eh     change       -0.8790748E-05 Eh
 * total energy  :  -127.8231784 Eh     change       -0.8449727E-05 Eh
 * total energy  :  -127.8231847 Eh     change       -0.6366173E-05 Eh
 * total energy  :  -127.8231927 Eh     change       -0.7918601E-05 Eh
 * total energy  :  -127.8231993 Eh     change       -0.6629135E-05 Eh
 * total energy  :  -127.8232026 Eh     change       -0.3322788E-05 Eh
   *** GEOMETRY OPTIMIZATION CONVERGED AFTER 49 ITERATIONS ***

 final structure:
================
60
 xtb: 6.3.3 (4ae9cef)
C         0.77101455137706   -3.92017812474844    1.15333019416443
C         0.79408037896359   -4.72519176660101    2.27872023920177
C         0.30147221162449   -4.25189730681333    3.48241172508184
C        -0.21331057904467   -2.96867780343311    3.55876999709160
C        -0.23654049907357   -2.16392513342550    2.43453930250483
C         0.25261435530393   -2.63545238628179    1.22220084350021
C         0.23200953984065   -1.75560409172362   -0.00324123217594
C        -1.17828100880600   -1.24063852033158   -0.36270864495553
C        -1.45178477178951   -1.28195495988307   -1.85032669890301
C        -1.88742665179999   -0.16765344658836   -2.55004600964107
C        -2.12088128968240   -0.24531869135980   -3.91285250827338
C        -1.92917765327472   -1.43727277783491   -4.58679038765279
C        -1.52029007265820   -2.56084732336141   -3.88796960810959
C        -1.28631934300821   -2.48487950474670   -2.52798986680168
N        -1.17987482209593    0.10265519297947    0.19738505601860
C        -2.27218264255057    0.63330636474303    0.79815360286269
C        -2.03996450089476    1.94083455317296    1.48688018225563
C        -2.41140637482849    3.19649271382686    1.08676810999887
C        -3.03887411653510    3.68382382270872   -0.17596703924539
F        -4.24560443688396    4.22755441553701    0.01962719163200
F        -3.18625638890418    2.70270159003506   -1.06930251866250
F        -2.29246766007908    4.63169604973808   -0.77585784922968
O        -2.11013097247647    4.10862780443871    2.03007708324994
C        -1.55570034724023    3.44938302349863    3.04988706192234
C        -1.48168364210952    2.11645150540703    2.78335488054007
O        -3.34731067478350    0.08264986417116    0.81565791535353
C         0.15441845531171    0.64106308209148    0.18901766271924
C         0.40649990997966    1.47159083189420   -1.09379913730997
O        -0.29240175721067    2.60226942325302   -1.05520212698473
O         1.14576389457780    1.15350915872162   -1.97577501606925
N         0.99020687359967   -0.52849482473311    0.23541902974721
C         2.34600239270029   -0.56117835764951    0.21035450039459
C         3.00226028606666    0.76868327369342    0.36295087664161
C         3.84367457003308    1.37703545529159   -0.53006518186217
C         4.27926435604987    0.99248353628052   -1.90800358764231
F         3.71229887921041   -0.12912709863200   -2.33479578750835
F         3.99134595577684    1.95406603905915   -2.80179300805430
F         5.61067370852955    0.81463199720528   -1.97672249416329
O         4.29806655211224    2.54404321315242   -0.03743763493069
C         3.77122385284740    2.68850633738591    1.18142230010382
C         2.96346699259555    1.63673625984527    1.48815584299306
O         2.97127885511483   -1.59090117793357    0.12154364868054
H         1.16901780650438   -4.28433870330105    0.21853952990522
H         1.20137053795056   -5.72298417282796    2.21616443466907
H         0.32042167181559   -4.87930718529690    4.36088240685450
H        -0.59789623022609   -2.59457780757995    4.49624916152362
H        -0.64354056620302   -1.16482121184050    2.49913280300020
H         0.69744610207629   -2.28440946681375   -0.84076498148093
H        -1.95585240136484   -1.81492616158440    0.15523944584991
H        -2.07384674920657    0.76088132503683   -2.03454301993824
H        -2.45848843835136    0.63128690080611   -4.44484186411780
H        -2.10732905415378   -1.49486680601939   -5.64988386451788
H        -1.38495330596647   -3.50000550812178   -4.40302170660294
H        -0.98349161739725   -3.36846608577426   -1.98506567967432
H        -1.25917936560699    4.02466174173869    3.90441093516793
H        -1.10148791804477    1.34718760957383    3.42366064851334
H         0.31532181494673    1.30943600330052    1.04694538505947
H        -0.17186673221531    3.12356356582567   -1.86816366063034
H         4.04142832880883    3.56786004868232    1.73172076180580
H         2.43316175074592    1.47222470213881    2.40335335613519

          :  Hamiltonian                  GFN2-xTB          :
         :: total energy            -127.823202605630 Eh    ::
         :: gradient norm              0.000414792806 Eh/a0 ::
         :: HOMO-LUMO gap              3.361325056498 eV    ::
         :: SCC energy              -129.235307616212 Eh    ::
         :: -> dispersion             -0.085455094891 Eh    ::
         :: repulsion energy           1.409038384442 Eh    ::

    * Orbital Energies and Occupations

         #    Occupation            Energy/Eh            Energy/eV
      -------------------------------------------------------------
         1        2.0000           -0.9004226             -24.5017
       ...           ...                  ...                  ...
        97        2.0000           -0.4502136             -12.2509
        98        2.0000           -0.4465929             -12.1524
        99        2.0000           -0.4436632             -12.0727
       100        2.0000           -0.4371323             -11.8950
       101        2.0000           -0.4359294             -11.8622
       102        2.0000           -0.4319931             -11.7551
       103        2.0000           -0.4280415             -11.6476
       104        2.0000           -0.4223439             -11.4926
       105        2.0000           -0.4204274             -11.4404
       106        2.0000           -0.4187685             -11.3953
       107        2.0000           -0.4141074             -11.2684
       108        2.0000           -0.4117009             -11.2030
       109        2.0000           -0.4086476             -11.1199 (HOMO)
       110                         -0.2851212              -7.7585 (LUMO)
       111                         -0.2790467              -7.5932
       112                         -0.2729243              -7.4266
       113                         -0.2498647              -6.7992
       114                         -0.2434826              -6.6255
       115                         -0.2419348              -6.5834
       116                         -0.2369643              -6.4481
       117                         -0.2333602              -6.3501
       118                         -0.2318881              -6.3100
       119                         -0.2231515              -6.0723
       120                         -0.2050009              -5.5784
       ...                                ...                  ...
       186                          0.6565730              17.8663
      -------------------------------------------------------------
                  HL-Gap            0.1235264 Eh            3.3613 eV

     #   Z          covCN         q      C6AA      Î±(0)
     1   6 C        2.924    -0.027    28.675     8.782
     2   6 C        2.920    -0.024    28.606     8.771
     3   6 C        2.920    -0.027    28.684     8.783
     4   6 C        2.919    -0.028    28.698     8.785
     5   6 C        2.924    -0.033    28.829     8.805
     6   6 C        2.973     0.005    27.897     8.664
     7   6 C        3.828     0.036    19.955     6.356
     8   6 C        3.830     0.035    19.958     6.356
     9   6 C        2.971     0.003    27.961     8.674
    10   6 C        2.923    -0.032    28.805     8.801
    11   6 C        2.921    -0.024    28.601     8.770
    12   6 C        2.920    -0.027    28.666     8.780
    13   6 C        2.920    -0.024    28.612     8.772
    14   6 C        2.925    -0.035    28.879     8.813
    15   7 N        2.771    -0.096    23.123     7.142
    16   6 C        2.755     0.277    22.322     7.737
    17   6 C        3.068    -0.034    28.775     8.796
    18   6 C        3.141     0.082    25.945     8.335
    19   6 C        3.330     0.490    17.310     6.602
    20   9 F        0.791    -0.187    11.099     3.935
    21   9 F        0.792    -0.193    11.158     3.946
    22   9 F        0.791    -0.201    11.244     3.961
    23   8 O        1.730    -0.143    16.460     5.478
    24   6 C        3.074     0.080    26.131     8.381
    25   6 C        3.023    -0.061    29.490     8.908
    26   8 O        0.859    -0.392    21.514     6.219
    27   6 C        3.760     0.084    19.226     6.251
    28   6 C        2.687     0.351    21.043     7.507
    29   8 O        1.659    -0.373    20.330     6.087
    30   8 O        0.856    -0.367    21.034     6.149
    31   7 N        2.770    -0.106    23.325     7.173
    32   6 C        2.759     0.278    22.294     7.732
    33   6 C        3.070    -0.038    28.879     8.811
    34   6 C        3.139     0.088    25.833     8.318
    35   6 C        3.330     0.492    17.295     6.600
    36   9 F        0.791    -0.177    11.005     3.919
    37   9 F        0.791    -0.194    11.173     3.948
    38   9 F        0.792    -0.195    11.181     3.950
    39   8 O        1.730    -0.144    16.473     5.480
    40   6 C        3.074     0.078    26.175     8.388
    41   6 C        3.022    -0.066    29.621     8.927
    42   8 O        0.859    -0.391    21.510     6.218
    43   1 H        0.926     0.048     2.350     2.397
    44   1 H        0.926     0.043     2.404     2.425
    45   1 H        0.926     0.040     2.454     2.450
    46   1 H        0.926     0.036     2.507     2.476
    47   1 H        0.926     0.022     2.706     2.572
    48   1 H        0.924     0.082     1.962     2.191
    49   1 H        0.924     0.087     1.907     2.159
    50   1 H        0.926     0.033     2.547     2.496
    51   1 H        0.926     0.041     2.438     2.442
    52   1 H        0.926     0.041     2.433     2.439
    53   1 H        0.926     0.042     2.424     2.435
    54   1 H        0.926     0.035     2.513     2.479
    55   1 H        0.926     0.083     1.949     2.183
    56   1 H        0.926     0.065     2.141     2.288
    57   1 H        0.923     0.069     2.102     2.267
    58   1 H        0.804     0.357     0.572     1.188
    59   1 H        0.926     0.081     1.968     2.194
    60   1 H        0.926     0.059     2.215     2.328

Wiberg/Mayer (AO) data.
largest (>0.10) Wiberg bond orders for each atom

     #   Z sym  total        # sym  WBO       # sym  WBO       # sym  WBO
 ---------------------------------------------------------------------------
     1   6 C    3.989 --     2 C    1.441     6 C    1.417    43 H    0.967
                             4 C    0.111
     2   6 C    3.991 --     3 C    1.442     1 C    1.441    44 H    0.970
                             5 C    0.112
     3   6 C    3.990 --     2 C    1.442     4 C    1.436    45 H    0.971
                             6 C    0.110
     4   6 C    3.992 --     5 C    1.448     3 C    1.436    46 H    0.971
                             1 C    0.111
     5   6 C    3.992 --     4 C    1.448     6 C    1.410    47 H    0.968
                             2 C    0.112
     6   6 C    3.985 --     1 C    1.417     5 C    1.410     7 C    0.986
                             3 C    0.110
     7   6 C    3.954 --     6 C    0.986     8 C    0.959    48 H    0.950
                            31 N    0.947
     8   6 C    3.954 --     9 C    0.983     7 C    0.959    15 N    0.958
                            49 H    0.943
     9   6 C    3.984 --    10 C    1.424    14 C    1.404     8 C    0.983
                            12 C    0.110
    10   6 C    3.991 --    11 C    1.434     9 C    1.424    50 H    0.965
                            13 C    0.110
    11   6 C    3.992 --    12 C    1.447    10 C    1.434    51 H    0.970
                            14 C    0.113
    12   6 C    3.991 --    11 C    1.447    13 C    1.432    52 H    0.971
                             9 C    0.110
    13   6 C    3.991 --    14 C    1.452    12 C    1.432    53 H    0.970
                            10 C    0.110
    14   6 C    3.991 --    13 C    1.452     9 C    1.404    54 H    0.968
                            11 C    0.113
    15   7 N    3.488 --    16 C    1.216    27 C    0.989     8 C    0.958
                            26 O    0.200
    16   6 C    3.956 --    26 O    1.706    15 N    1.216    17 C    0.956
    17   6 C    3.979 --    18 C    1.535    25 C    1.267    16 C    0.956
    18   6 C    3.901 --    17 C    1.535    23 O    1.126    19 C    0.957
                            24 C    0.143
    19   6 C    3.850 --    21 F    0.958    18 C    0.957    20 F    0.956
                            22 F    0.941
    20   9 F    1.090 --    19 C    0.956
    21   9 F    1.084 --    19 C    0.958
    22   9 F    1.073 --    19 C    0.941
    23   8 O    2.480 --    24 C    1.156    18 C    1.126
    24   6 C    3.903 --    25 C    1.599    23 O    1.156    55 H    0.961
                            18 C    0.143
    25   6 C    3.979 --    24 C    1.599    17 C    1.267    56 H    0.971
    26   8 O    2.048 --    16 C    1.706    15 N    0.200
    27   6 C    3.975 --    31 N    0.994    15 N    0.989    57 H    0.934
                            28 C    0.899
    28   6 C    3.922 --    30 O    1.801    29 O    1.152    27 C    0.899
    29   8 O    2.210 --    28 C    1.152    58 H    0.846    30 O    0.185
    30   8 O    2.085 --    28 C    1.801    29 O    0.185
    31   7 N    3.469 --    32 C    1.209    27 C    0.994     7 C    0.947
                            42 O    0.197
    32   6 C    3.957 --    42 O    1.708    31 N    1.209    33 C    0.964
    33   6 C    3.979 --    34 C    1.535    41 C    1.268    32 C    0.964
    34   6 C    3.906 --    33 C    1.535    39 O    1.131    35 C    0.955
                            40 C    0.143
    35   6 C    3.856 --    36 F    0.974    34 C    0.955    37 F    0.947
                            38 F    0.945
    36   9 F    1.101 --    35 C    0.974
    37   9 F    1.080 --    35 C    0.947
    38   9 F    1.079 --    35 C    0.945
    39   8 O    2.479 --    40 C    1.153    34 C    1.131
    40   6 C    3.904 --    41 C    1.601    39 O    1.153    59 H    0.962
                            34 C    0.143
    41   6 C    3.980 --    40 C    1.601    33 C    1.268    60 H    0.972
    42   8 O    2.045 --    32 C    1.708    31 N    0.197
    43   1 H    0.998 --     1 C    0.967
    44   1 H    0.998 --     2 C    0.970
    45   1 H    0.998 --     3 C    0.971
    46   1 H    0.998 --     4 C    0.971
    47   1 H    0.999 --     5 C    0.968
    48   1 H    0.992 --     7 C    0.950
    49   1 H    0.992 --     8 C    0.943
    50   1 H    0.999 --    10 C    0.965
    51   1 H    0.998 --    11 C    0.970
    52   1 H    0.998 --    12 C    0.971
    53   1 H    0.998 --    13 C    0.970
    54   1 H    0.999 --    14 C    0.968
    55   1 H    0.992 --    24 C    0.961
    56   1 H    0.995 --    25 C    0.971
    57   1 H    0.995 --    27 C    0.934
    58   1 H    0.872 --    29 O    0.846
    59   1 H    0.992 --    40 C    0.962
    60   1 H    0.996 --    41 C    0.972
 ---------------------------------------------------------------------------

molecular dipole:
                 x           y           z       tot (Debye)
 q only:       -0.239       0.260       2.084
   full:       -0.176       0.899       2.219       6.101

           -------------------------------------------------
          | TOTAL ENERGY             -127.823202605630 Eh   |
          | GRADIENT NORM               0.000414792806 Eh/Î± |
          | HOMO-LUMO GAP               3.361325056498 eV   |
           -------------------------------------------------

 * finished run on 2022/03/17 at 00:46:10.478
