   * xtb version 6.3.3 (4ae9cef) compiled by 'conda@95abc7406d43' on 2020-10-14
          program call               : xtb acid_128.xyz --opt --chrg 0 --uhf 0 --gfn 2
          number of atoms            :                   116
          number of electrons        :                   298
          charge                     :                     0
          spin                       :                   0.0

   ID    Z sym.   atoms
    1    6 C      1, 3-16, 18, 20-34, 36, 37, 41-55
    2    8 O      2, 17, 35, 38, 39, 56
    3    7 N      19, 40
    4    1 H      57-116

          :  Hamiltonian                  GFN2-xTB          :
 * total energy  :  -163.7161253 Eh     change       -0.3569227E-08 Eh
 * total energy  :  -163.7335569 Eh     change       -0.1743160E-01 Eh
 * total energy  :  -163.7400373 Eh     change       -0.6480451E-02 Eh
 * total energy  :  -163.7428717 Eh     change       -0.2834399E-02 Eh
 * total energy  :  -163.7448940 Eh     change       -0.2022222E-02 Eh
 * total energy  :  -163.7463382 Eh     change       -0.1444220E-02 Eh
 * total energy  :  -163.7474880 Eh     change       -0.1149834E-02 Eh
 * total energy  :  -163.7483768 Eh     change       -0.8887880E-03 Eh
 * total energy  :  -163.7491333 Eh     change       -0.7565063E-03 Eh
 * total energy  :  -163.7496973 Eh     change       -0.5639497E-03 Eh
 * total energy  :  -163.7595168 Eh     change       -0.9937276E-05 Eh
 * total energy  :  -163.7595248 Eh     change       -0.8038358E-05 Eh
 * total energy  :  -163.7595316 Eh     change       -0.6772895E-05 Eh
 * total energy  :  -163.7595390 Eh     change       -0.7350814E-05 Eh
 * total energy  :  -163.7595499 Eh     change       -0.1098572E-04 Eh
 * total energy  :  -163.7595620 Eh     change       -0.1204865E-04 Eh
 * total energy  :  -163.7595731 Eh     change       -0.1109645E-04 Eh
 * total energy  :  -163.7595819 Eh     change       -0.8847436E-05 Eh
 * total energy  :  -163.7595867 Eh     change       -0.4798743E-05 Eh
   *** GEOMETRY OPTIMIZATION CONVERGED AFTER 146 ITERATIONS ***

 final structure:
================
116
 xtb: 6.3.3 (4ae9cef)
C        -2.72865658970786   -2.24170167430514   -0.59907438323138
O        -2.65786092636848   -2.57360554983023    0.72155030068935
C        -3.64777796279203   -3.42121118497608    1.24939236984580
C        -3.72521997318630   -2.67788594600599   -1.46292011753814
C        -3.71803170549096   -2.28981758609038   -2.79271278269197
C        -2.71833269698507   -1.47025746453928   -3.27924304937622
C        -1.71646748010314   -1.04245755192670   -2.42546137299680
C        -1.71347872658952   -1.41042939438854   -1.09108197098235
C        -0.60078831418858   -0.97493330192801   -0.17734450823023
C         0.70694031045618   -1.74966641579505   -0.45536387026576
C         0.88009608252336   -2.85820033431516    0.54542020794367
C         1.49481828520666   -2.65260868755138    1.76610055058019
C         1.60495727791726   -3.68041560722908    2.68740226235043
C         1.08345964505046   -4.92267219230345    2.38449963514773
C         0.44816685934561   -5.14341398060911    1.17339954499495
C         0.33515477777106   -4.11506267991281    0.24708579539461
O        -0.29547289347036   -4.22271758558828   -0.95744030484680
C        -0.81228852283604   -5.47175933758734   -1.34098556913390
N         1.73957743671576   -0.72777526442827   -0.37418716302532
C         3.05380303000129   -1.05747541347887   -0.59394646442958
C         3.96605432675318    0.12387668039107   -0.61571235109311
C         4.10182005793957    0.92170607690989    0.51275084146669
C         4.93442272485762    2.03099808023443    0.48737335345456
C         5.13718481390297    2.93725273860472    1.69301946672000
C         6.62444649656525    2.93444928792986    2.07250635816236
C         4.69167692016405    4.36197405586324    1.33400912762760
C         4.33414077316092    2.48156499805459    2.91470303769991
C         5.59447484807015    2.32003952344546   -0.70240577146523
C         5.47887494171263    1.53229514448028   -1.84177410779440
C         6.20850246694379    1.93965385288590   -3.11190627360593
C         5.98847366034907    0.94432526253790   -4.25349220403702
C         7.71514546286103    2.02814789926680   -2.83323103996719
C         5.67453691789767    3.30776113785183   -3.56040723809320
C         4.66717825624023    0.40845724675261   -1.77610397276219
O         3.41999032409612   -2.20572541608967   -0.69703771731263
C         1.18524688356542    0.56205456189776   -0.67778298461054
C         1.39552238762318    0.96438009368033   -2.17185121624713
O         0.96333976953605    2.17172043475093   -2.46910049314970
O         1.91284436819797    0.22653243061241   -2.96080806691523
N        -0.22627726679838    0.41706862341892   -0.36959187840464
C        -1.04369260769443    1.47220482198849   -0.22407621175259
C        -2.40127004388720    1.14603275395422    0.28927124059561
C        -3.49036893200057    1.17407830632231   -0.56934255081512
C        -4.75181696422331    0.84478508935590   -0.09843525046197
C        -5.98714539720152    0.86812400314621   -0.98542480103626
C        -5.64773409713970    1.15428839405652   -2.45037464846291
C        -6.93045017338329    1.96877839722342   -0.47946916340700
C        -6.69352928824029   -0.49303643967553   -0.92386623476617
C        -4.88316057057644    0.50364440062633    1.24582033400643
C        -3.81030894981616    0.48572638196047    2.12562371650054
C        -3.96684271290520    0.16135380607525    3.60353349554239
C        -5.28055117705472   -0.56743093020042    3.90418846929891
C        -2.80737312132750   -0.72740002053768    4.07853132759862
C        -3.94852499127885    1.48659730059695    4.37893197508960
C        -2.55744818830165    0.81909934726201    1.62537599628502
O        -0.67215659091403    2.61455129294017   -0.49517780252601
H        -3.67160703208151   -4.38563724602582    0.73249329313031
H        -3.37366933243906   -3.58501867720083    2.29062144819362
H        -4.63813870816403   -2.95667332434154    1.20098764023071
H        -4.51089583575516   -3.32905982463519   -1.11313417810322
H        -4.50226431226214   -2.63865650016014   -3.44854728308992
H        -2.70955032308401   -1.17268084880548   -4.31623055621821
H        -0.92195940109715   -0.41682036088340   -2.80495940803797
H        -0.90869800148131   -1.13520682474651    0.86174622433027
H         0.68773221274558   -2.18296766296977   -1.46388346571426
H         1.90413901303483   -1.67932211849020    1.99056177409772
H         2.09637588367913   -3.51078376687760    3.63287631719133
H         1.16584994945167   -5.73401010638736    3.09258219521251
H         0.04754441974039   -6.12243661510200    0.96220066200415
H        -0.02647881335329   -6.23045211058522   -1.40872884855296
H        -1.25044822380346   -5.31538053999379   -2.32577866126404
H        -1.59085885436516   -5.81583049549540   -0.65109781942515
H         3.55980475929927    0.64888244820307    1.40449979698892
H         6.94916724120757    1.92305508538318    2.30748682631368
H         7.24147503812579    3.30874777435066    1.26061690127800
H         6.79102609206446    3.56332930659319    2.94472279410584
H         5.28008460831061    4.76855270386219    0.51653190832056
H         3.64555497183522    4.36695009608895    1.03450171905147
H         4.80729165865453    5.01827459546857    2.19412580059431
H         3.26550355318567    2.49985585435386    2.71142271312485
H         4.52700738590060    3.15612879466859    3.74663520469342
H         4.62371505377793    1.47920964641926    3.22164488253380
H         6.22514472655271    3.19426924250834   -0.74149145474194
H         6.36178674460797   -0.04193718529099   -3.98824861481084
H         4.93381451323866    0.86949382261781   -4.50596617524166
H         6.52494829023748    1.28234153226782   -5.13814824555623
H         7.94012625933603    2.77948624743327   -2.08108969422128
H         8.24833337090440    2.29157196762481   -3.74430869819894
H         8.08766383331257    1.06902610919224   -2.47982597438259
H         4.60228127726951    3.24944312230812   -3.73470691351974
H         6.15933856955372    3.61475160542925   -4.48475540751420
H         5.85721871554531    4.07241706974636   -2.80988208320043
H         4.53341364249341   -0.24808737560327   -2.61787344309353
H         1.62558085009707    1.35888264976552   -0.05653166096895
H         0.42707156318681    2.57797239810959   -1.72229468651887
H        -3.32446791999053    1.44535046997527   -1.59798915696556
H        -5.20358265555499    2.13980516198804   -2.56535938391768
H        -4.96364070843725    0.40466109342707   -2.84229384593382
H        -6.55862568896643    1.12792454151281   -3.04500568684970
H        -7.24397898515404    1.78068902405716    0.54406927332353
H        -7.81851953000421    2.01863898392300   -1.10575053120411
H        -6.43084511009046    2.93453111948650   -0.51049185181337
H        -6.01251402668440   -1.27669183092482   -1.24709144406780
H        -7.55876765752865   -0.49213847883502   -1.58321714379772
H        -7.03799077450774   -0.72371357452464    0.08050983182819
H        -5.86375497983968    0.25380564304799    1.61429881322097
H        -5.37005565587948   -1.46840319766134    3.30129313961576
H        -6.14081646763132    0.07159888665524    3.72136441242180
H        -5.30564670718580   -0.85603498846671    4.95287543364266
H        -3.02340957427568   -1.12510713252127    5.06766810449024
H        -1.87804405421972   -0.16926064640678    4.14714706445729
H        -2.65826801830606   -1.55869761409036    3.39388427891327
H        -4.04526972195962    1.29982817403697    5.44622007436751
H        -3.01912466349141    2.02265228424053    4.20344791041059
H        -4.77174766190865    2.12312757508168    4.06171559467983
H        -1.69318303903273    0.83989455091819    2.27058241311090

          :  Hamiltonian                  GFN2-xTB          :
         :: total energy            -163.759586739193 Eh    ::
         :: gradient norm              0.000365722334 Eh/a0 ::
         :: HOMO-LUMO gap              3.449154250166 eV    ::
         :: SCC energy              -166.174861697582 Eh    ::
         :: -> dispersion             -0.156953338768 Eh    ::
         :: repulsion energy           2.407407672821 Eh    ::

    * Orbital Energies and Occupations

         #    Occupation            Energy/Eh            Energy/eV
      -------------------------------------------------------------
         1        2.0000           -0.7423667             -20.2008
       ...           ...                  ...                  ...
       137        2.0000           -0.4114451             -11.1960
       138        2.0000           -0.4081595             -11.1066
       139        2.0000           -0.4070508             -11.0764
       140        2.0000           -0.4029181             -10.9640
       141        2.0000           -0.4028188             -10.9613
       142        2.0000           -0.4020906             -10.9414
       143        2.0000           -0.4006763             -10.9030
       144        2.0000           -0.3920848             -10.6692
       145        2.0000           -0.3892013             -10.5907
       146        2.0000           -0.3853783             -10.4867
       147        2.0000           -0.3813970             -10.3783
       148        2.0000           -0.3804222             -10.3518
       149        2.0000           -0.3729448             -10.1483 (HOMO)
       150                         -0.2461907              -6.6992 (LUMO)
       151                         -0.2411151              -6.5611
       152                         -0.2375556              -6.4642
       153                         -0.2288655              -6.2277
       154                         -0.2272075              -6.1826
       155                         -0.2260145              -6.1502
       156                         -0.2229001              -6.0654
       157                         -0.2199296              -5.9846
       158                         -0.2133332              -5.8051
       159                         -0.2109878              -5.7413
       160                         -0.1912544              -5.2043
       ...                                ...                  ...
       284                          0.6805514              18.5187
      -------------------------------------------------------------
                  HL-Gap            0.1267541 Eh            3.4492 eV

     #   Z          covCN         q      C6AA      Î±(0)
     1   6 C        2.869     0.144    24.872     8.175
     2   8 O        1.705    -0.276    18.584     5.820
     3   6 C        3.645     0.044    20.170     6.455
     4   6 C        2.918    -0.065    29.614     8.924
     5   6 C        2.921    -0.031    28.784     8.798
     6   6 C        2.917    -0.039    28.962     8.825
     7   6 C        2.924    -0.030    28.755     8.794
     8   6 C        2.973    -0.018    28.449     8.749
     9   6 C        3.821     0.039    19.898     6.348
    10   6 C        3.833     0.052    19.673     6.310
    11   6 C        2.974    -0.006    28.163     8.705
    12   6 C        2.924    -0.027    28.681     8.783
    13   6 C        2.918    -0.040    28.984     8.828
    14   6 C        2.921    -0.032    28.796     8.800
    15   6 C        2.918    -0.065    29.610     8.923
    16   6 C        2.869     0.144    24.873     8.175
    17   8 O        1.705    -0.274    18.551     5.815
    18   6 C        3.644     0.042    20.213     6.463
    19   7 N        2.764    -0.126    23.739     7.236
    20   6 C        2.766     0.279    22.272     7.729
    21   6 C        2.976    -0.026    28.645     8.779
    22   6 C        2.928    -0.049    29.223     8.865
    23   6 C        2.972     0.006    27.884     8.662
    24   6 C        3.903     0.026    20.084     6.370
    25   6 C        3.762    -0.105    22.559     6.771
    26   6 C        3.761    -0.105    22.556     6.770
    27   6 C        3.761    -0.105    22.562     6.771
    28   6 C        2.936    -0.042    29.043     8.838
    29   6 C        2.973     0.011    27.755     8.642
    30   6 C        3.903     0.027    20.073     6.368
    31   6 C        3.761    -0.111    22.670     6.787
    32   6 C        3.761    -0.105    22.551     6.770
    33   6 C        3.762    -0.106    22.563     6.771
    34   6 C        2.929    -0.034    28.855     8.809
    35   8 O        0.858    -0.410    21.874     6.271
    36   6 C        3.763     0.080    19.297     6.262
    37   6 C        2.684     0.349    21.074     7.513
    38   8 O        1.653    -0.378    20.425     6.101
    39   8 O        0.856    -0.372    21.121     6.162
    40   7 N        2.766    -0.106    23.318     7.172
    41   6 C        2.766     0.268    22.470     7.763
    42   6 C        2.978    -0.017    28.432     8.747
    43   6 C        2.928    -0.038    28.940     8.822
    44   6 C        2.973     0.010    27.781     8.646
    45   6 C        3.903     0.026    20.089     6.371
    46   6 C        3.761    -0.110    22.658     6.786
    47   6 C        3.762    -0.106    22.571     6.772
    48   6 C        3.762    -0.107    22.595     6.776
    49   6 C        2.934    -0.045    29.106     8.848
    50   6 C        2.972     0.012    27.737     8.639
    51   6 C        3.903     0.027    20.071     6.368
    52   6 C        3.760    -0.107    22.591     6.776
    53   6 C        3.761    -0.108    22.611     6.779
    54   6 C        3.763    -0.105    22.560     6.771
    55   6 C        2.931    -0.037    28.924     8.820
    56   8 O        0.860    -0.464    23.004     6.431
    57   1 H        0.924     0.040     2.453     2.449
    58   1 H        0.925     0.061     2.182     2.310
    59   1 H        0.924     0.042     2.427     2.436
    60   1 H        0.926     0.038     2.471     2.458
    61   1 H        0.926     0.040     2.450     2.448
    62   1 H        0.926     0.044     2.398     2.422
    63   1 H        0.926     0.043     2.412     2.428
    64   1 H        0.924     0.069     2.099     2.265
    65   1 H        0.924     0.073     2.049     2.239
    66   1 H        0.926     0.039     2.468     2.457
    67   1 H        0.926     0.038     2.476     2.461
    68   1 H        0.926     0.037     2.488     2.466
    69   1 H        0.926     0.037     2.485     2.465
    70   1 H        0.924     0.046     2.366     2.405
    71   1 H        0.925     0.061     2.190     2.314
    72   1 H        0.924     0.034     2.529     2.487
    73   1 H        0.926     0.029     2.604     2.524
    74   1 H        0.925     0.036     2.507     2.476
    75   1 H        0.925     0.037     2.489     2.467
    76   1 H        0.925     0.037     2.493     2.469
    77   1 H        0.925     0.037     2.488     2.467
    78   1 H        0.925     0.033     2.540     2.493
    79   1 H        0.925     0.037     2.485     2.465
    80   1 H        0.925     0.031     2.573     2.509
    81   1 H        0.925     0.036     2.500     2.473
    82   1 H        0.925     0.036     2.497     2.471
    83   1 H        0.926     0.035     2.514     2.480
    84   1 H        0.925     0.039     2.466     2.456
    85   1 H        0.925     0.046     2.368     2.407
    86   1 H        0.925     0.036     2.510     2.477
    87   1 H        0.925     0.033     2.537     2.491
    88   1 H        0.925     0.037     2.486     2.466
    89   1 H        0.925     0.035     2.511     2.478
    90   1 H        0.925     0.039     2.460     2.453
    91   1 H        0.925     0.038     2.479     2.462
    92   1 H        0.925     0.033     2.539     2.492
    93   1 H        0.926     0.061     2.188     2.313
    94   1 H        0.923     0.063     2.161     2.299
    95   1 H        0.799     0.366     0.554     1.169
    96   1 H        0.926     0.043     2.409     2.427
    97   1 H        0.925     0.040     2.453     2.449
    98   1 H        0.925     0.037     2.495     2.470
    99   1 H        0.925     0.039     2.462     2.453
   100   1 H        0.925     0.036     2.501     2.473
   101   1 H        0.925     0.040     2.446     2.446
   102   1 H        0.925     0.037     2.485     2.465
   103   1 H        0.925     0.035     2.521     2.483
   104   1 H        0.925     0.039     2.458     2.452
   105   1 H        0.925     0.034     2.530     2.487
   106   1 H        0.926     0.042     2.423     2.434
   107   1 H        0.925     0.033     2.539     2.492
   108   1 H        0.925     0.037     2.495     2.470
   109   1 H        0.925     0.038     2.473     2.459
   110   1 H        0.925     0.038     2.479     2.462
   111   1 H        0.925     0.036     2.496     2.471
   112   1 H        0.925     0.038     2.475     2.460
   113   1 H        0.925     0.041     2.435     2.440
   114   1 H        0.925     0.038     2.482     2.464
   115   1 H        0.925     0.036     2.503     2.474
   116   1 H        0.926     0.033     2.547     2.496

Wiberg/Mayer (AO) data.
largest (>0.10) Wiberg bond orders for each atom

     #   Z sym  total        # sym  WBO       # sym  WBO       # sym  WBO
 ---------------------------------------------------------------------------
     1   6 C    3.934 --     4 C    1.381     8 C    1.324     2 O    1.058
     2   8 O    2.228 --     1 C    1.058     3 C    0.983
     3   6 C    3.944 --     2 O    0.983    58 H    0.977    57 H    0.976
                            59 H    0.975
     4   6 C    3.987 --     5 C    1.431     1 C    1.381    60 H    0.964
                             7 C    0.102
     5   6 C    3.990 --     6 C    1.444     4 C    1.431    61 H    0.971
                             8 C    0.106
     6   6 C    3.991 --     5 C    1.444     7 C    1.425    62 H    0.970
     7   6 C    3.990 --     8 C    1.437     6 C    1.425    63 H    0.966
                             4 C    0.102
     8   6 C    3.983 --     7 C    1.437     1 C    1.324     9 C    0.992
                             5 C    0.106
     9   6 C    3.961 --     8 C    0.992    40 N    0.957    64 H    0.948
                            10 C    0.947
    10   6 C    3.965 --    11 C    0.995    19 N    0.963    65 H    0.948
                             9 C    0.947
    11   6 C    3.984 --    12 C    1.442    16 C    1.321    10 C    0.995
                            14 C    0.107
    12   6 C    3.990 --    11 C    1.442    13 C    1.422    66 H    0.967
                            15 C    0.102
    13   6 C    3.991 --    14 C    1.447    12 C    1.422    67 H    0.971
    14   6 C    3.991 --    13 C    1.447    15 C    1.431    68 H    0.971
                            11 C    0.107
    15   6 C    3.987 --    14 C    1.431    16 C    1.385    69 H    0.966
                            12 C    0.102
    16   6 C    3.933 --    15 C    1.385    11 C    1.321    17 O    1.058
    17   8 O    2.230 --    16 C    1.058    18 C    0.985
    18   6 C    3.946 --    17 O    0.985    71 H    0.980    70 H    0.976
                            72 H    0.976
    19   7 N    3.419 --    20 C    1.163    36 C    1.000    10 C    0.963
                            35 O    0.176
    20   6 C    3.939 --    35 O    1.720    19 N    1.163    21 C    0.966
    21   6 C    3.986 --    34 C    1.410    22 C    1.397    20 C    0.966
                            28 C    0.107
    22   6 C    3.989 --    23 C    1.418    21 C    1.397    73 H    0.964
                            29 C    0.105
    23   6 C    3.986 --    22 C    1.418    28 C    1.411    24 C    0.982
                            34 C    0.104
    24   6 C    3.990 --    27 C    1.000    26 C    0.988    25 C    0.988
                            23 C    0.982
    25   6 C    3.996 --    24 C    0.988    74 H    0.987    76 H    0.985
                            75 H    0.983
    26   6 C    3.996 --    24 C    0.988    78 H    0.987    79 H    0.985
                            77 H    0.983
    27   6 C    3.996 --    24 C    1.000    80 H    0.985    82 H    0.985
                            81 H    0.984
    28   6 C    3.991 --    29 C    1.418    23 C    1.411    83 H    0.958
                            21 C    0.107
    29   6 C    3.985 --    28 C    1.418    34 C    1.409    30 C    0.983
                            22 C    0.105
    30   6 C    3.990 --    31 C    1.000    32 C    0.988    33 C    0.986
                            29 C    0.983
    31   6 C    3.995 --    30 C    1.000    84 H    0.985    86 H    0.985
                            85 H    0.983
    32   6 C    3.996 --    30 C    0.988    89 H    0.987    88 H    0.985
                            87 H    0.983
    33   6 C    3.996 --    90 H    0.986    30 C    0.986    91 H    0.984
                            92 H    0.984
    34   6 C    3.987 --    21 C    1.410    29 C    1.409    93 H    0.961
                            23 C    0.104
    35   8 O    2.032 --    20 C    1.720    19 N    0.176
    36   6 C    3.961 --    19 N    1.000    40 N    0.967    94 H    0.938
                            37 C    0.887
    37   6 C    3.930 --    39 O    1.775    38 O    1.203    36 C    0.887
    38   8 O    2.227 --    37 C    1.203    95 H    0.755    39 O    0.182
    39   8 O    2.078 --    37 C    1.775    38 O    0.182
    40   7 N    3.507 --    41 C    1.277    36 C    0.967     9 C    0.957
                            56 O    0.184
    41   6 C    3.938 --    56 O    1.587    40 N    1.277    42 C    0.970
    42   6 C    3.985 --    55 C    1.413    43 C    1.396    41 C    0.970
                            49 C    0.105
    43   6 C    3.988 --    44 C    1.420    42 C    1.396    96 H    0.964
                            50 C    0.104
    44   6 C    3.985 --    43 C    1.420    49 C    1.404    45 C    0.983
                            55 C    0.107
    45   6 C    3.990 --    46 C    1.000    48 C    0.988    47 C    0.985
                            44 C    0.983
    46   6 C    3.996 --    45 C    1.000    99 H    0.984    97 H    0.984
                            98 H    0.983
    47   6 C    3.995 --   102 H    0.987    45 C    0.985   100 H    0.984
                           101 H    0.984
    48   6 C    3.996 --    45 C    0.988   104 H    0.984   103 H    0.983
                           105 H    0.983
    49   6 C    3.990 --    50 C    1.426    44 C    1.404   106 H    0.958
                            42 C    0.105
    50   6 C    3.985 --    49 C    1.426    55 C    1.401    51 C    0.984
                            43 C    0.104
    51   6 C    3.990 --    52 C    0.998    53 C    0.991    50 C    0.984
                            54 C    0.983
    52   6 C    3.996 --    51 C    0.998   107 H    0.985   109 H    0.984
                           108 H    0.983
    53   6 C    3.995 --    51 C    0.991   110 H    0.984   112 H    0.984
                           111 H    0.983
    54   6 C    3.995 --   115 H    0.986   114 H    0.985   113 H    0.984
                            51 C    0.983
    55   6 C    3.988 --    42 C    1.413    50 C    1.401   116 H    0.964
                            44 C    0.107
    56   8 O    2.010 --    41 C    1.587    40 N    0.184
    57   1 H    0.998 --     3 C    0.976
    58   1 H    0.996 --     3 C    0.977
    59   1 H    0.998 --     3 C    0.975
    60   1 H    0.998 --     4 C    0.964
    61   1 H    0.998 --     5 C    0.971
    62   1 H    0.998 --     6 C    0.970
    63   1 H    0.998 --     7 C    0.966
    64   1 H    0.995 --     9 C    0.948
    65   1 H    0.994 --    10 C    0.948
    66   1 H    0.998 --    12 C    0.967
    67   1 H    0.998 --    13 C    0.971
    68   1 H    0.998 --    14 C    0.971
    69   1 H    0.998 --    15 C    0.966
    70   1 H    0.998 --    18 C    0.976
    71   1 H    0.996 --    18 C    0.980
    72   1 H    0.999 --    18 C    0.976
    73   1 H    0.999 --    22 C    0.964
    74   1 H    0.999 --    25 C    0.987
    75   1 H    0.999 --    25 C    0.983
    76   1 H    0.998 --    25 C    0.985
    77   1 H    0.999 --    26 C    0.983
    78   1 H    0.999 --    26 C    0.987
    79   1 H    0.998 --    26 C    0.985
    80   1 H    0.999 --    27 C    0.985
    81   1 H    0.998 --    27 C    0.984
    82   1 H    0.999 --    27 C    0.985
    83   1 H    0.998 --    28 C    0.958
    84   1 H    0.998 --    31 C    0.985
    85   1 H    0.998 --    31 C    0.983
    86   1 H    0.998 --    31 C    0.985
    87   1 H    0.999 --    32 C    0.983
    88   1 H    0.998 --    32 C    0.985
    89   1 H    0.999 --    32 C    0.987
    90   1 H    0.998 --    33 C    0.986
    91   1 H    0.998 --    33 C    0.984
    92   1 H    0.999 --    33 C    0.984
    93   1 H    0.996 --    34 C    0.961
    94   1 H    0.995 --    36 C    0.938
    95   1 H    0.866 --    38 O    0.755
    96   1 H    0.998 --    43 C    0.964
    97   1 H    0.998 --    46 C    0.984
    98   1 H    0.999 --    46 C    0.983
    99   1 H    0.998 --    46 C    0.984
   100   1 H    0.999 --    47 C    0.984
   101   1 H    0.997 --    47 C    0.984
   102   1 H    0.999 --    47 C    0.987
   103   1 H    0.999 --    48 C    0.983
   104   1 H    0.998 --    48 C    0.984
   105   1 H    0.999 --    48 C    0.983
   106   1 H    0.998 --    49 C    0.958
   107   1 H    0.999 --    52 C    0.985
   108   1 H    0.999 --    52 C    0.983
   109   1 H    0.998 --    52 C    0.984
   110   1 H    0.998 --    53 C    0.984
   111   1 H    0.999 --    53 C    0.983
   112   1 H    0.999 --    53 C    0.984
   113   1 H    0.997 --    54 C    0.984
   114   1 H    0.999 --    54 C    0.985
   115   1 H    0.999 --    54 C    0.986
   116   1 H    0.998 --    55 C    0.964
 ---------------------------------------------------------------------------

molecular dipole:
                 x           y           z       tot (Debye)
 q only:       -2.552      -0.731       1.523
   full:       -2.817      -0.767       1.776       8.685

           -------------------------------------------------
          | TOTAL ENERGY             -163.759586739193 Eh   |
          | GRADIENT NORM               0.000365722334 Eh/Î± |
          | HOMO-LUMO GAP               3.449154250166 eV   |
           -------------------------------------------------

 * finished run on 2022/03/16 at 21:38:59.434
