   * xtb version 6.3.3 (4ae9cef) compiled by 'conda@95abc7406d43' on 2020-10-14
          program call               : xtb acid_219.xyz --opt --chrg 0 --uhf 0 --gfn 2
          number of atoms            :                    66
          number of electrons        :                   206
          charge                     :                     0
          spin                       :                   0.0

   ID    Z sym.   atoms
    1    6 C      1-22, 24-28, 31, 32, 36-40
    2    7 N      23, 35
    3    8 O      29, 30, 33, 34, 41, 42
    4    1 H      43-66

          :  Hamiltonian                  GFN2-xTB          :
 * total energy  :  -115.3121375 Eh     change       -0.7670963E-08 Eh
 * total energy  :  -115.3260221 Eh     change       -0.1388452E-01 Eh
 * total energy  :  -115.3302146 Eh     change       -0.4192496E-02 Eh
 * total energy  :  -115.3311135 Eh     change       -0.8989479E-03 Eh
 * total energy  :  -115.3315969 Eh     change       -0.4833425E-03 Eh
 * total energy  :  -115.3318071 Eh     change       -0.2102075E-03 Eh
 * total energy  :  -115.3320593 Eh     change       -0.2522196E-03 Eh
 * total energy  :  -115.3323110 Eh     change       -0.2516932E-03 Eh
 * total energy  :  -115.3326106 Eh     change       -0.2996127E-03 Eh
 * total energy  :  -115.3329769 Eh     change       -0.3663339E-03 Eh
 * total energy  :  -115.3363394 Eh     change       -0.8448090E-05 Eh
 * total energy  :  -115.3363503 Eh     change       -0.1088863E-04 Eh
 * total energy  :  -115.3363635 Eh     change       -0.1319755E-04 Eh
 * total energy  :  -115.3363769 Eh     change       -0.1339089E-04 Eh
 * total energy  :  -115.3363887 Eh     change       -0.1183684E-04 Eh
 * total energy  :  -115.3363994 Eh     change       -0.1063656E-04 Eh
 * total energy  :  -115.3364083 Eh     change       -0.8964169E-05 Eh
 * total energy  :  -115.3364113 Eh     change       -0.2938076E-05 Eh
 * total energy  :  -115.3364161 Eh     change       -0.4876956E-05 Eh
   *** GEOMETRY OPTIMIZATION CONVERGED AFTER 66 ITERATIONS ***

 final structure:
================
66
 xtb: 6.3.3 (4ae9cef)
C        -2.82738741067125    0.11577036326653    1.26281874142102
C        -3.60180129834087    0.45113742503874    2.33831441526241
C        -3.30465081966597    1.58144298559621    3.12511737548449
C        -4.08676094553553    1.95657677440203    4.23756409243984
C        -3.77445334417429    3.07024561903833    4.96506650268496
C        -2.66579100245516    3.85842490397107    4.61559090666669
C        -1.88788265801789    3.52063882425651    3.54460107080553
C        -2.18414914297107    2.37750285703179    2.77188910129085
C        -1.40623599751149    2.00515165381191    1.65940920855975
C        -1.70548642267161    0.88988236086084    0.91824787911783
C        -0.83063095792045    0.54821965882489   -0.26968189883398
C         0.65294826480813    0.38443085771597    0.11272998594484
C         1.58518697931391    1.05898463187506   -0.86186038797667
C         2.45161201743646    2.03172767989645   -0.44246522181580
C         3.32316728217071    2.67028887249245   -1.34723634117762
C         4.22592157073973    3.67237251041577   -0.93497548722015
C         5.06070479514774    4.27244768330134   -1.83533925159692
C         5.03046532609889    3.89979807731277   -3.18846742503762
C         4.16734403649507    2.93143085695894   -3.61877364982208
C         3.29438266531508    2.29223765901298   -2.71466745354342
C         2.39402395408273    1.28500618557472   -3.12043764786897
C         1.56303842791207    0.68393054699597   -2.21986036724956
N         0.85052063866974   -1.06156410866128    0.10579270518539
C         1.96642263634747   -1.57569675946602    0.68547582592712
C         2.10520301876557   -3.03711525708539    0.74597117450748
C         3.17848172553417   -3.73992992857044    1.23460126019975
C         2.84764560822784   -5.10572490097381    1.11620286488812
C         1.60035263480001   -5.14100998935308    0.56923169724641
O         1.14212885977869   -3.90216921961574    0.34033910221353
O         2.83546605663104   -0.84942487038829    1.13392115561429
C        -0.30976558909966   -1.76555069799877   -0.36573456819578
C        -1.06833138568797   -2.49010238623868    0.77152190681510
O        -0.66782467465711   -2.09240626778311    1.97418147923441
O        -1.94851743659029   -3.28181258457179    0.58402999798712
N        -1.14959652858168   -0.72176126105215   -0.89820355910506
C        -2.14614569175018   -0.79425247731838   -1.82560667793113
C        -2.45430150487445   -2.08786696133240   -2.44728425997214
C        -3.56878925798945   -2.36797912135976   -3.20110595604811
C        -3.45532942091220   -3.71704695057689   -3.59122206537773
C        -2.28254620379522   -4.16020064961760   -3.05683104586660
O        -1.67115653637677   -3.18936194584059   -2.36949968088442
O        -2.77877409832396    0.20182847041546   -2.13012461776475
H        -3.09336821162651   -0.74186323683618    0.66289273860701
H        -4.46402122557929   -0.14851947072173    2.59332829474974
H        -4.94023454415155    1.34810677244173    4.50110597365194
H        -4.37886961170208    3.35487162840833    5.81391770650665
H        -2.43507289953154    4.73548751942915    5.20242246618914
H        -1.03395459019350    4.12378884790837    3.27132219458816
H        -0.56451778801586    2.62662923563268    1.38701413163825
H        -0.96132355912255    1.33295269435071   -1.02511351595104
H         0.85662979141869    0.75473007408804    1.12299215595108
H         2.48777866779717    2.31283118697998    0.59978752477737
H         4.24619956116079    3.95368024523064    0.10792918826390
H         5.75085338587431    5.03839432545305   -1.51319226319329
H         5.69739355875239    4.38515005569952   -3.88609050204506
H         4.14170939202410    2.64055670848190   -4.65935857401730
H         2.37331001986423    0.99547356866459   -4.16142135342985
H         0.87834917343725   -0.08603990457670   -2.54479960594107
H         4.07885793773381   -3.31075995144791    1.62163826174163
H         3.45110453599789   -5.94351531774771    1.39822790077621
H         0.95307257378319   -5.95409911629270    0.30487765941661
H        -0.06248849036470   -2.50687442085324   -1.13449134093602
H        -1.18714831700487   -2.51871216106314    2.67506008514943
H        -4.35512829743408   -1.67896491067145   -3.42938150647686
H        -4.14652875641568   -4.27914541857524   -4.18432192235344
H        -1.79130947640460   -5.11265907425133   -3.09758858387242

          :  Hamiltonian                  GFN2-xTB          :
         :: total energy            -115.336416138703 Eh    ::
         :: gradient norm              0.000413186337 Eh/a0 ::
         :: HOMO-LUMO gap              2.962166686524 eV    ::
         :: SCC energy              -117.064904776028 Eh    ::
         :: -> dispersion             -0.091889402523 Eh    ::
         :: repulsion energy           1.727233142291 Eh    ::

    * Orbital Energies and Occupations

         #    Occupation            Energy/Eh            Energy/eV
      -------------------------------------------------------------
         1        2.0000           -0.7724182             -21.0186
       ...           ...                  ...                  ...
        91        2.0000           -0.4233824             -11.5208
        92        2.0000           -0.4191981             -11.4070
        93        2.0000           -0.4151040             -11.2956
        94        2.0000           -0.4120976             -11.2137
        95        2.0000           -0.4107813             -11.1779
        96        2.0000           -0.4092000             -11.1349
        97        2.0000           -0.4050230             -11.0212
        98        2.0000           -0.4037845             -10.9875
        99        2.0000           -0.4010757             -10.9138
       100        2.0000           -0.3991909             -10.8625
       101        2.0000           -0.3932869             -10.7019
       102        2.0000           -0.3819855             -10.3944
       103        2.0000           -0.3786384             -10.3033 (HOMO)
       104                         -0.2697808              -7.3411 (LUMO)
       105                         -0.2656573              -7.2289
       106                         -0.2647972              -7.2055
       107                         -0.2597915              -7.0693
       108                         -0.2559800              -6.9656
       109                         -0.2334660              -6.3529
       110                         -0.2297006              -6.2505
       111                         -0.1969406              -5.3590
       112                         -0.1934162              -5.2631
       113                         -0.1925815              -5.2404
       114                         -0.1889473              -5.1415
       ...                                ...                  ...
       192                          0.6989167              19.0185
      -------------------------------------------------------------
                  HL-Gap            0.1088576 Eh            2.9622 eV

     #   Z          covCN         q      C6AA      Î±(0)
     1   6 C        2.918    -0.030    28.751     8.793
     2   6 C        2.918    -0.035    28.869     8.811
     3   6 C        2.987     0.013    27.725     8.637
     4   6 C        2.918    -0.034    28.852     8.808
     5   6 C        2.916    -0.029    28.731     8.790
     6   6 C        2.916    -0.029    28.714     8.787
     7   6 C        2.918    -0.034    28.852     8.808
     8   6 C        2.987     0.016    27.648     8.625
     9   6 C        2.925    -0.044    29.090     8.845
    10   6 C        2.966     0.005    27.919     8.667
    11   6 C        3.833     0.039    19.887     6.345
    12   6 C        3.830     0.039    19.890     6.346
    13   6 C        2.970     0.005    27.908     8.665
    14   6 C        2.923    -0.034    28.847     8.808
    15   6 C        2.987     0.017    27.629     8.622
    16   6 C        2.919    -0.033    28.818     8.803
    17   6 C        2.916    -0.029    28.723     8.788
    18   6 C        2.916    -0.029    28.728     8.789
    19   6 C        2.918    -0.034    28.847     8.807
    20   6 C        2.988     0.014    27.700     8.633
    21   6 C        2.917    -0.034    28.850     8.808
    22   6 C        2.919    -0.034    28.850     8.808
    23   7 N        2.767    -0.102    23.236     7.159
    24   6 C        2.760     0.261    22.606     7.786
    25   6 C        3.107     0.080    26.086     8.368
    26   6 C        3.027    -0.044    29.060     8.842
    27   6 C        3.008    -0.058    29.425     8.898
    28   6 C        3.067     0.079    26.176     8.389
    29   8 O        1.729    -0.196    17.262     5.610
    30   8 O        0.860    -0.430    22.285     6.329
    31   6 C        3.758     0.087    19.194     6.246
    32   6 C        2.688     0.360    20.895     7.481
    33   8 O        1.659    -0.357    20.039     6.043
    34   8 O        0.856    -0.391    21.495     6.216
    35   7 N        2.769    -0.105    23.296     7.168
    36   6 C        2.758     0.261    22.605     7.786
    37   6 C        3.113     0.081    26.042     8.360
    38   6 C        3.030    -0.042    29.022     8.836
    39   6 C        3.009    -0.058    29.412     8.896
    40   6 C        3.075     0.082    26.096     8.376
    41   8 O        1.729    -0.180    17.009     5.569
    42   8 O        0.861    -0.428    22.256     6.325
    43   1 H        0.926     0.029     2.602     2.522
    44   1 H        0.926     0.036     2.497     2.471
    45   1 H        0.926     0.033     2.544     2.494
    46   1 H        0.926     0.032     2.552     2.498
    47   1 H        0.926     0.033     2.543     2.494
    48   1 H        0.926     0.034     2.525     2.485
    49   1 H        0.926     0.035     2.520     2.482
    50   1 H        0.924     0.084     1.937     2.177
    51   1 H        0.924     0.072     2.067     2.248
    52   1 H        0.926     0.043     2.411     2.428
    53   1 H        0.926     0.036     2.506     2.475
    54   1 H        0.926     0.032     2.553     2.499
    55   1 H        0.926     0.032     2.563     2.503
    56   1 H        0.926     0.033     2.550     2.497
    57   1 H        0.926     0.036     2.508     2.477
    58   1 H        0.926     0.028     2.612     2.527
    59   1 H        0.927     0.068     2.107     2.270
    60   1 H        0.927     0.052     2.295     2.369
    61   1 H        0.926     0.058     2.219     2.330
    62   1 H        0.924     0.094     1.844     2.123
    63   1 H        0.804     0.341     0.610     1.227
    64   1 H        0.927     0.067     2.122     2.278
    65   1 H        0.927     0.051     2.304     2.374
    66   1 H        0.926     0.057     2.235     2.338

Wiberg/Mayer (AO) data.
largest (>0.10) Wiberg bond orders for each atom

     #   Z sym  total        # sym  WBO       # sym  WBO       # sym  WBO
 ---------------------------------------------------------------------------
     1   6 C    3.991 --     2 C    1.552    10 C    1.306    43 H    0.965
     2   6 C    3.991 --     1 C    1.552     3 C    1.283    44 H    0.968
                             9 C    0.117
     3   6 C    3.990 --     2 C    1.283     4 C    1.278     8 C    1.248
     4   6 C    3.992 --     5 C    1.560     3 C    1.278    45 H    0.968
                             7 C    0.119
     5   6 C    3.990 --     4 C    1.560     6 C    1.318    46 H    0.971
     6   6 C    3.992 --     7 C    1.561     5 C    1.318    47 H    0.971
     7   6 C    3.991 --     6 C    1.561     8 C    1.275    48 H    0.968
                             4 C    0.119
     8   6 C    3.990 --     9 C    1.289     7 C    1.275     3 C    1.248
     9   6 C    3.990 --    10 C    1.516     8 C    1.289    49 H    0.965
                             2 C    0.117
    10   6 C    3.984 --     9 C    1.516     1 C    1.306    11 C    0.982
    11   6 C    3.958 --    10 C    0.982    35 N    0.967    12 C    0.959
                            50 H    0.942
    12   6 C    3.957 --    13 C    0.986    11 C    0.959    23 N    0.953
                            51 H    0.952
    13   6 C    3.984 --    14 C    1.529    22 C    1.293    12 C    0.986
    14   6 C    3.989 --    13 C    1.529    15 C    1.280    52 H    0.965
                            21 C    0.114
    15   6 C    3.990 --    14 C    1.280    16 C    1.279    20 C    1.252
    16   6 C    3.990 --    17 C    1.557    15 C    1.279    53 H    0.968
                            19 C    0.118
    17   6 C    3.992 --    16 C    1.557    18 C    1.321    54 H    0.971
    18   6 C    3.990 --    19 C    1.556    17 C    1.321    55 H    0.971
    19   6 C    3.992 --    18 C    1.556    20 C    1.282    56 H    0.968
                            16 C    0.118
    20   6 C    3.990 --    19 C    1.282    21 C    1.275    15 C    1.252
    21   6 C    3.992 --    22 C    1.565    20 C    1.275    57 H    0.968
                            14 C    0.114
    22   6 C    3.992 --    21 C    1.565    13 C    1.293    58 H    0.969
    23   7 N    3.473 --    24 C    1.203    31 C    0.995    12 C    0.953
                            30 O    0.188
    24   6 C    3.961 --    30 O    1.644    23 N    1.203    25 C    1.026
    25   6 C    3.902 --    26 C    1.530    29 O    1.094    24 C    1.026
                            28 C    0.139
    26   6 C    3.984 --    25 C    1.530    27 C    1.319    59 H    0.972
    27   6 C    3.984 --    28 C    1.586    26 C    1.319    60 H    0.973
    28   6 C    3.905 --    27 C    1.586    29 O    1.142    61 H    0.965
                            25 C    0.139
    29   8 O    2.440 --    28 C    1.142    25 C    1.094
    30   8 O    1.993 --    24 C    1.644    23 N    0.188
    31   6 C    3.968 --    23 N    0.995    35 N    0.983    62 H    0.932
                            32 C    0.903
    32   6 C    3.917 --    34 O    1.776    33 O    1.159    31 C    0.903
    33   8 O    2.226 --    32 C    1.159    63 H    0.857    34 O    0.181
    34   8 O    2.057 --    32 C    1.776    33 O    0.181
    35   7 N    3.473 --    36 C    1.189    31 C    0.983    11 C    0.967
                            42 O    0.183
    36   6 C    3.959 --    42 O    1.646    35 N    1.189    37 C    1.030
    37   6 C    3.905 --    38 C    1.521    41 O    1.101    36 C    1.030
                            40 C    0.139
    38   6 C    3.983 --    37 C    1.521    39 C    1.324    64 H    0.972
    39   6 C    3.984 --    40 C    1.580    38 C    1.324    65 H    0.974
    40   6 C    3.909 --    39 C    1.580    41 O    1.150    66 H    0.965
                            37 C    0.139
    41   8 O    2.454 --    40 C    1.150    37 C    1.101
    42   8 O    1.998 --    36 C    1.646    35 N    0.183
    43   1 H    0.999 --     1 C    0.965
    44   1 H    0.998 --     2 C    0.968
    45   1 H    0.998 --     4 C    0.968
    46   1 H    0.998 --     5 C    0.971
    47   1 H    0.998 --     6 C    0.971
    48   1 H    0.998 --     7 C    0.968
    49   1 H    0.998 --     9 C    0.965
    50   1 H    0.991 --    11 C    0.942
    51   1 H    0.994 --    12 C    0.952
    52   1 H    0.998 --    14 C    0.965
    53   1 H    0.998 --    16 C    0.968
    54   1 H    0.998 --    17 C    0.971
    55   1 H    0.999 --    18 C    0.971
    56   1 H    0.998 --    19 C    0.968
    57   1 H    0.998 --    21 C    0.968
    58   1 H    0.999 --    22 C    0.969
    59   1 H    0.995 --    26 C    0.972
    60   1 H    0.997 --    27 C    0.973
    61   1 H    0.996 --    28 C    0.965
    62   1 H    0.991 --    31 C    0.932
    63   1 H    0.883 --    33 O    0.857
    64   1 H    0.996 --    38 C    0.972
    65   1 H    0.997 --    39 C    0.974
    66   1 H    0.996 --    40 C    0.965
 ---------------------------------------------------------------------------

molecular dipole:
                 x           y           z       tot (Debye)
 q only:        0.225      -0.724       0.360
   full:        0.105      -1.292       0.415       3.461

           -------------------------------------------------
          | TOTAL ENERGY             -115.336416138703 Eh   |
          | GRADIENT NORM               0.000413186337 Eh/Î± |
          | HOMO-LUMO GAP               2.962166686524 eV   |
           -------------------------------------------------

 * finished run on 2022/03/16 at 22:39:11.207
