   * xtb version 6.3.3 (4ae9cef) compiled by 'conda@95abc7406d43' on 2020-10-14
          program call               : xtb acid_88.xyz --opt --chrg 0 --uhf 0 --gfn 2
          number of atoms            :                    60
          number of electrons        :                   230
          charge                     :                     0
          spin                       :                   0.0

   ID    Z sym.   atoms
    1    6 C      1, 2, 6-15, 19-22, 24-26, 28, 29, 32, 33, 37-39, 41, 42
    2    9 F      3-5, 16-18
    3    7 N      23, 36
    4   35 Br     27, 40
    5    8 O      30, 31, 34, 35, 43, 44
    6    1 H      45-60

          :  Hamiltonian                  GFN2-xTB          :
 * total energy  :  -134.9591397 Eh     change       -0.1225914E-08 Eh
 * total energy  :  -134.9783801 Eh     change       -0.1924047E-01 Eh
 * total energy  :  -134.9855806 Eh     change       -0.7200467E-02 Eh
 * total energy  :  -134.9881696 Eh     change       -0.2588972E-02 Eh
 * total energy  :  -134.9895929 Eh     change       -0.1423356E-02 Eh
 * total energy  :  -134.9903261 Eh     change       -0.7331917E-03 Eh
 * total energy  :  -134.9908680 Eh     change       -0.5418898E-03 Eh
 * total energy  :  -134.9913205 Eh     change       -0.4524514E-03 Eh
 * total energy  :  -134.9917158 Eh     change       -0.3953083E-03 Eh
 * total energy  :  -134.9919730 Eh     change       -0.2571950E-03 Eh
 * total energy  :  -134.9937606 Eh     change        0.1113386E-06 Eh
 * total energy  :  -134.9937699 Eh     change       -0.9319561E-05 Eh
 * total energy  :  -134.9937871 Eh     change       -0.1725964E-04 Eh
 * total energy  :  -134.9938008 Eh     change       -0.1364572E-04 Eh
 * total energy  :  -134.9938133 Eh     change       -0.1249940E-04 Eh
 * total energy  :  -134.9938186 Eh     change       -0.5318924E-05 Eh
 * total energy  :  -134.9938264 Eh     change       -0.7796704E-05 Eh
 * total energy  :  -134.9938358 Eh     change       -0.9390012E-05 Eh
 * total energy  :  -134.9938385 Eh     change       -0.2725833E-05 Eh
   *** GEOMETRY OPTIMIZATION CONVERGED AFTER 44 ITERATIONS ***

 final structure:
================
60
 xtb: 6.3.3 (4ae9cef)
C        -3.24156490900759   -1.28968480890655   -0.53490500439120
C        -3.46715390139137   -1.52679805016196    0.93432637821713
F        -3.45180415321941   -0.38483288888767    1.65056173678263
F        -4.64466567177471   -2.10341190750920    1.19655714017256
F        -2.53894222466538   -2.32664516649511    1.49697712986283
C        -4.23557758467439   -1.70114599740004   -1.41446290923930
C        -4.09581095438873   -1.49434597811382   -2.77402677533574
C        -2.95715758408212   -0.87448488879000   -3.25312230111110
C        -1.96469328599092   -0.46945417928790   -2.37757622355866
C        -2.08050757976338   -0.66472909091552   -1.00510784230566
C        -0.99286554920883   -0.20656067782867   -0.05096850890201
C         0.41767656057272   -0.15240672391281   -0.69692480589747
C         1.43982582216108   -0.39132698145484    0.39187912006084
C         1.84685582772837   -1.68576851979438    0.73030926517892
C         1.38522783352721   -2.87500722381652   -0.06708867096936
F         1.78401189030526   -4.04031117424228    0.45274534078022
F         1.85384848204200   -2.85840646222786   -1.33395363451513
F         0.04442504017164   -2.95821268898856   -0.18002932676360
C         2.70969780671161   -1.89680721401864    1.79820089803128
C         3.16761418995799   -0.82582483736823    2.54425617274943
C         2.77668955674127    0.45860737683342    2.21114196656331
C         1.92181912991928    0.67188831526881    1.14389683649156
N         0.44215500345480    1.19075468141175   -1.24474865717523
C         1.28119261061776    1.73635935845400   -2.16278159269491
C         2.44928183177951    0.95360969934767   -2.57762503512792
C         3.37348878547364    1.28179653827155   -3.54808814716799
Br        3.37354877153263    2.79283586126268   -4.63535224028316
C         4.32999961838398    0.23967997612975   -3.57255427343475
C         3.92668959419414   -0.64211509229234   -2.61754403603552
O         2.80552807990661   -0.22681571013199   -2.01700508030919
O         1.06838084558843    2.84304223041888   -2.62308572330860
C        -0.70909258509135    1.96837025095260   -0.78669120425586
C        -0.35972632114493    3.43773893289521   -0.46195846416765
O         0.83579691936710    3.56450936791267    0.11804979522305
O        -1.05142326908019    4.34799276737537   -0.80098964878819
N        -1.18587148775838    1.18254909999735    0.33003011703555
C        -1.19986493174701    1.74204719216534    1.57411407209917
C        -1.21183461549942    0.89817513554707    2.77228914646653
C        -1.54131551897440    1.29919678009792    4.05071808154623
Br       -2.12713283421390    2.97920306923557    4.58576002841273
C        -1.35366218568161    0.18057676256925    4.89614031637497
C        -0.91135044488453   -0.81552054806038    4.08265463297157
O        -0.81969233771483   -0.39860975057450    2.81390335388623
O        -1.22052384453722    2.95399141450687    1.69312821531124
H        -5.12077499340626   -2.18365571716130   -1.03085009980309
H        -4.87241603422931   -1.81561172791415   -3.44960008248139
H        -2.83451818266269   -0.70224565537903   -4.31121833885644
H        -1.08795889595791    0.00528026713949   -2.78796925925176
H        -0.98082851957596   -0.84719393749106    0.82553147310424
H         0.52353216403908   -0.88998188448685   -1.49554497699825
H         3.01761323990535   -2.90083472105395    2.04574973381402
H         3.83010812833511   -0.99818249289945    3.37783382087165
H         3.13220759146346    1.30123825262897    2.78395223220639
H         1.63273505434011    1.67920563564589    0.88970369769118
H         5.18407243837737    0.17631159149324   -4.21345541999817
H         4.33535831609994   -1.57702148768150   -2.28885649455229
H        -1.48069387114408    2.02162695062102   -1.57193859783960
H         1.01781721076492    4.50582460798296    0.26682947396594
H        -1.52774192618796    0.14575168775791    5.95103585345750
H        -0.64003214579821   -1.83420561867230    4.27774434618988

          :  Hamiltonian                  GFN2-xTB          :
         :: total energy            -134.993838521301 Eh    ::
         :: gradient norm              0.000317377304 Eh/a0 ::
         :: HOMO-LUMO gap              3.125405370144 eV    ::
         :: SCC energy              -136.372286717272 Eh    ::
         :: -> dispersion             -0.096151636407 Eh    ::
         :: repulsion energy           1.374219675446 Eh    ::

    * Orbital Energies and Occupations

         #    Occupation            Energy/Eh            Energy/eV
      -------------------------------------------------------------
         1        2.0000           -0.8983129             -24.4443
       ...           ...                  ...                  ...
       103        2.0000           -0.4556193             -12.3980
       104        2.0000           -0.4537475             -12.3471
       105        2.0000           -0.4449322             -12.1072
       106        2.0000           -0.4440552             -12.0834
       107        2.0000           -0.4420161             -12.0279
       108        2.0000           -0.4396261             -11.9628
       109        2.0000           -0.4350175             -11.8374
       110        2.0000           -0.4329191             -11.7803
       111        2.0000           -0.4219952             -11.4831
       112        2.0000           -0.4135817             -11.2541
       113        2.0000           -0.4129802             -11.2378
       114        2.0000           -0.4121867             -11.2162
       115        2.0000           -0.4117787             -11.2051 (HOMO)
       116                         -0.2969221              -8.0797 (LUMO)
       117                         -0.2922690              -7.9530
       118                         -0.2867792              -7.8037
       119                         -0.2837232              -7.7205
       120                         -0.2766381              -7.5277
       121                         -0.2722188              -7.4075
       122                         -0.2402412              -6.5373
       123                         -0.2252839              -6.1303
       124                         -0.2234648              -6.0808
       125                         -0.2090641              -5.6889
       126                         -0.2088409              -5.6828
       ...                                ...                  ...
       202                          0.6701292              18.2351
      -------------------------------------------------------------
                  HL-Gap            0.1148565 Eh            3.1254 eV

     #   Z          covCN         q      C6AA      Î±(0)
     1   6 C        2.977    -0.027    28.668     8.783
     2   6 C        3.336     0.486    17.282     6.584
     3   9 F        0.791    -0.215    11.396     3.988
     4   9 F        0.792    -0.198    11.209     3.955
     5   9 F        0.791    -0.212    11.355     3.981
     6   6 C        2.923    -0.020    28.513     8.757
     7   6 C        2.919    -0.019    28.492     8.753
     8   6 C        2.918    -0.017    28.428     8.743
     9   6 C        2.925    -0.029    28.713     8.787
    10   6 C        2.966     0.012    27.751     8.641
    11   6 C        3.855     0.033    19.983     6.358
    12   6 C        3.822     0.039    19.907     6.349
    13   6 C        2.973     0.013    27.730     8.638
    14   6 C        2.976    -0.035    28.859     8.812
    15   6 C        3.335     0.485    17.312     6.591
    16   9 F        0.792    -0.198    11.215     3.956
    17   9 F        0.791    -0.215    11.388     3.986
    18   9 F        0.791    -0.216    11.406     3.989
    19   6 C        2.922    -0.024    28.594     8.769
    20   6 C        2.919    -0.025    28.619     8.773
    21   6 C        2.919    -0.019    28.474     8.750
    22   6 C        2.924    -0.033    28.827     8.805
    23   7 N        2.769    -0.118    23.557     7.209
    24   6 C        2.759     0.265    22.523     7.772
    25   6 C        3.134     0.073    26.165     8.373
    26   6 C        3.026     0.071    26.390     8.426
    27  35 Br       1.006    -0.097   187.685    22.089
    28   6 C        3.034    -0.066    29.600     8.924
    29   6 C        3.067     0.082    26.110     8.379
    30   8 O        1.730    -0.180    17.023     5.571
    31   8 O        0.861    -0.417    22.025     6.292
    32   6 C        3.798     0.097    18.978     6.203
    33   6 C        2.686     0.384    20.507     7.411
    34   8 O        1.659    -0.369    20.262     6.077
    35   8 O        0.856    -0.364    20.973     6.140
    36   7 N        2.770    -0.110    23.397     7.184
    37   6 C        2.760     0.271    22.415     7.753
    38   6 C        3.127     0.080    26.038     8.355
    39   6 C        3.027     0.074    26.316     8.414
    40  35 Br       1.010    -0.090   187.478    22.077
    41   6 C        3.035    -0.064    29.551     8.917
    42   6 C        3.064     0.084    26.062     8.371
    43   8 O        1.731    -0.181    17.039     5.574
    44   8 O        0.864    -0.397    21.620     6.234
    45   1 H        0.926     0.073     2.053     2.241
    46   1 H        0.926     0.064     2.148     2.292
    47   1 H        0.926     0.064     2.157     2.297
    48   1 H        0.926     0.056     2.251     2.346
    49   1 H        0.925     0.088     1.894     2.152
    50   1 H        0.924     0.070     2.084     2.257
    51   1 H        0.926     0.067     2.124     2.279
    52   1 H        0.926     0.058     2.222     2.331
    53   1 H        0.926     0.059     2.208     2.324
    54   1 H        0.926     0.076     2.018     2.221
    55   1 H        0.927     0.075     2.031     2.229
    56   1 H        0.926     0.075     2.030     2.228
    57   1 H        0.923     0.077     2.013     2.219
    58   1 H        0.804     0.349     0.590     1.206
    59   1 H        0.927     0.077     2.005     2.214
    60   1 H        0.926     0.076     2.017     2.221

Wiberg/Mayer (AO) data.
largest (>0.10) Wiberg bond orders for each atom

     #   Z sym  total        # sym  WBO       # sym  WBO       # sym  WBO
 ---------------------------------------------------------------------------
     1   6 C    3.971 --     6 C    1.419    10 C    1.382     2 C    0.950
                             8 C    0.107
     2   6 C    3.821 --     4 F    0.959     1 C    0.950     5 F    0.938
                             3 F    0.937
     3   9 F    1.064 --     2 C    0.937
     4   9 F    1.082 --     2 C    0.959
     5   9 F    1.069 --     2 C    0.938
     6   6 C    3.986 --     7 C    1.438     1 C    1.419    45 H    0.964
                             9 C    0.107
     7   6 C    3.988 --     8 C    1.440     6 C    1.438    46 H    0.968
                            10 C    0.109
     8   6 C    3.988 --     7 C    1.440     9 C    1.438    47 H    0.968
                             1 C    0.107
     9   6 C    3.988 --     8 C    1.438    10 C    1.419    48 H    0.963
                             6 C    0.107
    10   6 C    3.985 --     9 C    1.419     1 C    1.382    11 C    0.985
                             7 C    0.109
    11   6 C    3.965 --    10 C    0.985    36 N    0.966    49 H    0.944
                            12 C    0.943
    12   6 C    3.970 --    13 C    0.989    23 N    0.976    50 H    0.948
                            11 C    0.943
    13   6 C    3.986 --    22 C    1.418    14 C    1.374    12 C    0.989
                            20 C    0.107
    14   6 C    3.967 --    19 C    1.420    13 C    1.374    15 C    0.951
                            21 C    0.107
    15   6 C    3.820 --    16 F    0.959    14 C    0.951    18 F    0.937
                            17 F    0.934
    16   9 F    1.082 --    15 C    0.959
    17   9 F    1.064 --    15 C    0.934
    18   9 F    1.064 --    15 C    0.937
    19   6 C    3.987 --    20 C    1.437    14 C    1.420    51 H    0.966
                            22 C    0.108
    20   6 C    3.988 --    21 C    1.441    19 C    1.437    52 H    0.969
                            13 C    0.107
    21   6 C    3.989 --    20 C    1.441    22 C    1.438    53 H    0.969
                            14 C    0.107
    22   6 C    3.986 --    21 C    1.438    13 C    1.418    54 H    0.955
                            19 C    0.108
    23   7 N    3.465 --    24 C    1.198    12 C    0.976    32 C    0.960
                            31 O    0.187
    24   6 C    3.963 --    31 O    1.640    23 N    1.198    25 C    1.034
    25   6 C    3.901 --    26 C    1.470    30 O    1.094    24 C    1.034
                            29 C    0.132
    26   6 C    3.944 --    25 C    1.470    28 C    1.285    27 Br   1.037
    27  35 Br   1.201 --    26 C    1.037
    28   6 C    3.979 --    29 C    1.588    26 C    1.285    55 H    0.970
    29   6 C    3.909 --    28 C    1.588    30 O    1.149    56 H    0.962
                            25 C    0.132
    30   8 O    2.449 --    29 C    1.149    25 C    1.094
    31   8 O    2.025 --    24 C    1.640    23 N    0.187
    32   6 C    3.952 --    36 N    0.980    23 N    0.960    57 H    0.941
                            33 C    0.914
    33   6 C    3.930 --    35 O    1.792    34 O    1.131    32 C    0.914
    34   8 O    2.200 --    33 C    1.131    58 H    0.853    35 O    0.171
    35   8 O    2.082 --    33 C    1.792    34 O    0.171
    36   7 N    3.455 --    37 C    1.186    32 C    0.980    11 C    0.966
                            44 O    0.174
    37   6 C    3.959 --    44 O    1.641    36 N    1.186    38 C    1.036
    38   6 C    3.903 --    39 C    1.471    43 O    1.092    37 C    1.036
                            42 C    0.133
    39   6 C    3.946 --    38 C    1.471    41 C    1.283    40 Br   1.039
    40  35 Br   1.204 --    39 C    1.039
    41   6 C    3.979 --    42 C    1.591    39 C    1.283    59 H    0.970
    42   6 C    3.908 --    41 C    1.591    43 O    1.143    60 H    0.962
                            38 C    0.133
    43   8 O    2.450 --    42 C    1.143    38 C    1.092
    44   8 O    2.067 --    37 C    1.641    36 N    0.174
    45   1 H    0.994 --     6 C    0.964
    46   1 H    0.995 --     7 C    0.968
    47   1 H    0.995 --     8 C    0.968
    48   1 H    0.996 --     9 C    0.963
    49   1 H    0.991 --    11 C    0.944
    50   1 H    0.994 --    12 C    0.948
    51   1 H    0.995 --    19 C    0.966
    52   1 H    0.996 --    20 C    0.969
    53   1 H    0.996 --    21 C    0.969
    54   1 H    0.994 --    22 C    0.955
    55   1 H    0.994 --    28 C    0.970
    56   1 H    0.994 --    29 C    0.962
    57   1 H    0.991 --    32 C    0.941
    58   1 H    0.878 --    34 O    0.853
    59   1 H    0.993 --    41 C    0.970
    60   1 H    0.993 --    42 C    0.962
 ---------------------------------------------------------------------------

molecular dipole:
                 x           y           z       tot (Debye)
 q only:        1.391      -2.338       0.391
   full:        1.491      -3.425       0.471       9.569

           -------------------------------------------------
          | TOTAL ENERGY             -134.993838521301 Eh   |
          | GRADIENT NORM               0.000317377304 Eh/Î± |
          | HOMO-LUMO GAP               3.125405370144 eV   |
           -------------------------------------------------

 * finished run on 2022/03/17 at 02:12:08.009
