   * xtb version 6.3.3 (4ae9cef) compiled by 'conda@95abc7406d43' on 2020-10-14
          program call               : xtb acid_110.xyz --opt --chrg 0 --uhf 0 --gfn 2
          number of atoms            :                    72
          number of electrons        :                   214
          charge                     :                     0
          spin                       :                   0.0

   ID    Z sym.   atoms
    1    6 C      1-22, 24-30, 32, 33, 37-43
    2    7 N      23, 36
    3    8 O      31, 34, 35, 44
    4    1 H      45-72

          :  Hamiltonian                  GFN2-xTB          :
 * total energy  :  -117.7781961 Eh     change       -0.3023274E-08 Eh
 * total energy  :  -117.7938350 Eh     change       -0.1563886E-01 Eh
 * total energy  :  -117.7981181 Eh     change       -0.4283062E-02 Eh
 * total energy  :  -117.7991116 Eh     change       -0.9935425E-03 Eh
 * total energy  :  -117.7996279 Eh     change       -0.5162458E-03 Eh
 * total energy  :  -117.7998025 Eh     change       -0.1746861E-03 Eh
 * total energy  :  -117.7999921 Eh     change       -0.1895600E-03 Eh
 * total energy  :  -117.8002265 Eh     change       -0.2343797E-03 Eh
 * total energy  :  -117.8005032 Eh     change       -0.2767406E-03 Eh
 * total energy  :  -117.8007482 Eh     change       -0.2449655E-03 Eh
 * total energy  :  -117.8028057 Eh     change       -0.7095756E-05 Eh
 * total energy  :  -117.8028137 Eh     change       -0.7982967E-05 Eh
 * total energy  :  -117.8028112 Eh     change        0.2519660E-05 Eh
 * total energy  :  -117.8028183 Eh     change       -0.7096138E-05 Eh
 * total energy  :  -117.8028249 Eh     change       -0.6616821E-05 Eh
 * total energy  :  -117.8028335 Eh     change       -0.8620922E-05 Eh
 * total energy  :  -117.8028375 Eh     change       -0.4011426E-05 Eh
 * total energy  :  -117.8028438 Eh     change       -0.6265829E-05 Eh
 * total energy  :  -117.8028475 Eh     change       -0.3751785E-05 Eh
   *** GEOMETRY OPTIMIZATION CONVERGED AFTER 54 ITERATIONS ***

 final structure:
================
72
 xtb: 6.3.3 (4ae9cef)
C        -2.32544777519785    1.84948119286868   -0.01279532298108
C        -3.49777288372960    2.54754494226247   -0.06187884753488
C        -4.22430913112382    2.66070839731511   -1.26563044659753
C        -5.43293732455101    3.38177396745635   -1.35151772708050
C        -6.10824721408741    3.47060808785105   -2.53649646245969
C        -5.60811298669802    2.84037543773651   -3.68714859153432
C        -4.43963970781679    2.13355135602927   -3.63556464391968
C        -3.71672867840716    2.02603770505918   -2.42907774285308
C        -2.50552292035264    1.31009454160791   -2.34522323329984
C        -1.81174625715118    1.22393942204786   -1.16716507523556
C        -0.53201198794141    0.42685278205284   -1.09854246599191
C         0.59731805069515    1.12373891383455   -0.33237883550893
C         1.94592714095372    0.98109707857854   -0.99344622032020
C         2.70450952595613    2.08905136765914   -1.26236055304011
C         3.97113895916575    1.97439398057578   -1.86925760257283
C         4.77136878107632    3.10156600003807   -2.14996092851366
C         5.99812935241898    2.95794647298206   -2.73471006693744
C         6.48101755153884    1.68223661973723   -3.06712858899482
C         5.72932697179629    0.57069194359353   -2.80766414024032
C         4.46013602591789    0.68493254560547   -2.20396146685233
C         3.65877220255485   -0.43897643825613   -1.91494505392804
C         2.43502884520238   -0.29743415093567   -1.32703313942707
N         0.56712382114058    0.47177728831620    0.97744905239600
C         1.32411143306315    0.95461029623451    1.99650268537026
C         1.26907866249812    0.15049439121047    3.25697767698260
C         2.36143096897158   -0.63714644813657    3.59898136117586
C         2.34216439957690   -1.37028837465540    4.77251650807464
C         1.24293260675164   -1.30788443023200    5.61292397297269
C         0.16357250586546   -0.50494312357338    5.28431425935766
C         0.17426146837854    0.22413938316353    4.10867696214941
O         1.98625993870296    1.96264350919095    1.88008676059013
C        -0.28760985314297   -0.69521840101565    1.01207861104430
C         0.48902914736932   -1.94854982055598    1.46425178629848
O        -0.05430007840534   -2.48485324394538    2.55495162180254
O         1.46798228287099   -2.37953558330178    0.92605803256436
N        -0.75310120312407   -0.80732828948816   -0.34720229599584
C        -1.21644106845323   -1.91978752814772   -0.97630117705962
C        -1.47728732916825   -3.08926947219888   -0.08526923674602
C        -2.47719021201304   -3.02026627318770    0.87854267306725
C        -2.75279232333326   -4.12263358373345    1.66697719448142
C        -2.03153864658704   -5.29357671401102    1.49956071068332
C        -1.04799442322056   -5.37022881664745    0.52697683142438
C        -0.77824047816671   -4.27533965846510   -0.27468304914688
O        -1.42757517321633   -1.93684084716927   -2.17008929526350
H        -1.77984433453102    1.78182386236325    0.91724980833806
H        -3.88566857598064    3.02743939013143    0.82558112159397
H        -5.81439864036238    3.86459601203281   -0.46287049415330
H        -7.03256962328013    4.02633113578421   -2.59687821978699
H        -6.15664731834988    2.92056922292583   -4.61420154226141
H        -4.05022461430423    1.64525284193456   -4.51699371195997
H        -2.12974862785071    0.81701548427679   -3.22959125908646
H        -0.22313001025237    0.15195531848073   -2.11225463497583
H         0.38715557439854    2.19009450510807   -0.18990326930665
H         2.34373103615156    3.07211890147326   -0.99677852130680
H         4.39605224640071    4.08080216488115   -1.88969788634330
H         6.60715475603013    3.82500684891144   -2.94553346630466
H         7.45320858010026    1.58797882024841   -3.52887991961310
H         6.09687782306707   -0.41393398159529   -3.06022574028749
H         4.03122789798467   -1.42216965470693   -2.16414574714466
H         1.84400992591272   -1.17106689470576   -1.10145263566376
H         3.21521711367409   -0.67420537758682    2.93892659656476
H         3.18985178892451   -1.98651532395739    5.03344405935137
H         1.23136971249887   -1.87811925453558    6.53001428517050
H        -0.68728950536759   -0.44467711956151    5.94620510402882
H        -0.66154211798289    0.86181946133435    3.85835350989694
H        -1.12057041401342   -0.55693784763141    1.72507793255424
H         0.44678397391276   -3.26396875575528    2.84621617304682
H        -3.04593301834295   -2.10918616558289    0.99719821295484
H        -3.53156277684867   -4.06848097184233    2.41268602537050
H        -2.24397222331184   -6.15092710294378    2.12108914660751
H        -0.49438140771122   -6.28676563245293    0.38729930353136
H        -0.01923120713731   -4.32603331235208   -1.04032572120907

          :  Hamiltonian                  GFN2-xTB          :
         :: total energy            -117.802847530075 Eh    ::
         :: gradient norm              0.000589440165 Eh/a0 ::
         :: HOMO-LUMO gap              2.637356669703 eV    ::
         :: SCC energy              -119.743682885999 Eh    ::
         :: -> dispersion             -0.103298408215 Eh    ::
         :: repulsion energy           1.938672696257 Eh    ::

    * Orbital Energies and Occupations

         #    Occupation            Energy/Eh            Energy/eV
      -------------------------------------------------------------
         1        2.0000           -0.7785730             -21.1860
       ...           ...                  ...                  ...
        95        2.0000           -0.4210557             -11.4575
        96        2.0000           -0.4203057             -11.4371
        97        2.0000           -0.4193315             -11.4106
        98        2.0000           -0.4182041             -11.3799
        99        2.0000           -0.4098213             -11.1518
       100        2.0000           -0.4074697             -11.0878
       101        2.0000           -0.4040665             -10.9952
       102        2.0000           -0.4035084             -10.9800
       103        2.0000           -0.3979878             -10.8298
       104        2.0000           -0.3955844             -10.7644
       105        2.0000           -0.3918161             -10.6619
       106        2.0000           -0.3839009             -10.4465
       107        2.0000           -0.3734102             -10.1610 (HOMO)
       108                         -0.2764891              -7.5237 (LUMO)
       109                         -0.2653450              -7.2204
       110                         -0.2548818              -6.9357
       111                         -0.2503666              -6.8128
       112                         -0.2432814              -6.6200
       113                         -0.2402437              -6.5374
       114                         -0.2393781              -6.5138
       115                         -0.2360497              -6.4232
       116                         -0.2254117              -6.1338
       117                         -0.2152709              -5.8578
       118                         -0.2089509              -5.6858
       ...                                ...                  ...
       204                          0.7022497              19.1092
      -------------------------------------------------------------
                  HL-Gap            0.0969211 Eh            2.6374 eV

     #   Z          covCN         q      C6AA      Î±(0)
     1   6 C        2.918    -0.037    28.928     8.820
     2   6 C        2.917    -0.036    28.886     8.813
     3   6 C        2.987     0.013    27.718     8.636
     4   6 C        2.918    -0.034    28.857     8.809
     5   6 C        2.916    -0.029    28.713     8.787
     6   6 C        2.916    -0.028    28.707     8.786
     7   6 C        2.918    -0.033    28.812     8.802
     8   6 C        2.987     0.016    27.646     8.625
     9   6 C        2.923    -0.036    28.908     8.817
    10   6 C        2.969    -0.002    28.071     8.691
    11   6 C        3.827     0.039    19.905     6.348
    12   6 C        3.821     0.043    19.831     6.337
    13   6 C        2.969     0.002    27.981     8.677
    14   6 C        2.923    -0.034    28.851     8.808
    15   6 C        2.987     0.016    27.647     8.625
    16   6 C        2.918    -0.033    28.821     8.804
    17   6 C        2.916    -0.030    28.743     8.791
    18   6 C        2.916    -0.030    28.744     8.792
    19   6 C        2.918    -0.034    28.857     8.809
    20   6 C        2.987     0.013    27.707     8.634
    21   6 C        2.918    -0.033    28.833     8.805
    22   6 C        2.918    -0.035    28.872     8.811
    23   7 N        2.768    -0.115    23.513     7.202
    24   6 C        2.763     0.270    22.443     7.758
    25   6 C        2.977    -0.020    28.504     8.758
    26   6 C        2.923    -0.023    28.591     8.769
    27   6 C        2.920    -0.029    28.715     8.787
    28   6 C        2.920    -0.029    28.720     8.788
    29   6 C        2.920    -0.026    28.642     8.776
    30   6 C        2.922    -0.027    28.665     8.780
    31   8 O        0.859    -0.414    21.970     6.284
    32   6 C        3.746     0.095    19.077     6.230
    33   6 C        2.687     0.353    21.009     7.501
    34   8 O        1.659    -0.370    20.274     6.078
    35   8 O        0.856    -0.377    21.229     6.177
    36   7 N        2.768    -0.113    23.459     7.193
    37   6 C        2.763     0.270    22.442     7.758
    38   6 C        2.977    -0.021    28.531     8.762
    39   6 C        2.922    -0.028    28.692     8.784
    40   6 C        2.919    -0.026    28.656     8.778
    41   6 C        2.920    -0.029    28.719     8.788
    42   6 C        2.919    -0.028    28.709     8.786
    43   6 C        2.923    -0.020    28.508     8.756
    44   8 O        0.859    -0.416    22.005     6.289
    45   1 H        0.926     0.027     2.631     2.536
    46   1 H        0.926     0.035     2.517     2.481
    47   1 H        0.926     0.033     2.546     2.495
    48   1 H        0.926     0.033     2.548     2.496
    49   1 H        0.926     0.034     2.533     2.489
    50   1 H        0.926     0.038     2.471     2.458
    51   1 H        0.926     0.049     2.329     2.386
    52   1 H        0.924     0.078     1.996     2.209
    53   1 H        0.924     0.066     2.127     2.281
    54   1 H        0.926     0.042     2.425     2.435
    55   1 H        0.926     0.035     2.522     2.484
    56   1 H        0.926     0.031     2.579     2.511
    57   1 H        0.926     0.030     2.586     2.515
    58   1 H        0.926     0.032     2.559     2.502
    59   1 H        0.926     0.037     2.486     2.465
    60   1 H        0.926     0.046     2.368     2.406
    61   1 H        0.926     0.045     2.383     2.414
    62   1 H        0.926     0.040     2.449     2.447
    63   1 H        0.926     0.038     2.472     2.459
    64   1 H        0.926     0.040     2.445     2.445
    65   1 H        0.926     0.032     2.561     2.503
    66   1 H        0.922     0.057     2.233     2.337
    67   1 H        0.804     0.344     0.602     1.219
    68   1 H        0.926     0.032     2.558     2.501
    69   1 H        0.926     0.040     2.444     2.445
    70   1 H        0.926     0.039     2.465     2.455
    71   1 H        0.926     0.042     2.422     2.434
    72   1 H        0.926     0.051     2.310     2.377

Wiberg/Mayer (AO) data.
largest (>0.10) Wiberg bond orders for each atom

     #   Z sym  total        # sym  WBO       # sym  WBO       # sym  WBO
 ---------------------------------------------------------------------------
     1   6 C    3.992 --     2 C    1.564    10 C    1.294    45 H    0.968
     2   6 C    3.992 --     1 C    1.564     3 C    1.276    46 H    0.968
                             9 C    0.114
     3   6 C    3.990 --     4 C    1.282     2 C    1.276     8 C    1.252
     4   6 C    3.992 --     5 C    1.556     3 C    1.282    47 H    0.968
                             7 C    0.118
     5   6 C    3.990 --     4 C    1.556     6 C    1.321    48 H    0.971
     6   6 C    3.992 --     7 C    1.558     5 C    1.321    49 H    0.971
     7   6 C    3.989 --     6 C    1.558     8 C    1.278    50 H    0.968
                             4 C    0.118
     8   6 C    3.990 --     9 C    1.281     7 C    1.278     3 C    1.252
     9   6 C    3.987 --    10 C    1.528     8 C    1.281    51 H    0.964
                             2 C    0.114
    10   6 C    3.984 --     9 C    1.528     1 C    1.294    11 C    0.984
    11   6 C    3.956 --    10 C    0.984    12 C    0.967    52 H    0.952
                            36 N    0.946
    12   6 C    3.956 --    13 C    0.985    11 C    0.967    53 H    0.953
                            23 N    0.945
    13   6 C    3.984 --    14 C    1.528    22 C    1.295    12 C    0.985
    14   6 C    3.989 --    13 C    1.528    15 C    1.281    54 H    0.965
                            21 C    0.115
    15   6 C    3.990 --    14 C    1.281    16 C    1.279    20 C    1.251
    16   6 C    3.990 --    17 C    1.558    15 C    1.279    55 H    0.968
                            19 C    0.118
    17   6 C    3.992 --    16 C    1.558    18 C    1.321    56 H    0.971
    18   6 C    3.990 --    19 C    1.556    17 C    1.321    57 H    0.971
    19   6 C    3.992 --    18 C    1.556    20 C    1.281    58 H    0.968
                            16 C    0.118
    20   6 C    3.990 --    19 C    1.281    21 C    1.277    15 C    1.251
    21   6 C    3.992 --    22 C    1.563    20 C    1.277    59 H    0.968
                            14 C    0.115
    22   6 C    3.991 --    21 C    1.563    13 C    1.295    60 H    0.965
    23   7 N    3.462 --    24 C    1.209    32 C    0.982    12 C    0.945
                            31 O    0.193
    24   6 C    3.947 --    31 O    1.699    23 N    1.209    25 C    0.957
    25   6 C    3.988 --    30 C    1.407    26 C    1.404    24 C    0.957
                            28 C    0.110
    26   6 C    3.991 --    27 C    1.443    25 C    1.404    61 H    0.970
                            29 C    0.112
    27   6 C    3.992 --    26 C    1.443    28 C    1.440    62 H    0.970
                            30 C    0.112
    28   6 C    3.992 --    27 C    1.440    29 C    1.438    63 H    0.971
                            25 C    0.110
    29   6 C    3.992 --    30 C    1.444    28 C    1.438    64 H    0.970
                            26 C    0.112
    30   6 C    3.992 --    29 C    1.444    25 C    1.407    65 H    0.970
                            27 C    0.112
    31   8 O    2.027 --    24 C    1.699    23 N    0.193
    32   6 C    3.974 --    36 N    0.989    23 N    0.982    66 H    0.942
                            33 C    0.912
    33   6 C    3.919 --    35 O    1.782    34 O    1.148    32 C    0.912
    34   8 O    2.212 --    33 C    1.148    67 H    0.855    35 O    0.180
    35   8 O    2.072 --    33 C    1.782    34 O    0.180
    36   7 N    3.462 --    37 C    1.205    32 C    0.989    11 C    0.946
                            44 O    0.191
    37   6 C    3.946 --    44 O    1.693    36 N    1.205    38 C    0.964
    38   6 C    3.988 --    43 C    1.402    39 C    1.399    37 C    0.964
                            41 C    0.109
    39   6 C    3.991 --    40 C    1.447    38 C    1.399    68 H    0.970
                            42 C    0.111
    40   6 C    3.992 --    39 C    1.447    41 C    1.436    69 H    0.970
                            43 C    0.111
    41   6 C    3.991 --    42 C    1.439    40 C    1.436    70 H    0.971
                            38 C    0.109
    42   6 C    3.991 --    43 C    1.444    41 C    1.439    71 H    0.970
                            39 C    0.111
    43   6 C    3.989 --    42 C    1.444    38 C    1.402    72 H    0.969
                            40 C    0.111
    44   8 O    2.024 --    37 C    1.693    36 N    0.191
    45   1 H    0.999 --     1 C    0.968
    46   1 H    0.998 --     2 C    0.968
    47   1 H    0.998 --     4 C    0.968
    48   1 H    0.998 --     5 C    0.971
    49   1 H    0.998 --     6 C    0.971
    50   1 H    0.998 --     7 C    0.968
    51   1 H    0.997 --     9 C    0.964
    52   1 H    0.993 --    11 C    0.952
    53   1 H    0.994 --    12 C    0.953
    54   1 H    0.998 --    14 C    0.965
    55   1 H    0.998 --    16 C    0.968
    56   1 H    0.999 --    17 C    0.971
    57   1 H    0.999 --    18 C    0.971
    58   1 H    0.998 --    19 C    0.968
    59   1 H    0.998 --    21 C    0.968
    60   1 H    0.997 --    22 C    0.965
    61   1 H    0.998 --    26 C    0.970
    62   1 H    0.998 --    27 C    0.970
    63   1 H    0.998 --    28 C    0.971
    64   1 H    0.998 --    29 C    0.970
    65   1 H    0.999 --    30 C    0.970
    66   1 H    0.996 --    32 C    0.942
    67   1 H    0.881 --    34 O    0.855
    68   1 H    0.999 --    39 C    0.970
    69   1 H    0.998 --    40 C    0.970
    70   1 H    0.998 --    41 C    0.971
    71   1 H    0.998 --    42 C    0.970
    72   1 H    0.997 --    43 C    0.969
 ---------------------------------------------------------------------------

molecular dipole:
                 x           y           z       tot (Debye)
 q only:       -0.891      -0.620       1.018
   full:       -0.997      -0.898       1.445       5.011

           -------------------------------------------------
          | TOTAL ENERGY             -117.802847530075 Eh   |
          | GRADIENT NORM               0.000589440165 Eh/Î± |
          | HOMO-LUMO GAP               2.637356669703 eV   |
           -------------------------------------------------

 * finished run on 2022/03/16 at 21:25:27.299
