   * xtb version 6.3.3 (4ae9cef) compiled by 'conda@95abc7406d43' on 2020-10-14
          program call               : xtb acid_321.xyz --opt --chrg 0 --uhf 0 --gfn 2
          number of atoms            :                    80
          number of electrons        :                   234
          charge                     :                     0
          spin                       :                   0.0

   ID    Z sym.   atoms
    1    6 C      1-14, 16-28, 30, 31, 35-47
    2    7 N      15, 34
    3    8 O      29, 32, 33, 48
    4    1 H      49-80

          :  Hamiltonian                  GFN2-xTB          :
 * total energy  :  -128.3696042 Eh     change       -0.2062933E-08 Eh
 * total energy  :  -128.3839463 Eh     change       -0.1434209E-01 Eh
 * total energy  :  -128.3883833 Eh     change       -0.4436987E-02 Eh
 * total energy  :  -128.3900156 Eh     change       -0.1632289E-02 Eh
 * total energy  :  -128.3911639 Eh     change       -0.1148296E-02 Eh
 * total energy  :  -128.3919599 Eh     change       -0.7959426E-03 Eh
 * total energy  :  -128.3927088 Eh     change       -0.7489182E-03 Eh
 * total energy  :  -128.3934126 Eh     change       -0.7037816E-03 Eh
 * total energy  :  -128.3940440 Eh     change       -0.6314406E-03 Eh
 * total energy  :  -128.3945697 Eh     change       -0.5257281E-03 Eh
 * total energy  :  -128.4054772 Eh     change       -0.5340197E-04 Eh
 * total energy  :  -128.4055112 Eh     change       -0.3399018E-04 Eh
 * total energy  :  -128.4055379 Eh     change       -0.2674088E-04 Eh
 * total energy  :  -128.4055600 Eh     change       -0.2208377E-04 Eh
 * total energy  :  -128.4055777 Eh     change       -0.1772630E-04 Eh
 * total energy  :  -128.4055928 Eh     change       -0.1506396E-04 Eh
 * total energy  :  -128.4056023 Eh     change       -0.9572714E-05 Eh
 * total energy  :  -128.4056080 Eh     change       -0.5611367E-05 Eh
 * total energy  :  -128.4056081 Eh     change       -0.1613864E-06 Eh
   *** GEOMETRY OPTIMIZATION CONVERGED AFTER 68 ITERATIONS ***

 final structure:
================
80
 xtb: 6.3.3 (4ae9cef)
C        -0.85461753750333    2.79430037103482    0.33741208169915
C        -0.71028175972172    3.90256250129156    1.15279155276013
C        -0.24297140797922    3.75432745970325    2.44702842084556
C         0.09232539756291    2.49652910449277    2.91984190851213
C        -0.04630093835493    1.38792120386370    2.10600409889798
C        -0.53513255046716    1.53109715733995    0.81271958948937
C        -0.70546317392980    0.31406882368423   -0.06029636415289
C         0.66130078024771   -0.29879786553219   -0.45053160901313
C         0.89008801490074   -0.28105658305781   -1.94160593275441
C         0.11507186235719   -1.07233604374377   -2.78044850301668
C         0.33823512218395   -1.06816937008925   -4.14502187812047
C         1.33441107013239   -0.27194176173850   -4.68447773372583
C         2.10106050414397    0.52782962052386   -3.85476087577052
C         1.87804733201101    0.52465490705040   -2.48962546054951
N         0.61489029229902   -1.64851607954422    0.07979237802773
C         1.64007811297905   -2.53330946619659    0.09607556429820
C         2.89172776742889   -2.04445537809057   -0.56538345829362
C         3.73854704271050   -1.11099205283483    0.03642254057800
C         3.46074998169998   -0.58582995339169    1.38484753561954
C         3.14037685108579   -1.44602302104879    2.43154624140057
C         2.89456391887678   -0.94338328063246    3.69616140648136
C         2.95877842371429    0.41938674749355    3.93205110559899
C         3.27595545662023    1.28292033589090    2.89694752070725
C         3.53002768493691    0.78378629312534    1.63337906838931
C         4.86178495938453   -0.67955978287912   -0.66445898865065
C         5.14229285613410   -1.16820579867437   -1.92650043011251
C         4.30740171061343   -2.10734037629710   -2.50832920411739
C         3.18839491459005   -2.54647809291009   -1.82527352403388
O         1.51461884156124   -3.64708516315122    0.56242110002653
C        -0.70048867300506   -2.01549690916089    0.54729660711227
C        -0.65743665964496   -2.77987255646717    1.88529943838102
O         0.00322612627631   -2.08080554840399    2.81225955529001
O        -1.11193322718530   -3.86986669126832    2.05193495050065
N        -1.39082310408284   -0.75270939731171    0.64621737607144
C        -2.44178122277074   -0.61068362665527    1.49105969072839
C        -3.19205613041037    0.67407821355030    1.37762020284097
C        -3.32023317650231    1.47058765979454    2.50752954687900
C        -3.98980165158317    2.67764752813524    2.44059473633179
C        -4.55551010669071    3.08356334334505    1.24320916912501
C        -4.46422311269392    2.27713876034514    0.12445791080758
C        -3.79008130687196    1.06027644678712    0.17268402241732
C        -3.72224264607971    0.19894070356568   -1.01981269851869
C        -3.40143408328149    0.73942029131736   -2.26455502600981
C        -3.29117853692065   -0.07305076933749   -3.37799142829513
C        -3.50991997056975   -1.43613647672048   -3.26712266388370
C        -3.85085929886135   -1.98033889015271   -2.03971487763725
C        -3.95754771301635   -1.17070014745972   -0.92335849158875
O        -2.74637942504652   -1.49057991153643    2.27380247074057
H        -1.22532256058697    2.90713864970879   -0.67102236399130
H        -0.96907054322305    4.88172978278531    0.77846634002633
H        -0.13952365153886    4.61851687301719    3.08621044168715
H         0.46076972909061    2.37674792964198    3.92729203676734
H         0.21079637065259    0.40648897478041    2.47720644296609
H        -1.25605550587975    0.58189795189013   -0.97214751649684
H         1.46341890859110    0.25960225514404    0.04633725248892
H        -0.66266858273116   -1.69575984482266   -2.36490808781054
H        -0.26589048869550   -1.69045640872762   -4.78803069060346
H         1.51224005673986   -0.27454532339885   -5.74947748321081
H         2.87790690426548    1.15221760828411   -4.26991536439824
H         2.48003368913635    1.14463045019680   -1.84151299187706
H         3.10659331859229   -2.51012370568417    2.25649583874144
H         2.65943064116219   -1.62034852427734    4.50401302440433
H         2.76738928463078    0.80722349815175    4.92178747250970
H         3.32616239110475    2.34755442265501    3.07267568038528
H         3.77215660060521    1.46185097005308    0.82634433563500
H         5.52764832187497    0.03374531254952   -0.20027640919139
H         6.01890456068495   -0.82212409241447   -2.45397281471801
H         4.52653282858731   -2.49702097581648   -3.49069500232118
H         2.52816296186535   -3.27668524373511   -2.26891327098134
H        -1.21168281069370   -2.68301224955624   -0.17199613772915
H         0.01797724387724   -2.58354041460200    3.64157795068562
H        -2.87449933450675    1.13824088426416    3.43266117893161
H        -4.07379602090744    3.29798178231541    3.31980252343844
H        -5.08198089296224    4.02474842060265    1.18488453929039
H        -4.93913465469741    2.57843581415550   -0.79805225106476
H        -3.21789724167250    1.80126830499941   -2.35317488069915
H        -3.02830603843465    0.35780814127930   -4.33301428650736
H        -3.42094281092069   -2.07133283397861   -4.13592858786816
H        -4.03487089586252   -3.04066743550056   -1.94909157079585
H        -4.23973938953994   -1.59952645196033    0.02623600994195

          :  Hamiltonian                  GFN2-xTB          :
         :: total energy            -128.405608118176 Eh    ::
         :: gradient norm              0.000395787112 Eh/a0 ::
         :: HOMO-LUMO gap              3.568014673175 eV    ::
         :: SCC energy              -130.564008245808 Eh    ::
         :: -> dispersion             -0.134050975903 Eh    ::
         :: repulsion energy           2.150004349991 Eh    ::

    * Orbital Energies and Occupations

         #    Occupation            Energy/Eh            Energy/eV
      -------------------------------------------------------------
         1        2.0000           -0.7397149             -20.1287
       ...           ...                  ...                  ...
       105        2.0000           -0.4209416             -11.4544
       106        2.0000           -0.4207088             -11.4481
       107        2.0000           -0.4186625             -11.3924
       108        2.0000           -0.4163376             -11.3291
       109        2.0000           -0.4129223             -11.2362
       110        2.0000           -0.4105437             -11.1715
       111        2.0000           -0.4090681             -11.1313
       112        2.0000           -0.4051677             -11.0252
       113        2.0000           -0.4008620             -10.9080
       114        2.0000           -0.3983032             -10.8384
       115        2.0000           -0.3953650             -10.7584
       116        2.0000           -0.3918217             -10.6620
       117        2.0000           -0.3909266             -10.6377 (HOMO)
       118                         -0.2598045              -7.0696 (LUMO)
       119                         -0.2541213              -6.9150
       120                         -0.2486072              -6.7649
       121                         -0.2450096              -6.6670
       122                         -0.2403635              -6.5406
       123                         -0.2393401              -6.5128
       124                         -0.2381179              -6.4795
       125                         -0.2376357              -6.4664
       126                         -0.2325943              -6.3292
       127                         -0.2289782              -6.2308
       128                         -0.2252451              -6.1292
       ...                                ...                  ...
       224                          0.6824790              18.5712
      -------------------------------------------------------------
                  HL-Gap            0.1311221 Eh            3.5680 eV

     #   Z          covCN         q      C6AA      Î±(0)
     1   6 C        2.923    -0.035    28.870     8.811
     2   6 C        2.920    -0.028    28.699     8.785
     3   6 C        2.920    -0.029    28.732     8.790
     4   6 C        2.920    -0.026    28.653     8.778
     5   6 C        2.923    -0.034    28.840     8.807
     6   6 C        2.975    -0.003    28.086     8.693
     7   6 C        3.817     0.040    19.895     6.348
     8   6 C        3.818     0.038    19.919     6.352
     9   6 C        2.973    -0.004    28.111     8.697
    10   6 C        2.924    -0.031    28.780     8.798
    11   6 C        2.920    -0.026    28.659     8.779
    12   6 C        2.920    -0.029    28.713     8.787
    13   6 C        2.920    -0.027    28.672     8.781
    14   6 C        2.924    -0.034    28.836     8.806
    15   7 N        2.766    -0.114    23.484     7.197
    16   6 C        2.765     0.275    22.356     7.743
    17   6 C        2.981    -0.019    28.467     8.752
    18   6 C        2.978     0.009    27.802     8.649
    19   6 C        2.977     0.007    27.858     8.658
    20   6 C        2.924    -0.030    28.747     8.793
    21   6 C        2.919    -0.025    28.630     8.774
    22   6 C        2.920    -0.029    28.715     8.788
    23   6 C        2.918    -0.029    28.729     8.789
    24   6 C        2.925    -0.036    28.887     8.814
    25   6 C        2.925    -0.033    28.828     8.805
    26   6 C        2.918    -0.029    28.715     8.787
    27   6 C        2.919    -0.029    28.721     8.788
    28   6 C        2.925    -0.023    28.574     8.766
    29   8 O        0.859    -0.427    22.231     6.322
    30   6 C        3.764     0.108    18.855     6.189
    31   6 C        2.687     0.379    20.575     7.423
    32   8 O        1.659    -0.371    20.299     6.082
    33   8 O        0.856    -0.364    20.975     6.140
    34   7 N        2.765    -0.116    23.534     7.205
    35   6 C        2.766     0.277    22.322     7.738
    36   6 C        2.980    -0.018    28.454     8.750
    37   6 C        2.923    -0.020    28.515     8.757
    38   6 C        2.919    -0.029    28.715     8.787
    39   6 C        2.918    -0.028    28.691     8.784
    40   6 C        2.925    -0.033    28.810     8.802
    41   6 C        2.978     0.009    27.810     8.650
    42   6 C        2.976     0.007    27.848     8.656
    43   6 C        2.925    -0.036    28.885     8.814
    44   6 C        2.918    -0.030    28.753     8.793
    45   6 C        2.920    -0.029    28.733     8.790
    46   6 C        2.918    -0.028    28.699     8.785
    47   6 C        2.924    -0.033    28.826     8.805
    48   8 O        0.859    -0.426    22.211     6.319
    49   1 H        0.926     0.029     2.600     2.521
    50   1 H        0.926     0.038     2.474     2.460
    51   1 H        0.926     0.039     2.463     2.454
    52   1 H        0.926     0.041     2.437     2.441
    53   1 H        0.926     0.049     2.327     2.386
    54   1 H        0.923     0.049     2.337     2.391
    55   1 H        0.924     0.054     2.267     2.355
    56   1 H        0.926     0.034     2.525     2.485
    57   1 H        0.926     0.041     2.437     2.441
    58   1 H        0.926     0.040     2.444     2.445
    59   1 H        0.926     0.039     2.456     2.451
    60   1 H        0.926     0.030     2.585     2.514
    61   1 H        0.926     0.047     2.361     2.403
    62   1 H        0.926     0.034     2.526     2.485
    63   1 H        0.926     0.031     2.568     2.506
    64   1 H        0.926     0.030     2.593     2.518
    65   1 H        0.925     0.023     2.681     2.560
    66   1 H        0.926     0.039     2.466     2.456
    67   1 H        0.926     0.038     2.482     2.464
    68   1 H        0.926     0.038     2.469     2.457
    69   1 H        0.926     0.039     2.462     2.454
    70   1 H        0.922     0.057     2.235     2.338
    71   1 H        0.805     0.341     0.609     1.226
    72   1 H        0.926     0.045     2.382     2.414
    73   1 H        0.926     0.040     2.449     2.447
    74   1 H        0.926     0.039     2.462     2.454
    75   1 H        0.926     0.040     2.448     2.446
    76   1 H        0.925     0.027     2.634     2.538
    77   1 H        0.926     0.031     2.575     2.510
    78   1 H        0.926     0.033     2.540     2.492
    79   1 H        0.926     0.039     2.463     2.454
    80   1 H        0.926     0.043     2.411     2.428

Wiberg/Mayer (AO) data.
largest (>0.10) Wiberg bond orders for each atom

     #   Z sym  total        # sym  WBO       # sym  WBO       # sym  WBO
 ---------------------------------------------------------------------------
     1   6 C    3.991 --     2 C    1.441     6 C    1.416    49 H    0.968
                             4 C    0.109
     2   6 C    3.991 --     1 C    1.441     3 C    1.441    50 H    0.971
                             5 C    0.112
     3   6 C    3.990 --     2 C    1.441     4 C    1.435    51 H    0.971
                             6 C    0.109
     4   6 C    3.992 --     5 C    1.448     3 C    1.435    52 H    0.970
                             1 C    0.109
     5   6 C    3.990 --     4 C    1.448     6 C    1.408    53 H    0.965
                             2 C    0.112
     6   6 C    3.985 --     1 C    1.416     5 C    1.408     7 C    0.989
                             3 C    0.109
     7   6 C    3.967 --     6 C    0.989    34 N    0.965     8 C    0.951
                            54 H    0.946
     8   6 C    3.968 --     9 C    0.987    15 N    0.966     7 C    0.951
                            55 H    0.949
     9   6 C    3.986 --    14 C    1.414    10 C    1.410     8 C    0.987
                            12 C    0.109
    10   6 C    3.991 --    11 C    1.447     9 C    1.410    56 H    0.967
                            13 C    0.112
    11   6 C    3.992 --    10 C    1.447    12 C    1.437    57 H    0.970
                            14 C    0.111
    12   6 C    3.990 --    13 C    1.440    11 C    1.437    58 H    0.971
                             9 C    0.109
    13   6 C    3.992 --    14 C    1.443    12 C    1.440    59 H    0.970
                            10 C    0.112
    14   6 C    3.991 --    13 C    1.443     9 C    1.414    60 H    0.968
                            11 C    0.111
    15   7 N    3.470 --    16 C    1.216    30 C    0.977     8 C    0.966
                            29 O    0.191
    16   6 C    3.943 --    29 O    1.681    15 N    1.216    17 C    0.957
    17   6 C    3.987 --    28 C    1.412    18 C    1.363    16 C    0.957
                            26 C    0.106
    18   6 C    3.988 --    25 C    1.391    17 C    1.363    19 C    1.039
                            27 C    0.104
    19   6 C    3.989 --    20 C    1.391    24 C    1.388    18 C    1.039
                            22 C    0.105
    20   6 C    3.991 --    21 C    1.447    19 C    1.391    61 H    0.967
                            23 C    0.109
    21   6 C    3.992 --    20 C    1.447    22 C    1.437    62 H    0.970
                            24 C    0.109
    22   6 C    3.988 --    21 C    1.437    23 C    1.434    63 H    0.971
                            19 C    0.105
    23   6 C    3.992 --    24 C    1.449    22 C    1.434    64 H    0.971
                            20 C    0.109
    24   6 C    3.992 --    23 C    1.449    19 C    1.388    65 H    0.969
                            21 C    0.109
    25   6 C    3.991 --    26 C    1.450    18 C    1.391    66 H    0.968
                            28 C    0.108
    26   6 C    3.991 --    25 C    1.450    27 C    1.431    67 H    0.970
                            17 C    0.106
    27   6 C    3.987 --    28 C    1.440    26 C    1.431    68 H    0.970
                            18 C    0.104
    28   6 C    3.990 --    27 C    1.440    17 C    1.412    69 H    0.969
                            25 C    0.108
    29   8 O    2.023 --    16 C    1.681    15 N    0.191
    30   6 C    3.960 --    34 N    0.978    15 N    0.977    70 H    0.940
                            31 C    0.910
    31   6 C    3.927 --    33 O    1.796    32 O    1.131    30 C    0.910
    32   8 O    2.198 --    31 C    1.131    71 H    0.859    33 O    0.173
    33   8 O    2.083 --    31 C    1.796    32 O    0.173
    34   7 N    3.462 --    35 C    1.211    30 C    0.978     7 C    0.965
                            48 O    0.184
    35   6 C    3.943 --    48 O    1.666    34 N    1.211    36 C    0.971
    36   6 C    3.987 --    37 C    1.409    41 C    1.353    35 C    0.971
                            39 C    0.105
    37   6 C    3.989 --    38 C    1.443    36 C    1.409    72 H    0.968
                            40 C    0.107
    38   6 C    3.987 --    37 C    1.443    39 C    1.429    73 H    0.970
                            41 C    0.103
    39   6 C    3.991 --    40 C    1.449    38 C    1.429    74 H    0.970
                            36 C    0.105
    40   6 C    3.990 --    39 C    1.449    41 C    1.394    75 H    0.968
                            37 C    0.107
    41   6 C    3.988 --    40 C    1.394    36 C    1.353    42 C    1.043
                            38 C    0.103
    42   6 C    3.989 --    47 C    1.389    43 C    1.385    41 C    1.043
                            45 C    0.105
    43   6 C    3.991 --    44 C    1.449    42 C    1.385    76 H    0.968
                            46 C    0.108
    44   6 C    3.992 --    43 C    1.449    45 C    1.434    77 H    0.971
                            47 C    0.108
    45   6 C    3.987 --    46 C    1.435    44 C    1.434    78 H    0.971
                            42 C    0.105
    46   6 C    3.992 --    47 C    1.448    45 C    1.435    79 H    0.970
                            43 C    0.108
    47   6 C    3.991 --    46 C    1.448    42 C    1.389    80 H    0.966
                            44 C    0.108
    48   8 O    2.037 --    35 C    1.666    34 N    0.184
    49   1 H    0.999 --     1 C    0.968
    50   1 H    0.998 --     2 C    0.971
    51   1 H    0.998 --     3 C    0.971
    52   1 H    0.998 --     4 C    0.970
    53   1 H    0.998 --     5 C    0.965
    54   1 H    0.997 --     7 C    0.946
    55   1 H    0.997 --     8 C    0.949
    56   1 H    0.999 --    10 C    0.967
    57   1 H    0.998 --    11 C    0.970
    58   1 H    0.998 --    12 C    0.971
    59   1 H    0.998 --    13 C    0.970
    60   1 H    0.999 --    14 C    0.968
    61   1 H    0.998 --    20 C    0.967
    62   1 H    0.998 --    21 C    0.970
    63   1 H    0.999 --    22 C    0.971
    64   1 H    0.999 --    23 C    0.971
    65   1 H    0.999 --    24 C    0.969
    66   1 H    0.998 --    25 C    0.968
    67   1 H    0.998 --    26 C    0.970
    68   1 H    0.998 --    27 C    0.970
    69   1 H    0.998 --    28 C    0.969
    70   1 H    0.996 --    30 C    0.940
    71   1 H    0.883 --    32 O    0.859
    72   1 H    0.997 --    37 C    0.968
    73   1 H    0.997 --    38 C    0.970
    74   1 H    0.997 --    39 C    0.970
    75   1 H    0.998 --    40 C    0.968
    76   1 H    0.999 --    43 C    0.968
    77   1 H    0.998 --    44 C    0.971
    78   1 H    0.998 --    45 C    0.971
    79   1 H    0.998 --    46 C    0.970
    80   1 H    0.998 --    47 C    0.966
 ---------------------------------------------------------------------------

molecular dipole:
                 x           y           z       tot (Debye)
 q only:        0.781       3.061      -1.328
   full:        0.815       3.224      -1.409       9.181

           -------------------------------------------------
          | TOTAL ENERGY             -128.405608118176 Eh   |
          | GRADIENT NORM               0.000395787112 Eh/Î± |
          | HOMO-LUMO GAP               3.568014673175 eV   |
           -------------------------------------------------

 * finished run on 2022/03/16 at 23:49:32.360
