   * xtb version 6.3.3 (4ae9cef) compiled by 'conda@95abc7406d43' on 2020-10-14
          program call               : xtb sub_6.xyz --opt --chrg 0 --uhf 0 --gfn 2
          number of atoms            :                    28
          number of electrons        :                    78
          charge                     :                     0
          spin                       :                   0.0

   ID    Z sym.   atoms
    1    6 C      1-5, 7, 9-16
    2    7 N      6, 8
    3    1 H      17-28

          :  Hamiltonian                  GFN2-xTB          :
 * total energy  :   -41.9477658 Eh     change       -0.1710312E-08 Eh
 * total energy  :   -41.9544789 Eh     change       -0.6713182E-02 Eh
 * total energy  :   -41.9558348 Eh     change       -0.1355823E-02 Eh
 * total energy  :   -41.9559918 Eh     change       -0.1570676E-03 Eh
 * total energy  :   -41.9561066 Eh     change       -0.1147814E-03 Eh
 * total energy  :   -41.9561724 Eh     change       -0.6574860E-04 Eh
 * total energy  :   -41.9562559 Eh     change       -0.8351471E-04 Eh
 * total energy  :   -41.9563292 Eh     change       -0.7329603E-04 Eh
 * total energy  :   -41.9563637 Eh     change       -0.3451326E-04 Eh
 * total energy  :   -41.9563866 Eh     change       -0.2291033E-04 Eh
 * total energy  :   -41.9563980 Eh     change       -0.1144115E-04 Eh
 * total energy  :   -41.9564098 Eh     change       -0.1177129E-04 Eh
 * total energy  :   -41.9564224 Eh     change       -0.1258146E-04 Eh
 * total energy  :   -41.9564340 Eh     change       -0.1164396E-04 Eh
 * total energy  :   -41.9564431 Eh     change       -0.9038546E-05 Eh
 * total energy  :   -41.9564486 Eh     change       -0.5521176E-05 Eh
 * total energy  :   -41.9564527 Eh     change       -0.4135460E-05 Eh
   *** GEOMETRY OPTIMIZATION CONVERGED AFTER 17 ITERATIONS ***

 final structure:
================
28
 xtb: 6.3.3 (4ae9cef)
C         4.87736593248291    0.31658137691142   -0.50375320309394
C         3.41258050336081    0.07728306866112   -0.32108077323920
C         2.56343718627632    1.06470511385992    0.17161454196162
C         1.21254386389556    0.81263286552270    0.30680687431697
C         2.82916851600145   -1.14526029981961   -0.63345023390364
N         1.54060620379050   -1.39957381989036   -0.52125087032197
C         0.73267188318377   -0.44098672019057   -0.07903673932161
N        -0.60704068918021   -0.79067228042695    0.02872361263814
C        -1.02130456964177   -2.08100699496534    0.28105795733906
C        -2.36884197585277   -2.12989856603444    0.41061969889430
C        -2.85680954831415   -0.80553189399883    0.20495223733266
C        -1.72689279072456    0.01242727340697   -0.04432463518177
C        -1.88076430405438    1.35338446187874   -0.37357061677439
C        -3.15874185238820    1.87528578559800   -0.38474894053827
C        -4.27181727829528    1.08777089902064   -0.09022881888095
C        -4.13503008786698   -0.25339867239783    0.19172202419952
H         5.43920282148055   -0.60423636869027   -0.36482595550235
H         5.07248716007392    0.68142490219431   -1.51290849190246
H         5.23755430739164    1.06340812623670    0.20043492904176
H         2.96475950276729    2.02486566283356    0.46493246682788
H         0.55345780194353    1.54815461482306    0.73697727243756
H         3.43038207181776   -1.97066820642099   -0.99404009387174
H        -0.28579628636110   -2.85688661250660    0.35991591282477
H        -2.96144508652298   -2.99666933981614    0.62573102795074
H        -1.04059038441702    1.97442901747729   -0.64285387889482
H        -3.30077509679932    2.91654810526695   -0.63425640648930
H        -5.25329861534248    1.53855878372443   -0.10305002653626
H        -4.99707218870457   -0.87267228225763    0.39021712868804

          :  Hamiltonian                  GFN2-xTB          :
         :: total energy             -41.956452723596 Eh    ::
         :: gradient norm              0.000289192422 Eh/a0 ::
         :: HOMO-LUMO gap              3.032284850845 eV    ::
         :: SCC energy               -42.706601414570 Eh    ::
         :: -> dispersion             -0.029542989403 Eh    ::
         :: repulsion energy           0.750255626427 Eh    ::

    * Orbital Energies and Occupations

         #    Occupation            Energy/Eh            Energy/eV
      -------------------------------------------------------------
         1        2.0000           -0.6748458             -18.3635
       ...           ...                  ...                  ...
        27        2.0000           -0.4729232             -12.8689
        28        2.0000           -0.4618399             -12.5673
        29        2.0000           -0.4551520             -12.3853
        30        2.0000           -0.4539517             -12.3527
        31        2.0000           -0.4489052             -12.2153
        32        2.0000           -0.4359883             -11.8638
        33        2.0000           -0.4269187             -11.6170
        34        2.0000           -0.4230611             -11.5121
        35        2.0000           -0.4144193             -11.2769
        36        2.0000           -0.4070313             -11.0759
        37        2.0000           -0.3789236             -10.3110
        38        2.0000           -0.3750575             -10.2058
        39        2.0000           -0.3625932              -9.8667 (HOMO)
        40                         -0.2511588              -6.8344 (LUMO)
        41                         -0.2420538              -6.5866
        42                         -0.2253956              -6.1333
        43                         -0.1921504              -5.2287
        44                         -0.1541078              -4.1935
        45                         -0.1069507              -2.9103
        46                         -0.0684906              -1.8637
        47                          0.0244205               0.6645
        48                          0.0959262               2.6103
        49                          0.1198113               3.2602
        50                          0.1226309               3.3370
       ...                                ...                  ...
        76                          0.7351619              20.0048
      -------------------------------------------------------------
                  HL-Gap            0.1114344 Eh            3.0323 eV

     #   Z          covCN         q      C6AA      Î±(0)
     1   6 C        3.757    -0.110    22.649     6.785
     2   6 C        2.961     0.001    28.013     8.681
     3   6 C        2.935    -0.023    28.570     8.766
     4   6 C        2.913    -0.059    29.466     8.901
     5   6 C        2.911     0.052    26.843     8.496
     6   7 N        1.846    -0.246    27.278     7.741
     7   6 C        2.903     0.143    24.891     8.180
     8   7 N        2.832    -0.018    21.604     6.903
     9   6 C        3.037     0.001    27.963     8.674
    10   6 C        3.000    -0.069    29.701     8.940
    11   6 C        3.115    -0.007    28.040     8.674
    12   6 C        3.079     0.037    27.087     8.532
    13   6 C        2.909    -0.049    29.220     8.864
    14   6 C        2.924    -0.037    28.933     8.821
    15   6 C        2.920    -0.039    28.979     8.828
    16   6 C        2.912    -0.036    28.898     8.815
    17   1 H        0.925     0.047     2.364     2.404
    18   1 H        0.924     0.052     2.301     2.372
    19   1 H        0.925     0.046     2.367     2.406
    20   1 H        0.926     0.036     2.500     2.472
    21   1 H        0.926     0.044     2.398     2.422
    22   1 H        0.925     0.040     2.453     2.449
    23   1 H        0.926     0.053     2.284     2.363
    24   1 H        0.926     0.034     2.532     2.488
    25   1 H        0.926     0.026     2.644     2.543
    26   1 H        0.926     0.027     2.626     2.534
    27   1 H        0.926     0.027     2.629     2.535
    28   1 H        0.926     0.030     2.585     2.514

Wiberg/Mayer (AO) data.
largest (>0.10) Wiberg bond orders for each atom

     #   Z sym  total        # sym  WBO       # sym  WBO       # sym  WBO
 ---------------------------------------------------------------------------
     1   6 C    3.995 --     2 C    1.027    19 H    0.981    17 H    0.981
                            18 H    0.966
     2   6 C    3.973 --     5 C    1.396     3 C    1.394     1 C    1.027
     3   6 C    3.990 --     4 C    1.470     2 C    1.394    20 H    0.968
     4   6 C    3.987 --     3 C    1.470     7 C    1.344    21 H    0.964
                             5 C    0.109
     5   6 C    3.981 --     6 N    1.445     2 C    1.396    22 H    0.962
                             4 C    0.109
     6   7 N    3.056 --     5 C    1.445     7 C    1.370
     7   6 C    3.970 --     6 N    1.370     4 C    1.344     8 N    1.078
     8   7 N    3.624 --     9 C    1.151    12 C    1.126     7 C    1.078
     9   6 C    3.952 --    10 C    1.642     8 N    1.151    23 H    0.967
    10   6 C    3.972 --     9 C    1.642    11 C    1.202    24 H    0.973
    11   6 C    3.982 --    16 C    1.342    12 C    1.254    10 C    1.202
    12   6 C    3.955 --    13 C    1.356    11 C    1.254     8 N    1.126
    13   6 C    3.987 --    14 C    1.478    12 C    1.356    25 H    0.964
                            16 C    0.110
    14   6 C    3.989 --    13 C    1.478    15 C    1.384    26 H    0.972
    15   6 C    3.985 --    16 C    1.492    14 C    1.384    27 H    0.972
    16   6 C    3.990 --    15 C    1.492    11 C    1.342    28 H    0.970
                            13 C    0.110
    17   1 H    0.997 --     1 C    0.981
    18   1 H    0.996 --     1 C    0.966
    19   1 H    0.997 --     1 C    0.981
    20   1 H    0.998 --     3 C    0.968
    21   1 H    0.998 --     4 C    0.964
    22   1 H    0.998 --     5 C    0.962
    23   1 H    0.996 --     9 C    0.967
    24   1 H    0.998 --    10 C    0.973
    25   1 H    0.999 --    13 C    0.964
    26   1 H    0.999 --    14 C    0.972
    27   1 H    0.999 --    15 C    0.972
    28   1 H    0.999 --    16 C    0.970
 ---------------------------------------------------------------------------

molecular dipole:
                 x           y           z       tot (Debye)
 q only:        0.694       0.233       0.103
   full:        0.969       0.588       0.166       2.911

           -------------------------------------------------
          | TOTAL ENERGY              -41.956452723596 Eh   |
          | GRADIENT NORM               0.000289192422 Eh/Î± |
          | HOMO-LUMO GAP               3.032284850845 eV   |
           -------------------------------------------------

 * finished run on 2022/03/17 at 02:20:31.771
