   * xtb version 6.3.3 (4ae9cef) compiled by 'conda@95abc7406d43' on 2020-10-14
          program call               : xtb acid_396.xyz --opt --chrg 0 --uhf 0 --gfn 2
          number of atoms            :                    66
          number of electrons        :                   218
          charge                     :                     0
          spin                       :                   0.0

   ID    Z sym.   atoms
    1    6 C      1-22, 24-26, 28, 29, 32, 33, 37-39, 41, 42
    2    7 N      23, 36
    3   16 S      27, 40
    4   35 Br     30, 43
    5    8 O      31, 34, 35, 44
    6    1 H      45-66

          :  Hamiltonian                  GFN2-xTB          :
 * total energy  :  -120.8041597 Eh     change       -0.2394501E-08 Eh
 * total energy  :  -120.8207080 Eh     change       -0.1654831E-01 Eh
 * total energy  :  -120.8262606 Eh     change       -0.5552644E-02 Eh
 * total energy  :  -120.8276531 Eh     change       -0.1392473E-02 Eh
 * total energy  :  -120.8281710 Eh     change       -0.5178727E-03 Eh
 * total energy  :  -120.8283665 Eh     change       -0.1955224E-03 Eh
 * total energy  :  -120.8285828 Eh     change       -0.2162999E-03 Eh
 * total energy  :  -120.8288325 Eh     change       -0.2496869E-03 Eh
 * total energy  :  -120.8291398 Eh     change       -0.3073539E-03 Eh
 * total energy  :  -120.8294617 Eh     change       -0.3218157E-03 Eh
 * total energy  :  -120.8369878 Eh     change       -0.2647244E-04 Eh
 * total energy  :  -120.8370082 Eh     change       -0.2034644E-04 Eh
 * total energy  :  -120.8370255 Eh     change       -0.1734440E-04 Eh
 * total energy  :  -120.8370425 Eh     change       -0.1697973E-04 Eh
 * total energy  :  -120.8370584 Eh     change       -0.1593830E-04 Eh
 * total energy  :  -120.8370741 Eh     change       -0.1569002E-04 Eh
 * total energy  :  -120.8370910 Eh     change       -0.1683164E-04 Eh
 * total energy  :  -120.8371078 Eh     change       -0.1680295E-04 Eh
 * total energy  :  -120.8371113 Eh     change       -0.3515742E-05 Eh
   *** GEOMETRY OPTIMIZATION CONVERGED AFTER 94 ITERATIONS ***

 final structure:
================
66
 xtb: 6.3.3 (4ae9cef)
C        -5.29450107352248    0.49203241175510   -1.07874749489725
C        -5.63827732143508    0.32836695592404    0.23212174498696
C        -4.65795101287130   -0.03911049247749    1.16302756167436
C        -3.35909305062514   -0.22595294130527    0.77751153529414
C        -2.96025839199356   -0.04844901316152   -0.56569916625931
C        -3.96396279860463    0.30859650578743   -1.50938637297313
C        -3.62225212289561    0.47518281104109   -2.86634264945426
C        -2.33454658435049    0.30044987878977   -3.27850757732047
C        -1.33687996090351   -0.03327895741204   -2.35277145289014
C        -1.61900245323217   -0.20832079969032   -1.02069415877189
C        -0.52394320295832   -0.54200485269163   -0.02473687856545
C         0.82288128531391   -0.97466954994878   -0.63060039863358
C         1.54282905097338   -1.91461223807273    0.30949586970105
C         2.58658650366356   -1.49396944987541    1.08891618604256
C         3.23485108229987   -2.36914845585375    1.97228324502336
C         2.82977450859152   -3.66750864476349    2.07154712107376
C         1.75602630246845   -4.14429616727659    1.29051412285347
C         1.09199052126516   -3.26149525368382    0.39664529462138
C         0.01333556880121   -3.76915108260685   -0.36139767724475
C        -0.37656815981793   -5.07495577075710   -0.24620723096984
C         0.28524783005279   -5.94430000862811    0.63176531081248
C         1.32864841699498   -5.48519370063678    1.38386816870893
N         1.49667991083039    0.30376594813285   -0.82456235236666
C         2.27722223315126    0.52871472273465   -1.90802052980604
C         2.77287747748598    1.93225439551321   -2.05541235918373
C         2.43593349668773    2.70390048162980   -3.12734615343530
S         3.16194571072890    4.25716116050415   -3.08731437565882
C         3.97620058741381    3.87797350713268   -1.62929532175287
C         3.67828915067682    2.62308364928491   -1.20388755125524
Br        4.44796697597444    1.89328347438496    0.35357139578573
O         2.53310325014669   -0.33395984783178   -2.71952657957421
C         0.98713352184432    1.30542367883602    0.08425279366167
C         0.55705786006344    2.62060493334564   -0.59990081114032
O        -0.32441380526588    2.44780868001740   -1.56716092455190
O         0.96638302950589    3.69159191315108   -0.23712194630415
N        -0.12236935702734    0.64524295787542    0.73621688948889
C        -0.32726262523770    0.73978681235771    2.08024489295630
C         0.14945966565127    2.03439932833091    2.64991105660023
C         1.20463818177992    2.21038044779390    3.48918327223103
S         1.41802547137969    3.85549061895866    3.93603967522694
C         0.05667153348308    4.33013283886578    3.00875790365337
C        -0.50941546461393    3.26635917146418    2.38307952435206
Br       -2.04543047274475    3.39247316828429    1.28909154981239
O        -0.91040390748469   -0.09721602920353    2.72977541031775
H        -6.03795703924430    0.76639362300243   -1.81367501427202
H        -6.65801549051628    0.47428570639284    0.55634842106376
H        -4.93255339572272   -0.17697074614995    2.19821524274796
H        -2.64151878530148   -0.50846843963689    1.52869843772300
H        -4.39837468278504    0.74204419977269   -3.56910608409504
H        -2.06562201050983    0.42080208400098   -4.31746057320935
H        -0.33254998661826   -0.13861319675893   -2.73104180287890
H        -0.88118156123586   -1.28548460554102    0.69340410822641
H         0.73465094733452   -1.45729137304522   -1.60640945483244
H         2.94366686586411   -0.47869559736115    1.02560369128155
H         4.05680514831679   -1.99834866728336    2.56588341207050
H         3.32265468539452   -4.35066829080817    2.74784449345040
H        -0.51960809158680   -3.12464158720758   -1.04331549799140
H        -1.20293722484655   -5.44353755331107   -0.83596934776144
H        -0.03596569303893   -6.97256095431080    0.70725048383390
H         1.84686582903859   -6.14364253717035    2.06624589856802
H         1.78262360757259    2.43487580664211   -3.93342251452133
H         4.62413052547226    4.59145968531717   -1.16131697197427
H         1.73711659614574    1.59733196391667    0.83801931034352
H        -0.65507593588047    3.29686967055305   -1.90516252045772
H         1.87735731187867    1.46240688563234    3.85869121813526
H        -0.24973998133824    5.35558472731790    2.96749550270244

          :  Hamiltonian                  GFN2-xTB          :
         :: total energy            -120.837111276569 Eh    ::
         :: gradient norm              0.000172401502 Eh/a0 ::
         :: HOMO-LUMO gap              2.565502184571 eV    ::
         :: SCC energy              -122.554264802561 Eh    ::
         :: -> dispersion             -0.116766268171 Eh    ::
         :: repulsion energy           1.712326161602 Eh    ::

    * Orbital Energies and Occupations

         #    Occupation            Energy/Eh            Energy/eV
      -------------------------------------------------------------
         1        2.0000           -0.8560263             -23.2937
       ...           ...                  ...                  ...
        97        2.0000           -0.4233202             -11.5191
        98        2.0000           -0.4218747             -11.4798
        99        2.0000           -0.4204354             -11.4406
       100        2.0000           -0.4185919             -11.3905
       101        2.0000           -0.4167352             -11.3399
       102        2.0000           -0.4135751             -11.2540
       103        2.0000           -0.4105190             -11.1708
       104        2.0000           -0.4092974             -11.1375
       105        2.0000           -0.4072889             -11.0829
       106        2.0000           -0.4050747             -11.0226
       107        2.0000           -0.4037500             -10.9866
       108        2.0000           -0.3827211             -10.4144
       109        2.0000           -0.3815133             -10.3815 (HOMO)
       110                         -0.2872328              -7.8160 (LUMO)
       111                         -0.2779739              -7.5641
       112                         -0.2750584              -7.4847
       113                         -0.2661850              -7.2433
       114                         -0.2639979              -7.1837
       115                         -0.2489825              -6.7752
       116                         -0.2488075              -6.7704
       117                         -0.2435776              -6.6281
       118                         -0.2391349              -6.5072
       119                         -0.2330192              -6.3408
       120                         -0.2320001              -6.3130
       ...                                ...                  ...
       218                          0.6914909              18.8164
      -------------------------------------------------------------
                  HL-Gap            0.0942805 Eh            2.5655 eV

     #   Z          covCN         q      C6AA      Î±(0)
     1   6 C        2.922    -0.035    28.863     8.810
     2   6 C        2.915    -0.028    28.690     8.783
     3   6 C        2.917    -0.025    28.638     8.775
     4   6 C        2.917    -0.040    28.998     8.830
     5   6 C        2.984     0.010    27.778     8.645
     6   6 C        2.989     0.015    27.678     8.630
     7   6 C        2.920    -0.035    28.881     8.813
     8   6 C        2.914    -0.033    28.825     8.804
     9   6 C        2.920    -0.035    28.868     8.811
    10   6 C        2.963    -0.006    28.160     8.704
    11   6 C        3.830     0.039    19.899     6.347
    12   6 C        3.833     0.039    19.898     6.347
    13   6 C        2.968    -0.005    28.138     8.701
    14   6 C        2.920    -0.036    28.884     8.813
    15   6 C        2.915    -0.029    28.724     8.789
    16   6 C        2.920    -0.034    28.850     8.808
    17   6 C        2.988     0.017    27.617     8.620
    18   6 C        2.986     0.008    27.843     8.656
    19   6 C        2.917    -0.038    28.941     8.822
    20   6 C        2.917    -0.027    28.681     8.782
    21   6 C        2.915    -0.028    28.702     8.785
    22   6 C        2.921    -0.032    28.808     8.802
    23   7 N        2.767    -0.107    23.337     7.175
    24   6 C        2.760     0.278    22.300     7.733
    25   6 C        3.187    -0.040    28.510     8.712
    26   6 C        2.954    -0.025    28.635     8.777
    27  16 S        2.311     0.050   139.008    19.844
    28   6 C        3.010    -0.030    28.721     8.791
    29   6 C        3.136     0.064    26.345     8.401
    30  35 Br       1.035    -0.146   189.069    22.170
    31   8 O        0.859    -0.414    21.963     6.283
    32   6 C        3.761     0.094    19.075     6.226
    33   6 C        2.687     0.355    20.979     7.496
    34   8 O        1.659    -0.344    19.799     6.007
    35   8 O        0.856    -0.404    21.768     6.255
    36   7 N        2.773    -0.115    23.511     7.202
    37   6 C        2.761     0.283    22.210     7.718
    38   6 C        3.206    -0.039    28.349     8.672
    39   6 C        2.947    -0.026    28.642     8.778
    40  16 S        2.322     0.054   138.869    19.834
    41   6 C        2.994    -0.031    28.754     8.796
    42   6 C        3.135     0.068    26.274     8.390
    43  35 Br       1.026    -0.155   189.316    22.185
    44   8 O        0.858    -0.402    21.729     6.250
    45   1 H        0.926     0.033     2.545     2.495
    46   1 H        0.926     0.033     2.542     2.493
    47   1 H        0.926     0.037     2.493     2.469
    48   1 H        0.926     0.058     2.227     2.334
    49   1 H        0.926     0.035     2.510     2.477
    50   1 H        0.926     0.033     2.546     2.495
    51   1 H        0.926     0.036     2.498     2.472
    52   1 H        0.924     0.083     1.944     2.180
    53   1 H        0.924     0.085     1.931     2.173
    54   1 H        0.926     0.034     2.532     2.488
    55   1 H        0.926     0.038     2.479     2.462
    56   1 H        0.926     0.038     2.479     2.462
    57   1 H        0.926     0.029     2.598     2.521
    58   1 H        0.926     0.034     2.531     2.488
    59   1 H        0.926     0.034     2.523     2.484
    60   1 H        0.926     0.036     2.501     2.473
    61   1 H        0.926     0.067     2.120     2.277
    62   1 H        0.926     0.072     2.066     2.248
    63   1 H        0.923     0.066     2.132     2.283
    64   1 H        0.804     0.349     0.591     1.207
    65   1 H        0.926     0.069     2.096     2.264
    66   1 H        0.926     0.073     2.049     2.239

Wiberg/Mayer (AO) data.
largest (>0.10) Wiberg bond orders for each atom

     #   Z sym  total        # sym  WBO       # sym  WBO       # sym  WBO
 ---------------------------------------------------------------------------
     1   6 C    3.991 --     2 C    1.555     6 C    1.280    45 H    0.968
                             4 C    0.119
     2   6 C    3.992 --     1 C    1.555     3 C    1.325    46 H    0.971
     3   6 C    3.992 --     4 C    1.551     2 C    1.325    47 H    0.971
     4   6 C    3.990 --     3 C    1.551     5 C    1.286    48 H    0.955
                             1 C    0.119
     5   6 C    3.988 --     4 C    1.286     6 C    1.252    10 C    1.249
     6   6 C    3.990 --     1 C    1.280     7 C    1.279     5 C    1.252
     7   6 C    3.990 --     8 C    1.556     6 C    1.279    49 H    0.968
                            10 C    0.114
     8   6 C    3.991 --     7 C    1.556     9 C    1.321    50 H    0.971
     9   6 C    3.990 --    10 C    1.530     8 C    1.321    51 H    0.963
    10   6 C    3.982 --     9 C    1.530     5 C    1.249    11 C    0.983
                             7 C    0.114
    11   6 C    3.952 --    10 C    0.983    12 C    0.960    52 H    0.944
                            36 N    0.943
    12   6 C    3.955 --    13 C    0.985    11 C    0.960    23 N    0.956
                            53 H    0.938
    13   6 C    3.984 --    14 C    1.536    18 C    1.244    12 C    0.985
                            16 C    0.114
    14   6 C    3.991 --    13 C    1.536    15 C    1.316    54 H    0.962
    15   6 C    3.992 --    16 C    1.562    14 C    1.316    55 H    0.970
    16   6 C    3.990 --    15 C    1.562    17 C    1.274    56 H    0.968
                            13 C    0.114
    17   6 C    3.990 --    22 C    1.281    16 C    1.274    18 C    1.257
    18   6 C    3.989 --    19 C    1.286    17 C    1.257    13 C    1.244
    19   6 C    3.992 --    20 C    1.552    18 C    1.286    57 H    0.966
                            22 C    0.118
    20   6 C    3.992 --    19 C    1.552    21 C    1.325    58 H    0.971
    21   6 C    3.992 --    22 C    1.555    20 C    1.325    59 H    0.971
    22   6 C    3.991 --    21 C    1.555    17 C    1.281    60 H    0.968
                            19 C    0.118
    23   7 N    3.480 --    24 C    1.222    32 C    0.982    12 C    0.956
                            31 O    0.197
    24   6 C    3.954 --    31 O    1.688    23 N    1.222    25 C    0.956
    25   6 C    3.981 --    26 C    1.577    29 C    1.218    24 C    0.956
    26   6 C    3.952 --    25 C    1.577    27 S    1.215    61 H    0.967
                            28 C    0.106
    27  16 S    2.682 --    26 C    1.215    28 C    1.203
    28   6 C    3.951 --    29 C    1.590    27 S    1.203    62 H    0.968
                            26 C    0.106
    29   6 C    3.933 --    28 C    1.590    25 C    1.218    30 Br   0.983
    30  35 Br   1.144 --    29 C    0.983
    31   8 O    2.029 --    24 C    1.688    23 N    0.197
    32   6 C    3.970 --    36 N    0.982    23 N    0.982    63 H    0.939
                            33 C    0.911
    33   6 C    3.921 --    35 O    1.754    34 O    1.179    32 C    0.911
    34   8 O    2.244 --    33 C    1.179    64 H    0.850    35 O    0.184
    35   8 O    2.041 --    33 C    1.754    34 O    0.184
    36   7 N    3.457 --    37 C    1.200    32 C    0.982    11 C    0.943
                            44 O    0.187
    37   6 C    3.949 --    44 O    1.705    36 N    1.200    38 C    0.956
    38   6 C    3.981 --    39 C    1.591    42 C    1.215    37 C    0.956
    39   6 C    3.953 --    38 C    1.591    40 S    1.207    65 H    0.967
                            41 C    0.107
    40  16 S    2.677 --    39 C    1.207    41 C    1.205
    41   6 C    3.951 --    42 C    1.588    40 S    1.205    66 H    0.967
                            39 C    0.107
    42   6 C    3.932 --    41 C    1.588    38 C    1.215    43 Br   0.984
    43  35 Br   1.135 --    42 C    0.984
    44   8 O    2.048 --    37 C    1.705    36 N    0.187
    45   1 H    0.998 --     1 C    0.968
    46   1 H    0.998 --     2 C    0.971
    47   1 H    0.998 --     3 C    0.971
    48   1 H    0.996 --     4 C    0.955
    49   1 H    0.998 --     7 C    0.968
    50   1 H    0.998 --     8 C    0.971
    51   1 H    0.998 --     9 C    0.963
    52   1 H    0.992 --    11 C    0.944
    53   1 H    0.992 --    12 C    0.938
    54   1 H    0.998 --    14 C    0.962
    55   1 H    0.997 --    15 C    0.970
    56   1 H    0.997 --    16 C    0.968
    57   1 H    0.999 --    19 C    0.966
    58   1 H    0.998 --    20 C    0.971
    59   1 H    0.998 --    21 C    0.971
    60   1 H    0.998 --    22 C    0.968
    61   1 H    0.996 --    26 C    0.967
    62   1 H    0.994 --    28 C    0.968
    63   1 H    0.995 --    32 C    0.939
    64   1 H    0.878 --    34 O    0.850
    65   1 H    0.995 --    39 C    0.967
    66   1 H    0.994 --    41 C    0.967
 ---------------------------------------------------------------------------

molecular dipole:
                 x           y           z       tot (Debye)
 q only:       -0.344       0.699      -0.289
   full:       -0.208       0.950      -0.524       2.808

           -------------------------------------------------
          | TOTAL ENERGY             -120.837111276569 Eh   |
          | GRADIENT NORM               0.000172401502 Eh/Î± |
          | HOMO-LUMO GAP               2.565502184571 eV   |
           -------------------------------------------------

 * finished run on 2022/03/17 at 00:42:30.911
