   * xtb version 6.3.3 (4ae9cef) compiled by 'conda@95abc7406d43' on 2020-10-14
          program call               : xtb acid_475.xyz --opt --chrg 0 --uhf 0 --gfn 2
          number of atoms            :                    74
          number of electrons        :                   230
          charge                     :                     0
          spin                       :                   0.0

   ID    Z sym.   atoms
    1    6 C      1, 3-16, 18, 20-28, 31, 32, 36-44
    2    8 O      2, 17, 29, 30, 33, 34, 45, 46
    3    7 N      19, 35
    4    1 H      47-74

          :  Hamiltonian                  GFN2-xTB          :
 * total energy  :  -129.7738985 Eh     change       -0.5657654E-08 Eh
 * total energy  :  -129.7890702 Eh     change       -0.1517177E-01 Eh
 * total energy  :  -129.7938834 Eh     change       -0.4813179E-02 Eh
 * total energy  :  -129.7955005 Eh     change       -0.1617032E-02 Eh
 * total energy  :  -129.7965173 Eh     change       -0.1016836E-02 Eh
 * total energy  :  -129.7971427 Eh     change       -0.6254321E-03 Eh
 * total energy  :  -129.7976314 Eh     change       -0.4887011E-03 Eh
 * total energy  :  -129.7980084 Eh     change       -0.3769846E-03 Eh
 * total energy  :  -129.7983547 Eh     change       -0.3463343E-03 Eh
 * total energy  :  -129.7986624 Eh     change       -0.3076529E-03 Eh
 * total energy  :  -129.8027785 Eh     change       -0.1048794E-04 Eh
 * total energy  :  -129.8027928 Eh     change       -0.1429141E-04 Eh
 * total energy  :  -129.8028056 Eh     change       -0.1282804E-04 Eh
 * total energy  :  -129.8028163 Eh     change       -0.1067752E-04 Eh
 * total energy  :  -129.8028251 Eh     change       -0.8811972E-05 Eh
 * total energy  :  -129.8028342 Eh     change       -0.9085886E-05 Eh
 * total energy  :  -129.8028423 Eh     change       -0.8078683E-05 Eh
 * total energy  :  -129.8028498 Eh     change       -0.7519390E-05 Eh
 * total energy  :  -129.8028527 Eh     change       -0.2930517E-05 Eh
   *** GEOMETRY OPTIMIZATION CONVERGED AFTER 68 ITERATIONS ***

 final structure:
================
74
 xtb: 6.3.3 (4ae9cef)
C         2.45146611449246   -1.81837747072137    2.37238489497276
O         2.66755525900046   -0.45849225591077    2.29452061807582
C         3.60179061463922    0.14018391898589    3.16640140132711
C         2.93392283876833   -2.58593992223985    3.42573739044731
C         2.68268731035231   -3.94398286911231    3.48426608924718
C         1.95024281133868   -4.55135555734280    2.48293284741865
C         1.47618520712978   -3.79200801994539    1.42961240894470
C         1.69999005150160   -2.42216964682773    1.35552362598545
C         1.19261430356853   -1.71297423286987    0.11287867813493
C        -0.26512681072831   -2.07542857242653   -0.24752288822145
C        -0.37659392059958   -2.79729600732643   -1.56851114141605
C        -0.03364816879592   -2.14327597087329   -2.74021506955584
C        -0.16831951779758   -2.76293556056108   -3.96942155149950
C        -0.66250837045879   -4.05222299858687   -4.02604656940374
C        -1.00742586344219   -4.72435355952053   -2.86673828630051
C        -0.86319856513749   -4.10960723034098   -1.62796924984365
O        -1.14111250215327   -4.71083528513577   -0.43821410063757
C        -1.84328523298991   -5.93094744365563   -0.44658898934025
N        -0.94473159553336   -0.78677398950214   -0.34276179172246
C        -2.27300129039702   -0.75205387848316   -0.63974927250910
C        -2.86900898144068    0.59726229297340   -0.81160589609272
C        -2.45944474529549    1.67238056391428   -1.54503819466903
C        -3.48985262394944    2.64820511163284   -1.42544596330155
C        -3.68821328843183    3.94208839825667   -1.90582109166192
C        -4.84925924119622    4.59268054952827   -1.55402284342119
C        -5.80888706837171    3.98411676799182   -0.74033751050325
C        -5.63675714644762    2.70531367497844   -0.25230159984680
C        -4.46825514299544    2.04656027978266   -0.60571867806609
O        -4.08663655026063    0.80259022527292   -0.25991165099246
O        -2.91236247436727   -1.76902688043096   -0.80830696998772
C        -0.12550050870998    0.28689814379480    0.17113499288236
C        -0.64201860083726    0.73253115104196    1.57746530341743
O         0.20097281080103    0.62383715385188    2.58133255527919
O        -1.75593510469609    1.15301737431222    1.70257389264254
N         1.20608653200971   -0.25718681493227    0.16683861655951
C         2.34204441911127    0.39729132107914   -0.23044714533463
C         2.33428990109028    1.86252207639653   -0.11261796307011
C         3.28030727586915    2.73261308925330   -0.57447765149069
C         2.86295818033513    4.03135125466640   -0.16907017337057
C         1.65858430736554    3.83083604952541    0.53813831722654
C         0.93853363764509    4.87751848128789    1.09310524680019
C         1.45699490577931    6.14516103905541    0.92623432841621
C         2.65071682656659    6.36420930756600    0.23141225809664
C         3.36392453814047    5.32494168928049   -0.32135584033473
O         1.34565633133079    2.51623830341187    0.57061540556628
O         3.33024992862175   -0.20085557819975   -0.60935560616061
H         3.70456792171912    1.16766329559376    2.81936787467913
H         4.57226264476299   -0.35710583427698    3.10689911619807
H         3.24250346155443    0.14184750529644    4.19952768322601
H         3.50908541669878   -2.12516963532879    4.21220546065418
H         3.06436841518705   -4.51970028438180    4.31348314819242
H         1.75234926741743   -5.61118919229489    2.51501165172955
H         0.91765778443099   -4.27102108594093    0.64199693135670
H         1.86835363400007   -2.00618022277911   -0.70524434071767
H        -0.73634951768622   -2.68205802415112    0.53335364614667
H         0.33572135239227   -1.12897635199002   -2.68690637007798
H         0.10138492595924   -2.23977765082938   -4.87372035708579
H        -0.78461411943458   -4.54519630620562   -4.97891229695933
H        -1.39296969974104   -5.72887615680142   -2.93790959426502
H        -2.78304850431774   -5.84439087207928   -0.99816166706734
H        -2.05700528722397   -6.15184221547878    0.59810969984236
H        -1.23923651118168   -6.74063550102166   -0.86996035154891
H        -1.56383447064909    1.75999637462634   -2.12768349671560
H        -2.94779815655544    4.41523247483328   -2.53312242771306
H        -5.02793015153317    5.59622870929059   -1.91115017179397
H        -6.70541937151529    4.53066198807373   -0.48916805120599
H        -6.37102146252416    2.22905251841004    0.37669084794763
H        -0.20153142794600    1.17002189610056   -0.47344868190106
H         1.08615472012448    0.26859604415157    2.32370904081749
H         4.15406660667364    2.46465228614386   -1.13176470898936
H         0.01838787632720    4.69499866472102    1.62393625060404
H         0.92892237061224    6.99009548500464    1.34077835993055
H         3.01504688934039    7.37520252543695    0.12795764199396
H         4.28323660268432    5.49562309298659   -0.85940901996801

          :  Hamiltonian                  GFN2-xTB          :
         :: total energy            -129.802852719620 Eh    ::
         :: gradient norm              0.000360099982 Eh/a0 ::
         :: HOMO-LUMO gap              2.476724985932 eV    ::
         :: SCC energy              -131.626011231043 Eh    ::
         :: -> dispersion             -0.102809117980 Eh    ::
         :: repulsion energy           1.820696120052 Eh    ::

    * Orbital Energies and Occupations

         #    Occupation            Energy/Eh            Energy/eV
      -------------------------------------------------------------
         1        2.0000           -0.7600298             -20.6815
       ...           ...                  ...                  ...
       103        2.0000           -0.4205157             -11.4428
       104        2.0000           -0.4201792             -11.4337
       105        2.0000           -0.4170673             -11.3490
       106        2.0000           -0.4151734             -11.2974
       107        2.0000           -0.4121479             -11.2151
       108        2.0000           -0.4064809             -11.0609
       109        2.0000           -0.4028551             -10.9622
       110        2.0000           -0.4001577             -10.8888
       111        2.0000           -0.3969332             -10.8011
       112        2.0000           -0.3935142             -10.7081
       113        2.0000           -0.3899808             -10.6119
       114        2.0000           -0.3808181             -10.3626
       115        2.0000           -0.3774189             -10.2701 (HOMO)
       116                         -0.2864009              -7.7934 (LUMO)
       117                         -0.2559631              -6.9651
       118                         -0.2416429              -6.5754
       119                         -0.2401136              -6.5338
       120                         -0.2345134              -6.3814
       121                         -0.2313400              -6.2951
       122                         -0.2286977              -6.2232
       123                         -0.2219208              -6.0388
       124                         -0.2169470              -5.9034
       125                         -0.2128927              -5.7931
       126                         -0.2034812              -5.5370
       ...                                ...                  ...
       212                          0.7262005              19.7609
      -------------------------------------------------------------
                  HL-Gap            0.0910180 Eh            2.4767 eV

     #   Z          covCN         q      C6AA      Î±(0)
     1   6 C        2.861     0.137    25.002     8.196
     2   8 O        1.703    -0.294    18.892     5.868
     3   6 C        3.638     0.036    20.329     6.486
     4   6 C        2.919    -0.061    29.523     8.910
     5   6 C        2.921    -0.030    28.755     8.794
     6   6 C        2.917    -0.035    28.880     8.813
     7   6 C        2.929    -0.040    28.995     8.831
     8   6 C        2.965    -0.018    28.449     8.749
     9   6 C        3.825     0.039    19.895     6.347
    10   6 C        3.823     0.043    19.835     6.338
    11   6 C        2.974    -0.013    28.345     8.733
    12   6 C        2.925    -0.033    28.815     8.803
    13   6 C        2.917    -0.040    28.983     8.828
    14   6 C        2.921    -0.030    28.743     8.792
    15   6 C        2.918    -0.063    29.565     8.916
    16   6 C        2.867     0.147    24.805     8.164
    17   8 O        1.705    -0.269    18.453     5.800
    18   6 C        3.644     0.037    20.294     6.475
    19   7 N        2.764    -0.121    23.636     7.221
    20   6 C        2.757     0.271    22.424     7.755
    21   6 C        3.111     0.101    25.628     8.294
    22   6 C        2.988    -0.074    29.843     8.961
    23   6 C        3.088    -0.010    28.166     8.699
    24   6 C        2.911    -0.037    28.908     8.816
    25   6 C        2.921    -0.038    28.938     8.822
    26   6 C        2.926    -0.034    28.838     8.807
    27   6 C        2.907    -0.047    29.169     8.856
    28   6 C        3.128     0.130    24.971     8.182
    29   8 O        1.722    -0.168    16.837     5.540
    30   8 O        0.859    -0.405    21.781     6.257
    31   6 C        3.751     0.072    19.442     6.288
    32   6 C        2.684     0.353    21.009     7.501
    33   8 O        1.657    -0.363    20.143     6.059
    34   8 O        0.856    -0.370    21.087     6.157
    35   7 N        2.758    -0.117    23.546     7.207
    36   6 C        2.761     0.264    22.546     7.776
    37   6 C        3.090     0.086    25.995     8.357
    38   6 C        2.985    -0.053    29.302     8.879
    39   6 C        3.083    -0.011    28.187     8.704
    40   6 C        3.110     0.131    25.005     8.192
    41   6 C        2.907    -0.049    29.221     8.864
    42   6 C        2.928    -0.029    28.719     8.789
    43   6 C        2.921    -0.035    28.865     8.810
    44   6 C        2.911    -0.033    28.824     8.804
    45   8 O        1.719    -0.227    17.754     5.689
    46   8 O        0.859    -0.419    22.062     6.297
    47   1 H        0.925     0.062     2.174     2.306
    48   1 H        0.924     0.054     2.268     2.355
    49   1 H        0.924     0.049     2.334     2.389
    50   1 H        0.926     0.045     2.380     2.412
    51   1 H        0.926     0.043     2.403     2.424
    52   1 H        0.926     0.045     2.386     2.416
    53   1 H        0.926     0.061     2.191     2.315
    54   1 H        0.923     0.087     1.912     2.162
    55   1 H        0.924     0.078     1.995     2.209
    56   1 H        0.926     0.033     2.550     2.497
    57   1 H        0.926     0.039     2.467     2.456
    58   1 H        0.926     0.040     2.450     2.447
    59   1 H        0.926     0.042     2.416     2.431
    60   1 H        0.924     0.051     2.312     2.378
    61   1 H        0.925     0.064     2.155     2.296
    62   1 H        0.924     0.039     2.463     2.454
    63   1 H        0.926     0.030     2.583     2.513
    64   1 H        0.926     0.035     2.520     2.482
    65   1 H        0.926     0.036     2.505     2.475
    66   1 H        0.926     0.040     2.448     2.446
    67   1 H        0.926     0.052     2.298     2.370
    68   1 H        0.924     0.075     2.030     2.228
    69   1 H        0.802     0.357     0.574     1.190
    70   1 H        0.926     0.066     2.125     2.280
    71   1 H        0.926     0.058     2.226     2.333
    72   1 H        0.926     0.048     2.345     2.394
    73   1 H        0.926     0.044     2.396     2.421
    74   1 H        0.926     0.046     2.372     2.409

Wiberg/Mayer (AO) data.
largest (>0.10) Wiberg bond orders for each atom

     #   Z sym  total        # sym  WBO       # sym  WBO       # sym  WBO
 ---------------------------------------------------------------------------
     1   6 C    3.926 --     4 C    1.385     8 C    1.348     2 O    1.017
     2   8 O    2.236 --     1 C    1.017     3 C    0.972
     3   6 C    3.937 --    47 H    0.979    48 H    0.978    49 H    0.976
                             2 O    0.972
     4   6 C    3.988 --     5 C    1.440     1 C    1.385    50 H    0.964
                             7 C    0.106
     5   6 C    3.991 --     4 C    1.440     6 C    1.437    51 H    0.970
                             8 C    0.108
     6   6 C    3.990 --     7 C    1.439     5 C    1.437    52 H    0.970
     7   6 C    3.988 --     6 C    1.439     8 C    1.420    53 H    0.962
                             4 C    0.106
     8   6 C    3.981 --     7 C    1.420     1 C    1.348     9 C    0.987
                             5 C    0.108
     9   6 C    3.962 --     8 C    0.987    35 N    0.966    10 C    0.960
                            54 H    0.935
    10   6 C    3.960 --    11 C    0.989     9 C    0.960    19 N    0.955
                            55 H    0.949
    11   6 C    3.982 --    12 C    1.434    16 C    1.329    10 C    0.989
                            14 C    0.106
    12   6 C    3.991 --    11 C    1.434    13 C    1.430    56 H    0.969
                            15 C    0.103
    13   6 C    3.991 --    14 C    1.439    12 C    1.430    57 H    0.971
    14   6 C    3.990 --    15 C    1.440    13 C    1.439    58 H    0.971
                            11 C    0.106
    15   6 C    3.988 --    14 C    1.440    16 C    1.376    59 H    0.965
                            12 C    0.103
    16   6 C    3.936 --    15 C    1.376    11 C    1.329    17 O    1.063
    17   8 O    2.237 --    16 C    1.063    18 C    0.980
    18   6 C    3.943 --    17 O    0.980    61 H    0.979    60 H    0.977
                            62 H    0.976
    19   7 N    3.450 --    20 C    1.197    31 C    0.978    10 C    0.955
                            30 O    0.192
    20   6 C    3.954 --    30 O    1.687    19 N    1.197    21 C    0.979
    21   6 C    3.921 --    22 C    1.585    29 O    1.109    20 C    0.979
    22   6 C    3.979 --    21 C    1.585    23 C    1.217    63 H    0.970
    23   6 C    3.985 --    24 C    1.325    28 C    1.265    22 C    1.217
    24   6 C    3.987 --    25 C    1.506    23 C    1.325    64 H    0.970
                            27 C    0.115
    25   6 C    3.991 --    24 C    1.506    26 C    1.376    65 H    0.971
    26   6 C    3.985 --    27 C    1.488    25 C    1.376    66 H    0.971
    27   6 C    3.988 --    26 C    1.488    28 C    1.348    67 H    0.967
                            24 C    0.115
    28   6 C    3.920 --    27 C    1.348    23 C    1.265    29 O    1.099
    29   8 O    2.439 --    21 C    1.109    28 C    1.099
    30   8 O    2.025 --    20 C    1.687    19 N    0.192
    31   6 C    3.960 --    35 N    0.995    19 N    0.978    68 H    0.934
                            32 C    0.887
    32   6 C    3.928 --    34 O    1.779    33 O    1.198    31 C    0.887
    33   8 O    2.241 --    32 C    1.198    69 H    0.785    34 O    0.179
    34   8 O    2.076 --    32 C    1.779    33 O    0.179
    35   7 N    3.453 --    36 C    1.175    31 C    0.995     9 C    0.966
                            46 O    0.180
    36   6 C    3.955 --    46 O    1.664    35 N    1.175    37 C    1.024
    37   6 C    3.910 --    38 C    1.579    45 O    1.065    36 C    1.024
    38   6 C    3.983 --    37 C    1.579    39 C    1.224    70 H    0.970
    39   6 C    3.986 --    44 C    1.320    40 C    1.269    38 C    1.224
    40   6 C    3.918 --    41 C    1.351    39 C    1.269    45 O    1.083
    41   6 C    3.987 --    42 C    1.487    40 C    1.351    71 H    0.966
                            44 C    0.116
    42   6 C    3.979 --    41 C    1.487    43 C    1.374    72 H    0.971
    43   6 C    3.990 --    44 C    1.511    42 C    1.374    73 H    0.970
    44   6 C    3.984 --    43 C    1.511    39 C    1.320    74 H    0.969
                            41 C    0.116
    45   8 O    2.383 --    40 C    1.083    37 C    1.065
    46   8 O    2.002 --    36 C    1.664    35 N    0.180
    47   1 H    0.996 --     3 C    0.979
    48   1 H    0.997 --     3 C    0.978
    49   1 H    0.998 --     3 C    0.976
    50   1 H    0.998 --     4 C    0.964
    51   1 H    0.998 --     5 C    0.970
    52   1 H    0.997 --     6 C    0.970
    53   1 H    0.996 --     7 C    0.962
    54   1 H    0.992 --     9 C    0.935
    55   1 H    0.993 --    10 C    0.949
    56   1 H    0.998 --    12 C    0.969
    57   1 H    0.998 --    13 C    0.971
    58   1 H    0.998 --    14 C    0.971
    59   1 H    0.998 --    15 C    0.965
    60   1 H    0.997 --    18 C    0.977
    61   1 H    0.995 --    18 C    0.979
    62   1 H    0.998 --    18 C    0.976
    63   1 H    0.999 --    22 C    0.970
    64   1 H    0.999 --    24 C    0.970
    65   1 H    0.998 --    25 C    0.971
    66   1 H    0.998 --    26 C    0.971
    67   1 H    0.997 --    27 C    0.967
    68   1 H    0.994 --    31 C    0.934
    69   1 H    0.873 --    33 O    0.785
    70   1 H    0.995 --    38 C    0.970
    71   1 H    0.996 --    41 C    0.966
    72   1 H    0.997 --    42 C    0.971
    73   1 H    0.998 --    43 C    0.970
    74   1 H    0.998 --    44 C    0.969
 ---------------------------------------------------------------------------

molecular dipole:
                 x           y           z       tot (Debye)
 q only:        1.705       0.112       0.332
   full:        1.939       0.185       0.267       4.996

           -------------------------------------------------
          | TOTAL ENERGY             -129.802852719620 Eh   |
          | GRADIENT NORM               0.000360099982 Eh/Î± |
          | HOMO-LUMO GAP               2.476724985932 eV   |
           -------------------------------------------------

 * finished run on 2022/03/17 at 01:38:08.431
