   * xtb version 6.3.3 (4ae9cef) compiled by 'conda@95abc7406d43' on 2020-10-14
          program call               : xtb acid_118.xyz --opt --chrg 0 --uhf 0 --gfn 2
          number of atoms            :                    60
          number of electrons        :                   230
          charge                     :                     0
          spin                       :                   0.0

   ID    Z sym.   atoms
    1    6 C      1, 2, 6-15, 19-22, 24-28, 32, 33, 37-41
    2    9 F      3-5, 16-18
    3    7 N      23, 36
    4   35 Br     29, 42
    5   16 S      30, 43
    6    8 O      31, 34, 35, 44
    7    1 H      45-60

          :  Hamiltonian                  GFN2-xTB          :
 * total energy  :  -133.2860296 Eh     change       -0.1312600E-08 Eh
 * total energy  :  -133.3048929 Eh     change       -0.1886329E-01 Eh
 * total energy  :  -133.3118666 Eh     change       -0.6973706E-02 Eh
 * total energy  :  -133.3139321 Eh     change       -0.2065488E-02 Eh
 * total energy  :  -133.3150893 Eh     change       -0.1157261E-02 Eh
 * total energy  :  -133.3160547 Eh     change       -0.9653371E-03 Eh
 * total energy  :  -133.3170764 Eh     change       -0.1021733E-02 Eh
 * total energy  :  -133.3180018 Eh     change       -0.9254406E-03 Eh
 * total energy  :  -133.3188317 Eh     change       -0.8298337E-03 Eh
 * total energy  :  -133.3195958 Eh     change       -0.7640780E-03 Eh
 * total energy  :  -133.3381177 Eh     change       -0.1058710E-04 Eh
 * total energy  :  -133.3381278 Eh     change       -0.1007568E-04 Eh
 * total energy  :  -133.3381304 Eh     change       -0.2651078E-05 Eh
 * total energy  :  -133.3381357 Eh     change       -0.5316821E-05 Eh
 * total energy  :  -133.3381422 Eh     change       -0.6468341E-05 Eh
 * total energy  :  -133.3381453 Eh     change       -0.3083397E-05 Eh
 * total energy  :  -133.3381450 Eh     change        0.2905868E-06 Eh
 * total energy  :  -133.3381509 Eh     change       -0.5864764E-05 Eh
 * total energy  :  -133.3381526 Eh     change       -0.1751707E-05 Eh
   *** GEOMETRY OPTIMIZATION CONVERGED AFTER 109 ITERATIONS ***

 final structure:
================
60
 xtb: 6.3.3 (4ae9cef)
C         2.31814596229933   -0.77285136634526    1.47950947579186
C         1.57133397994763   -0.19056320358511    2.65170487526537
F         1.77137160880281    1.13811307776701    2.78476962402229
F         0.24054334210988   -0.36155222836755    2.60643195716357
F         1.95896798345483   -0.72631917799153    3.81696256546341
C         3.52191471288605   -1.40926394850704    1.77250885928671
C         4.28728424710047   -1.97487839789999    0.77211579397255
C         3.84685958499225   -1.91714194720544   -0.53790809563275
C         2.66263629193879   -1.27180164461599   -0.83300383282512
C         1.88324472785264   -0.67460232931213    0.15500436859177
C         0.62102878348613    0.01200513065723   -0.31247219925741
C        -0.64771993981658   -0.84911483319444   -0.11328132137640
C        -1.09207700152655   -1.48747051392815   -1.40791181359831
C        -1.03893238470193   -2.86401567520100   -1.63054573341525
C        -0.51626173889516   -3.80274379854310   -0.57791191805413
F        -1.22534668352834   -3.79943723605651    0.55958067918745
F         0.75661913287847   -3.49983073908430   -0.21361943241340
F        -0.47300639823886   -5.07553940954076   -0.98760679247687
C        -1.46711525314321   -3.39582809432447   -2.84122708228293
C        -1.94611274214487   -2.56472186406566   -3.83626097946996
C        -1.99120836273037   -1.19703645221648   -3.62785554447810
C        -1.56265661624479   -0.66522601576216   -2.42650525359036
N        -1.64196574594557    0.09581342490371    0.38095110676037
C        -2.94764342490711   -0.27044012186178    0.47472437755328
C        -3.83004803818377    0.73923785708960    1.10715725290540
C        -3.80897107069345    1.19775776371606    2.39198732583948
C        -4.85148585108362    2.10156767032903    2.67682433173958
C        -5.64791866289228    2.30679030039554    1.59290273779724
Br       -7.12456297505684    3.45519936757077    1.49079137831724
S        -5.15895549544511    1.38578341541592    0.21135265881341
O        -3.35308528339567   -1.33656759789014    0.06821812119047
C        -1.08453374957905    1.38079972408145    0.71212116241457
C        -1.71004417986930    2.51102677104635   -0.13915130577810
O        -2.40582786270469    3.36516550811058    0.58593133682154
O        -1.58800120336637    2.55810547451117   -1.33248552801512
N         0.31349677271019    1.26181608762871    0.35503140028113
C         1.04528900819508    2.40740003917310    0.33181197345310
C         2.45685782216008    2.28048956037356   -0.09829463090250
C         3.54890193491164    2.57881307005264    0.66180754280414
C         4.77118126621336    2.38335350632501   -0.01276728690114
C         4.57869214417959    1.96718733547383   -1.29259327563758
Br        5.89705516565629    1.55389206225669   -2.55590987096702
S         2.90538898914024    1.81093162728071   -1.70309213061327
O         0.56408790697925    3.45802887315244    0.70254733414144
H         3.85382243672807   -1.46661647476482    2.79734110181626
H         5.21614270918606   -2.46379641547707    1.01864743965138
H         4.42501775735323   -2.36612512722704   -1.32997156793313
H         2.32619578041564   -1.22397129707244   -1.85783408881604
H         0.73224834720252    0.20719328774060   -1.38946733115792
H        -0.48707313770301   -1.60574719581609    0.65990739820357
H        -1.42915878726996   -4.46247509735306   -2.99779266861754
H        -2.28294863674197   -2.98675873789193   -4.77012316148415
H        -2.36112160616096   -0.54067691953209   -4.40036802657532
H        -1.60762082707916    0.40277412535648   -2.26874677971037
H        -3.08302708204790    0.88414894163884    3.12003018395763
H        -5.00202458582375    2.57635769846525    3.62863793557812
H        -1.19078693114687    1.64326349454387    1.77380194101439
H        -2.72805028887382    4.10815141037340    0.04817890233788
H         3.47159146399998    2.90705074753338    1.68171410486439
H         5.73937368414402    2.54489850762973    0.42370040498204

          :  Hamiltonian                  GFN2-xTB          :
         :: total energy            -133.338152606459 Eh    ::
         :: gradient norm              0.000873966815 Eh/a0 ::
         :: HOMO-LUMO gap              2.986025063490 eV    ::
         :: SCC energy              -134.726497995994 Eh    ::
         :: -> dispersion             -0.103082383753 Eh    ::
         :: repulsion energy           1.384824745673 Eh    ::

    * Orbital Energies and Occupations

         #    Occupation            Energy/Eh            Energy/eV
      -------------------------------------------------------------
         1        2.0000           -0.8974010             -24.4195
       ...           ...                  ...                  ...
       103        2.0000           -0.4542554             -12.3609
       104        2.0000           -0.4480668             -12.1925
       105        2.0000           -0.4455062             -12.1228
       106        2.0000           -0.4412135             -12.0060
       107        2.0000           -0.4386792             -11.9371
       108        2.0000           -0.4358230             -11.8593
       109        2.0000           -0.4327789             -11.7765
       110        2.0000           -0.4315587             -11.7433
       111        2.0000           -0.4288723             -11.6702
       112        2.0000           -0.4222144             -11.4890
       113        2.0000           -0.4198294             -11.4241
       114        2.0000           -0.4164914             -11.3333
       115        2.0000           -0.4077430             -11.0953 (HOMO)
       116                         -0.2980086              -8.1092 (LUMO)
       117                         -0.2875261              -7.8240
       118                         -0.2868753              -7.8063
       119                         -0.2773918              -7.5482
       120                         -0.2748015              -7.4777
       121                         -0.2710675              -7.3761
       122                         -0.2627941              -7.1510
       123                         -0.2569522              -6.9920
       124                         -0.2496518              -6.7934
       125                         -0.2471510              -6.7253
       126                         -0.2405268              -6.5451
       ...                                ...                  ...
       212                          0.6482062              17.6386
      -------------------------------------------------------------
                  HL-Gap            0.1097344 Eh            2.9860 eV

     #   Z          covCN         q      C6AA      Î±(0)
     1   6 C        2.974    -0.030    28.742     8.794
     2   6 C        3.336     0.487    17.265     6.580
     3   9 F        0.791    -0.215    11.395     3.988
     4   9 F        0.791    -0.211    11.345     3.979
     5   9 F        0.793    -0.199    11.227     3.958
     6   6 C        2.926    -0.022    28.550     8.763
     7   6 C        2.920    -0.020    28.497     8.754
     8   6 C        2.918    -0.014    28.364     8.733
     9   6 C        2.931    -0.027    28.678     8.782
    10   6 C        2.966     0.007    27.855     8.657
    11   6 C        3.816     0.040    19.893     6.348
    12   6 C        3.820     0.050    19.715     6.319
    13   6 C        2.972     0.020    27.557     8.611
    14   6 C        2.975    -0.026    28.639     8.778
    15   6 C        3.335     0.485    17.307     6.590
    16   9 F        0.791    -0.199    11.226     3.958
    17   9 F        0.791    -0.229    11.536     4.012
    18   9 F        0.792    -0.199    11.222     3.957
    19   6 C        2.923    -0.021    28.520     8.758
    20   6 C        2.920    -0.021    28.539     8.760
    21   6 C        2.919    -0.016    28.418     8.742
    22   6 C        2.925    -0.029    28.729     8.790
    23   7 N        2.764    -0.111    23.417     7.187
    24   6 C        2.788     0.274    22.368     7.747
    25   6 C        2.995    -0.024    28.595     8.772
    26   6 C        3.115    -0.042    28.866     8.801
    27   6 C        3.135    -0.049    28.979     8.811
    28   6 C        2.942     0.079    26.227     8.399
    29  35 Br       1.137    -0.116   188.233    22.121
    30  16 S        2.464     0.049   139.059    19.847
    31   8 O        0.859    -0.404    21.768     6.255
    32   6 C        3.761     0.094    19.067     6.225
    33   6 C        2.689     0.364    20.821     7.468
    34   8 O        1.659    -0.347    19.844     6.014
    35   8 O        0.856    -0.393    21.536     6.222
    36   7 N        2.764    -0.113    23.460     7.194
    37   6 C        2.785     0.277    22.309     7.737
    38   6 C        2.991    -0.017    28.419     8.745
    39   6 C        3.119    -0.036    28.718     8.777
    40   6 C        3.137    -0.051    29.037     8.820
    41   6 C        2.941     0.081    26.196     8.394
    42  35 Br       1.142    -0.113   188.165    22.117
    43  16 S        2.466     0.019   140.285    19.935
    44   8 O        0.860    -0.409    21.868     6.270
    45   1 H        0.926     0.072     2.063     2.246
    46   1 H        0.926     0.066     2.135     2.285
    47   1 H        0.926     0.067     2.115     2.274
    48   1 H        0.926     0.056     2.248     2.344
    49   1 H        0.923     0.066     2.125     2.280
    50   1 H        0.924     0.074     2.042     2.235
    51   1 H        0.926     0.069     2.095     2.264
    52   1 H        0.926     0.060     2.201     2.320
    53   1 H        0.926     0.061     2.190     2.314
    54   1 H        0.926     0.069     2.092     2.262
    55   1 H        0.926     0.059     2.205     2.322
    56   1 H        0.926     0.070     2.088     2.259
    57   1 H        0.923     0.087     1.906     2.159
    58   1 H        0.804     0.353     0.580     1.197
    59   1 H        0.926     0.074     2.039     2.233
    60   1 H        0.926     0.069     2.098     2.265

Wiberg/Mayer (AO) data.
largest (>0.10) Wiberg bond orders for each atom

     #   Z sym  total        # sym  WBO       # sym  WBO       # sym  WBO
 ---------------------------------------------------------------------------
     1   6 C    3.970 --     6 C    1.408    10 C    1.390     2 C    0.950
                             8 C    0.105
     2   6 C    3.822 --     5 F    0.955     1 C    0.950     4 F    0.944
                             3 F    0.934
     3   9 F    1.064 --     2 C    0.934
     4   9 F    1.071 --     2 C    0.944
     5   9 F    1.079 --     2 C    0.955
     6   6 C    3.987 --     7 C    1.447     1 C    1.408    45 H    0.965
                             9 C    0.108
     7   6 C    3.988 --     6 C    1.447     8 C    1.430    46 H    0.968
                            10 C    0.108
     8   6 C    3.988 --     9 C    1.449     7 C    1.430    47 H    0.967
                             1 C    0.105
     9   6 C    3.988 --     8 C    1.449    10 C    1.405    48 H    0.965
                             6 C    0.108
    10   6 C    3.986 --     9 C    1.405     1 C    1.390    11 C    0.993
                             7 C    0.108
    11   6 C    3.967 --    10 C    0.993    36 N    0.966    12 C    0.950
                            49 H    0.945
    12   6 C    3.964 --    13 C    0.990    23 N    0.957    50 H    0.952
                            11 C    0.950
    13   6 C    3.986 --    22 C    1.409    14 C    1.386    12 C    0.990
                            20 C    0.108
    14   6 C    3.969 --    19 C    1.412    13 C    1.386    15 C    0.951
                            21 C    0.105
    15   6 C    3.821 --    18 F    0.958    16 F    0.952    14 C    0.951
                            17 F    0.922
    16   9 F    1.083 --    15 C    0.952
    17   9 F    1.049 --    15 C    0.922
    18   9 F    1.081 --    15 C    0.958
    19   6 C    3.987 --    20 C    1.443    14 C    1.412    51 H    0.965
                            22 C    0.109
    20   6 C    3.988 --    19 C    1.443    21 C    1.433    52 H    0.968
                            13 C    0.108
    21   6 C    3.989 --    22 C    1.447    20 C    1.433    53 H    0.968
                            14 C    0.105
    22   6 C    3.987 --    21 C    1.447    13 C    1.409    54 H    0.960
                            19 C    0.109
    23   7 N    3.464 --    24 C    1.199    32 C    0.986    12 C    0.957
                            31 O    0.193
    24   6 C    3.951 --    31 O    1.692    23 N    1.199    25 C    0.981
    25   6 C    3.946 --    26 C    1.572    30 S    1.159    24 C    0.981
                            28 C    0.104
    26   6 C    3.985 --    25 C    1.572    27 C    1.282    55 H    0.960
    27   6 C    3.982 --    28 C    1.564    26 C    1.282    56 H    0.961
    28   6 C    3.907 --    27 C    1.564    30 S    1.177    29 Br   1.020
                            25 C    0.104
    29  35 Br   1.170 --    28 C    1.020
    30  16 S    2.649 --    28 C    1.177    25 C    1.159
    31   8 O    2.042 --    24 C    1.692    23 N    0.193
    32   6 C    3.959 --    23 N    0.986    36 N    0.976    57 H    0.942
                            33 C    0.903
    33   6 C    3.922 --    35 O    1.763    34 O    1.180    32 C    0.903
    34   8 O    2.241 --    33 C    1.180    58 H    0.848    35 O    0.184
    35   8 O    2.055 --    33 C    1.763    34 O    0.184
    36   7 N    3.458 --    37 C    1.204    32 C    0.976    11 C    0.966
                            44 O    0.189
    37   6 C    3.949 --    44 O    1.678    36 N    1.204    38 C    0.985
    38   6 C    3.945 --    39 C    1.581    43 S    1.147    37 C    0.985
                            41 C    0.105
    39   6 C    3.984 --    38 C    1.581    40 C    1.276    59 H    0.958
    40   6 C    3.982 --    41 C    1.570    39 C    1.276    60 H    0.961
    41   6 C    3.908 --    40 C    1.570    43 S    1.167    42 Br   1.022
                            38 C    0.105
    42  35 Br   1.173 --    41 C    1.022
    43  16 S    2.640 --    41 C    1.167    38 C    1.147
    44   8 O    2.041 --    37 C    1.678    36 N    0.189
    45   1 H    0.994 --     6 C    0.965
    46   1 H    0.995 --     7 C    0.968
    47   1 H    0.995 --     8 C    0.967
    48   1 H    0.996 --     9 C    0.965
    49   1 H    0.995 --    11 C    0.945
    50   1 H    0.993 --    12 C    0.952
    51   1 H    0.995 --    19 C    0.965
    52   1 H    0.995 --    20 C    0.968
    53   1 H    0.996 --    21 C    0.968
    54   1 H    0.995 --    22 C    0.960
    55   1 H    0.996 --    26 C    0.960
    56   1 H    0.995 --    27 C    0.961
    57   1 H    0.992 --    32 C    0.942
    58   1 H    0.874 --    34 O    0.848
    59   1 H    0.994 --    39 C    0.958
    60   1 H    0.995 --    40 C    0.961
 ---------------------------------------------------------------------------

molecular dipole:
                 x           y           z       tot (Debye)
 q only:        1.365      -0.134      -1.296
   full:        1.535      -0.147      -0.476       4.101

           -------------------------------------------------
          | TOTAL ENERGY             -133.338152606459 Eh   |
          | GRADIENT NORM               0.000873966815 Eh/Î± |
          | HOMO-LUMO GAP               2.986025063490 eV   |
           -------------------------------------------------

 * finished run on 2022/03/16 at 21:30:20.091
