   * xtb version 6.3.3 (4ae9cef) compiled by 'conda@95abc7406d43' on 2020-10-14
          program call               : xtb acid_357.xyz --opt --chrg 0 --uhf 0 --gfn 2
          number of atoms            :                    68
          number of electrons        :                   214
          charge                     :                     0
          spin                       :                   0.0

   ID    Z sym.   atoms
    1    6 C      1, 3-16, 18, 20-24, 26, 27, 29, 30, 34-38, 40, 41
    2    8 O      2, 17, 28, 31, 32, 42
    3    7 N      19, 33
    4   35 Br     25, 39
    5    1 H      43-68

          :  Hamiltonian                  GFN2-xTB          :
 * total energy  :  -120.2070259 Eh     change       -0.3808523E-08 Eh
 * total energy  :  -120.2208198 Eh     change       -0.1379387E-01 Eh
 * total energy  :  -120.2249567 Eh     change       -0.4136913E-02 Eh
 * total energy  :  -120.2259820 Eh     change       -0.1025255E-02 Eh
 * total energy  :  -120.2265446 Eh     change       -0.5626148E-03 Eh
 * total energy  :  -120.2268037 Eh     change       -0.2591638E-03 Eh
 * total energy  :  -120.2270174 Eh     change       -0.2136206E-03 Eh
 * total energy  :  -120.2272773 Eh     change       -0.2599503E-03 Eh
 * total energy  :  -120.2276254 Eh     change       -0.3480526E-03 Eh
 * total energy  :  -120.2280419 Eh     change       -0.4165702E-03 Eh
 * total energy  :  -120.2382042 Eh     change       -0.1813244E-04 Eh
 * total energy  :  -120.2382239 Eh     change       -0.1977607E-04 Eh
 * total energy  :  -120.2382366 Eh     change       -0.1265969E-04 Eh
 * total energy  :  -120.2382537 Eh     change       -0.1707408E-04 Eh
 * total energy  :  -120.2382355 Eh     change        0.1813689E-04 Eh
 * total energy  :  -120.2382579 Eh     change       -0.2242243E-04 Eh
 * total energy  :  -120.2382672 Eh     change       -0.9207226E-05 Eh
 * total energy  :  -120.2382726 Eh     change       -0.5465664E-05 Eh
 * total energy  :  -120.2382767 Eh     change       -0.4073757E-05 Eh
   *** GEOMETRY OPTIMIZATION CONVERGED AFTER 68 ITERATIONS ***

 final structure:
================
68
 xtb: 6.3.3 (4ae9cef)
C         2.04627765444069   -2.75566742550090    1.06642680653455
O         1.80553441494783   -3.29588192676260   -0.15910676789693
C         2.12242814773940   -4.64780322186726   -0.37830435148796
C         2.59942518324275   -3.44024710118486    2.14036128842513
C         2.80359434909673   -2.79199386256742    3.34769452841262
C         2.46555530457083   -1.46161890428216    3.49612701681517
C         1.91234374319276   -0.77454316579518    2.42727214926975
C         1.69772828805794   -1.40431382362837    1.21659559788369
C         1.06521416850036   -0.71314152530781    0.03819150711922
C        -0.45319961368290   -1.00407652278427   -0.03971150419517
C        -0.79812739500128   -1.98061025674762   -1.12749475053790
C        -0.68758633911863   -1.62202513744101   -2.45898697918093
C        -0.99518242616955   -2.51915834768480   -3.46640445550858
C        -1.41271783741189   -3.79287260057274   -3.13258303448257
C        -1.51968745757263   -4.17376197050171   -1.80578438884213
C        -1.21265038935153   -3.27598089224270   -0.79054087476395
O        -1.26926840923704   -3.56986607689772    0.53869216442523
C        -1.76580509325083   -4.82598003636885    0.93004058574708
N        -1.03978214741740    0.31230579643585   -0.27576167440496
C        -2.36703230472539    0.47763803027296   -0.52423833502228
C        -2.78129429093314    1.91172413782475   -0.67483570856066
C        -3.70156366725072    2.45786273632824    0.21011289349972
C        -4.10692479368055    3.77361661540786    0.07489607918786
C        -3.59467067816643    4.53423385285165   -0.96259449553857
Br       -4.14313216657404    6.34558262306496   -1.15448239402999
C        -2.69486762421447    3.99893047995666   -1.87020927678909
C        -2.29041008255485    2.68543822349068   -1.72184256958898
O        -3.14016337222922   -0.44444483766394   -0.64694367114010
C        -0.15618345838849    1.33256330736709    0.21387218955851
C        -0.42085685611047    1.69971937564800    1.69474021238929
O        -1.31191979975592    0.90346303870722    2.26881144470855
O         0.13126877771458    2.60609186540628    2.25389369577101
N         1.15003264315362    0.73911139233619    0.08305842748861
C         2.32780928524553    1.38304771061025   -0.13471592539837
C         2.22686519979306    2.87810756362113   -0.16259892944379
C         1.73331693065905    3.52730270774150   -1.28911506658712
C         1.65603405395749    4.90761791283466   -1.32217485540387
C         2.07756833619576    5.63062942996548   -0.21897586659944
Br        1.95649829708479    7.52911691643909   -0.25372824805275
C         2.58848685872859    5.00121898975700    0.90293038551021
C         2.66677996856459    3.62077977461945    0.92463235526235
O         3.36683141476794    0.78244107190673   -0.29053377654709
H         1.57268043144235   -5.30506926944684    0.30319940382692
H         1.81666192888063   -4.85476222996101   -1.40306975387857
H         3.19641562175539   -4.83324861254076   -0.27478172792650
H         2.87998800218717   -4.47738667523949    2.04729799082874
H         3.23554510312319   -3.33749715228411    4.17337074464751
H         2.63261592940166   -0.95682302474911    4.43507535650611
H         1.66140131019262    0.27051797032164    2.53621032758564
H         1.57122373427622   -1.06070877977740   -0.87060867734952
H        -0.81178674727627   -1.40010025241326    0.91767064511103
H        -0.36288302274752   -0.62164891674882   -2.70725780038261
H        -0.91126573940921   -2.22517125490142   -4.50127051651739
H        -1.65945273324443   -4.50379531566899   -3.90717681070237
H        -1.84808321060298   -5.17487776070335   -1.57493820119172
H        -2.79257437953271   -4.97783363811550    0.58358759364571
H        -1.13422765962393   -5.64320820110635    0.56525768790778
H        -1.75009425107352   -4.82094243231018    2.01923565421998
H        -4.10047684476864    1.84565474127485    1.00432580462094
H        -4.81745288222510    4.20356907888547    0.76380723859303
H        -2.32036612485874    4.60216045261094   -2.68282135426282
H        -1.60432391603226    2.25308070862168   -2.43558534405867
H        -0.22777311626099    2.26730403025041   -0.35685096688565
H        -1.44470177273044    1.13536339193587    3.20328859648747
H         1.42197794659785    2.95407047700914   -2.15089813994135
H         1.27563974016894    5.41755373202787   -2.19399289570881
H         2.91974564941012    5.58228236269313    1.74933321158310
H         3.06500218608894    3.11696165356197    1.79091350522727

          :  Hamiltonian                  GFN2-xTB          :
         :: total energy            -120.238276697148 Eh    ::
         :: gradient norm              0.000300090688 Eh/a0 ::
         :: HOMO-LUMO gap              2.816964581689 eV    ::
         :: SCC energy              -121.874826115515 Eh    ::
         :: -> dispersion             -0.100118401718 Eh    ::
         :: repulsion energy           1.633113235452 Eh    ::

    * Orbital Energies and Occupations

         #    Occupation            Energy/Eh            Energy/eV
      -------------------------------------------------------------
         1        2.0000           -0.8441451             -22.9704
       ...           ...                  ...                  ...
        95        2.0000           -0.4323600             -11.7651
        96        2.0000           -0.4190074             -11.4018
        97        2.0000           -0.4188644             -11.3979
        98        2.0000           -0.4161636             -11.3244
        99        2.0000           -0.4135654             -11.2537
       100        2.0000           -0.4131717             -11.2430
       101        2.0000           -0.4101370             -11.1604
       102        2.0000           -0.4072238             -11.0811
       103        2.0000           -0.4068058             -11.0697
       104        2.0000           -0.4041847             -10.9984
       105        2.0000           -0.4014827             -10.9249
       106        2.0000           -0.3899626             -10.6114
       107        2.0000           -0.3822954             -10.4028 (HOMO)
       108                         -0.2787739              -7.5858 (LUMO)
       109                         -0.2709013              -7.3716
       110                         -0.2616156              -7.1189
       111                         -0.2599125              -7.0726
       112                         -0.2537576              -6.9051
       113                         -0.2377691              -6.4700
       114                         -0.2295437              -6.2462
       115                         -0.2261320              -6.1534
       116                         -0.2241354              -6.0990
       117                         -0.2236953              -6.0871
       118                         -0.2194591              -5.9718
       ...                                ...                  ...
       204                          0.6608818              17.9835
      -------------------------------------------------------------
                  HL-Gap            0.1035215 Eh            2.8170 eV

     #   Z          covCN         q      C6AA      Î±(0)
     1   6 C        2.870     0.144    24.858     8.173
     2   8 O        1.705    -0.270    18.476     5.803
     3   6 C        3.644     0.040    20.243     6.467
     4   6 C        2.917    -0.064    29.595     8.921
     5   6 C        2.921    -0.031    28.775     8.797
     6   6 C        2.918    -0.041    29.007     8.832
     7   6 C        2.923    -0.030    28.758     8.794
     8   6 C        2.973    -0.013    28.331     8.731
     9   6 C        3.827     0.044    19.820     6.335
    10   6 C        3.830     0.045    19.801     6.331
    11   6 C        2.973    -0.003    28.099     8.695
    12   6 C        2.925    -0.029    28.722     8.789
    13   6 C        2.917    -0.039    28.968     8.826
    14   6 C        2.922    -0.031    28.764     8.795
    15   6 C        2.918    -0.064    29.590     8.920
    16   6 C        2.868     0.150    24.749     8.155
    17   8 O        1.705    -0.270    18.475     5.803
    18   6 C        3.644     0.039    20.248     6.468
    19   7 N        2.768    -0.112    23.434     7.190
    20   6 C        2.761     0.274    22.365     7.745
    21   6 C        2.975    -0.020    28.504     8.757
    22   6 C        2.926    -0.023    28.569     8.765
    23   6 C        2.991    -0.032    28.792     8.802
    24   6 C        2.918     0.086    26.090     8.376
    25  35 Br       1.069    -0.151   189.209    22.179
    26   6 C        2.992    -0.033    28.823     8.807
    27   6 C        2.925    -0.031    28.764     8.795
    28   8 O        0.858    -0.404    21.751     6.253
    29   6 C        3.765     0.086    19.188     6.243
    30   6 C        2.687     0.348    21.082     7.514
    31   8 O        1.659    -0.351    19.928     6.026
    32   8 O        0.856    -0.392    21.518     6.219
    33   7 N        2.767    -0.112    23.441     7.191
    34   6 C        2.761     0.273    22.391     7.749
    35   6 C        2.975    -0.015    28.386     8.739
    36   6 C        2.926    -0.031    28.762     8.795
    37   6 C        2.993    -0.035    28.850     8.811
    38   6 C        2.918     0.086    26.088     8.376
    39  35 Br       1.071    -0.156   189.349    22.187
    40   6 C        2.992    -0.028    28.682     8.785
    41   6 C        2.926    -0.013    28.332     8.729
    42   8 O        0.859    -0.406    21.795     6.259
    43   1 H        0.924     0.040     2.449     2.447
    44   1 H        0.925     0.062     2.173     2.305
    45   1 H        0.924     0.045     2.378     2.412
    46   1 H        0.926     0.041     2.434     2.440
    47   1 H        0.926     0.040     2.445     2.445
    48   1 H        0.926     0.039     2.467     2.456
    49   1 H        0.926     0.028     2.609     2.526
    50   1 H        0.924     0.083     1.944     2.181
    51   1 H        0.924     0.074     2.047     2.237
    52   1 H        0.926     0.032     2.565     2.504
    53   1 H        0.926     0.039     2.466     2.456
    54   1 H        0.926     0.039     2.459     2.452
    55   1 H        0.926     0.040     2.450     2.448
    56   1 H        0.924     0.047     2.361     2.403
    57   1 H        0.924     0.037     2.484     2.465
    58   1 H        0.925     0.061     2.190     2.314
    59   1 H        0.926     0.056     2.243     2.342
    60   1 H        0.926     0.063     2.166     2.301
    61   1 H        0.926     0.062     2.179     2.308
    62   1 H        0.926     0.044     2.395     2.420
    63   1 H        0.924     0.069     2.093     2.262
    64   1 H        0.804     0.346     0.597     1.214
    65   1 H        0.926     0.040     2.445     2.445
    66   1 H        0.926     0.059     2.212     2.326
    67   1 H        0.926     0.065     2.144     2.290
    68   1 H        0.926     0.059     2.207     2.323

Wiberg/Mayer (AO) data.
largest (>0.10) Wiberg bond orders for each atom

     #   Z sym  total        # sym  WBO       # sym  WBO       # sym  WBO
 ---------------------------------------------------------------------------
     1   6 C    3.935 --     4 C    1.385     8 C    1.315     2 O    1.065
     2   8 O    2.238 --     1 C    1.065     3 C    0.983
     3   6 C    3.944 --     2 O    0.983    44 H    0.979    45 H    0.976
                            43 H    0.976
     4   6 C    3.987 --     5 C    1.430     1 C    1.385    46 H    0.965
                             7 C    0.101
     5   6 C    3.990 --     6 C    1.449     4 C    1.430    47 H    0.971
                             8 C    0.106
     6   6 C    3.991 --     5 C    1.449     7 C    1.418    48 H    0.971
     7   6 C    3.990 --     8 C    1.447     6 C    1.418    49 H    0.966
                             4 C    0.101
     8   6 C    3.983 --     7 C    1.447     1 C    1.315     9 C    0.991
                             5 C    0.106
     9   6 C    3.958 --     8 C    0.991    33 N    0.958    10 C    0.948
                            50 H    0.946
    10   6 C    3.959 --    11 C    0.996    19 N    0.951    51 H    0.950
                             9 C    0.948
    11   6 C    3.983 --    12 C    1.437    16 C    1.324    10 C    0.996
                            14 C    0.107
    12   6 C    3.990 --    11 C    1.437    13 C    1.427    52 H    0.969
                            15 C    0.102
    13   6 C    3.991 --    14 C    1.442    12 C    1.427    53 H    0.971
    14   6 C    3.990 --    13 C    1.442    15 C    1.436    54 H    0.971
                            11 C    0.107
    15   6 C    3.987 --    14 C    1.436    16 C    1.380    55 H    0.965
                            12 C    0.102
    16   6 C    3.935 --    15 C    1.380    11 C    1.324    17 O    1.062
    17   8 O    2.234 --    16 C    1.062    18 C    0.984
    18   6 C    3.945 --    17 O    0.984    58 H    0.980    56 H    0.976
                            57 H    0.975
    19   7 N    3.456 --    20 C    1.199    29 C    0.998    10 C    0.951
                            28 O    0.190
    20   6 C    3.948 --    28 O    1.710    19 N    1.199    21 C    0.957
    21   6 C    3.987 --    22 C    1.408    27 C    1.396    20 C    0.957
    22   6 C    3.989 --    23 C    1.440    21 C    1.408    59 H    0.967
                            26 C    0.107
    23   6 C    3.989 --    22 C    1.440    24 C    1.411    60 H    0.967
                            27 C    0.108
    24   6 C    3.943 --    23 C    1.411    26 C    1.403    25 Br   0.992
    25  35 Br   1.128 --    24 C    0.992
    26   6 C    3.989 --    27 C    1.448    24 C    1.403    61 H    0.967
                            22 C    0.107
    27   6 C    3.991 --    26 C    1.448    21 C    1.396    62 H    0.967
                            23 C    0.108
    28   8 O    2.037 --    20 C    1.710    19 N    0.190
    29   6 C    3.975 --    19 N    0.998    33 N    0.985    63 H    0.932
                            30 C    0.902
    30   6 C    3.919 --    32 O    1.773    31 O    1.168    29 C    0.902
    31   8 O    2.233 --    30 C    1.168    64 H    0.853    32 O    0.185
    32   8 O    2.056 --    30 C    1.773    31 O    0.185
    33   7 N    3.468 --    34 C    1.201    29 C    0.985     9 C    0.958
                            42 O    0.192
    34   6 C    3.946 --    42 O    1.707    33 N    1.201    35 C    0.955
    35   6 C    3.988 --    41 C    1.407    36 C    1.400    34 C    0.955
    36   6 C    3.991 --    37 C    1.443    35 C    1.400    65 H    0.967
                            40 C    0.109
    37   6 C    3.989 --    36 C    1.443    38 C    1.407    66 H    0.967
                            41 C    0.109
    38   6 C    3.942 --    40 C    1.412    37 C    1.407    39 Br   0.987
    39  35 Br   1.122 --    38 C    0.987
    40   6 C    3.989 --    41 C    1.440    38 C    1.412    67 H    0.966
                            36 C    0.109
    41   6 C    3.989 --    40 C    1.440    35 C    1.407    68 H    0.966
                            37 C    0.109
    42   8 O    2.034 --    34 C    1.707    33 N    0.192
    43   1 H    0.998 --     3 C    0.976
    44   1 H    0.996 --     3 C    0.979
    45   1 H    0.998 --     3 C    0.976
    46   1 H    0.998 --     4 C    0.965
    47   1 H    0.998 --     5 C    0.971
    48   1 H    0.998 --     6 C    0.971
    49   1 H    0.999 --     7 C    0.966
    50   1 H    0.993 --     9 C    0.946
    51   1 H    0.994 --    10 C    0.950
    52   1 H    0.998 --    12 C    0.969
    53   1 H    0.998 --    13 C    0.971
    54   1 H    0.998 --    14 C    0.971
    55   1 H    0.998 --    15 C    0.965
    56   1 H    0.998 --    18 C    0.976
    57   1 H    0.999 --    18 C    0.975
    58   1 H    0.996 --    18 C    0.980
    59   1 H    0.997 --    22 C    0.967
    60   1 H    0.996 --    23 C    0.967
    61   1 H    0.996 --    26 C    0.967
    62   1 H    0.998 --    27 C    0.967
    63   1 H    0.995 --    29 C    0.932
    64   1 H    0.880 --    31 O    0.853
    65   1 H    0.998 --    36 C    0.967
    66   1 H    0.996 --    37 C    0.967
    67   1 H    0.995 --    40 C    0.966
    68   1 H    0.996 --    41 C    0.966
 ---------------------------------------------------------------------------

molecular dipole:
                 x           y           z       tot (Debye)
 q only:       -0.304      -2.510       0.671
   full:       -0.302      -3.354       0.939       8.887

           -------------------------------------------------
          | TOTAL ENERGY             -120.238276697148 Eh   |
          | GRADIENT NORM               0.000300090688 Eh/Î± |
          | HOMO-LUMO GAP               2.816964581689 eV   |
           -------------------------------------------------

 * finished run on 2022/03/17 at 00:14:47.749
