   * xtb version 6.3.3 (4ae9cef) compiled by 'conda@95abc7406d43' on 2020-10-14
          program call               : xtb acid_317.xyz --opt --chrg 0 --uhf 0 --gfn 2
          number of atoms            :                    68
          number of electrons        :                   206
          charge                     :                     0
          spin                       :                   0.0

   ID    Z sym.   atoms
    1    6 C      1, 3-16, 18, 20-25, 28, 29, 33-38
    2    8 O      2, 17, 27, 30, 31, 40
    3    7 N      19, 32
    4   16 S      26, 39
    5    1 H      41-68

          :  Hamiltonian                  GFN2-xTB          :
 * total energy  :  -115.2556790 Eh     change       -0.2589516E-08 Eh
 * total energy  :  -115.2701494 Eh     change       -0.1447042E-01 Eh
 * total energy  :  -115.2743236 Eh     change       -0.4174201E-02 Eh
 * total energy  :  -115.2764512 Eh     change       -0.2127594E-02 Eh
 * total energy  :  -115.2776461 Eh     change       -0.1194954E-02 Eh
 * total energy  :  -115.2786028 Eh     change       -0.9566447E-03 Eh
 * total energy  :  -115.2792486 Eh     change       -0.6458306E-03 Eh
 * total energy  :  -115.2798603 Eh     change       -0.6117303E-03 Eh
 * total energy  :  -115.2804905 Eh     change       -0.6301920E-03 Eh
 * total energy  :  -115.2810812 Eh     change       -0.5906229E-03 Eh
 * total energy  :  -115.2874900 Eh     change       -0.1412013E-04 Eh
 * total energy  :  -115.2875059 Eh     change       -0.1588191E-04 Eh
 * total energy  :  -115.2875248 Eh     change       -0.1895843E-04 Eh
 * total energy  :  -115.2875464 Eh     change       -0.2155902E-04 Eh
 * total energy  :  -115.2875675 Eh     change       -0.2106917E-04 Eh
 * total energy  :  -115.2875854 Eh     change       -0.1788937E-04 Eh
 * total energy  :  -115.2876000 Eh     change       -0.1460499E-04 Eh
 * total energy  :  -115.2876121 Eh     change       -0.1208611E-04 Eh
 * total energy  :  -115.2876159 Eh     change       -0.3865230E-05 Eh
   *** GEOMETRY OPTIMIZATION CONVERGED AFTER 68 ITERATIONS ***

 final structure:
================
68
 xtb: 6.3.3 (4ae9cef)
C         1.75914628216134   -2.44154073118027    0.05718507987786
O         2.20371368001011   -1.49590433365729    0.93652744573162
C         3.19376225795271   -1.85100068910760    1.87177138510465
C         2.15839301688594   -3.77210945700255    0.08307052460693
C         1.64163911916618   -4.67708653643698   -0.82812183807308
C         0.72262030551807   -4.26801129627731   -1.77437881579468
C         0.33291081973783   -2.94089843387001   -1.81218358866915
C         0.83958362185278   -2.01755128581426   -0.91352160772849
C         0.38278988161648   -0.58739854229099   -0.99503712631322
C        -0.57126591352546   -0.19871149955193    0.16341254142357
C        -1.98477251879897   -0.58613542548991   -0.15693895312504
C        -2.62995526170586   -0.12378387942576   -1.29374278668124
C        -3.92371095301632   -0.51306480615147   -1.59153994603009
C        -4.58090248299606   -1.38689670369202   -0.74709321235921
C        -3.95034421717475   -1.87818834516227    0.38249576002896
C        -2.65054517890021   -1.49030346612366    0.68747965354148
O        -1.96021505137409   -1.92210737669368    1.77753769235781
C        -2.58145067877233   -2.82320215472389    2.66260758286713
N        -0.27051705459879    1.23102017529911    0.33782675526729
C        -1.12561103442037    2.21742935103358   -0.05984906221429
C        -2.47126642898646    2.14490283599153    0.50299344530007
C        -3.60941009371193    2.67427212231596   -0.04187927122806
C        -4.75133392579717    2.49656618046248    0.76821477692757
C        -6.11789020698583    2.95152041537388    0.38066254239287
C        -4.44040295172233    1.86019934165584    1.93425406390681
S        -2.77934419000701    1.45580066594518    2.06108567215749
O        -0.80809256830698    3.15709642857321   -0.78627846516235
C         1.19000785040100    1.26715724139677    0.23300454738703
C         1.91144358677842    2.64437846910343    0.21405361897690
O         1.70194084758630    3.44255662731085   -0.80459722894203
O         2.65809025229297    2.90654249106432    1.11752645933092
N         1.46508589854914    0.38338019549060   -0.88601063253185
C         2.40038887783378    0.42756029559822   -1.87439460316704
C         3.58320737322188    1.25600907471803   -1.60344991136615
C         4.35981502170992    1.26196750023282   -0.48107896664169
C         5.48668346200901    2.11009186348588   -0.58624465525734
C         6.45535282602585    2.32521253302809    0.52763366721158
C         5.54327328856219    2.71409705501921   -1.80546738223710
S         4.25340568246556    2.25853115035311   -2.84206065527600
O         2.26649306904239   -0.23160242170552   -2.88863419791305
H         3.40810545294308   -0.94244564917039    2.43402020352207
H         4.10752143227178   -2.19541269148892    1.37780439817266
H         2.83785824305913   -2.62256217535943    2.56214439235613
H         2.87562824613600   -4.11530502600099    0.81159902980483
H         1.96724239649182   -5.70605453096770   -0.79282542363764
H         0.31985508310535   -4.97144446187503   -2.48631769050597
H        -0.37248180322522   -2.60870058714756   -2.55897425535882
H        -0.11110466653123   -0.44757948075570   -1.96508084559191
H        -0.25630163646195   -0.71301109823614    1.07575367240537
H        -2.12091671031667    0.56553042739668   -1.95178738592164
H        -4.41120065133777   -0.13553051229102   -2.47649747356662
H        -5.59200233907734   -1.69622758331875   -0.96455209443626
H        -4.48189168027216   -2.56369223351560    1.02257546232715
H        -2.84060526684546   -3.76205722882594    2.16389714404344
H        -3.47673769884040   -2.38736361544211    3.11655333605650
H        -1.84539188751742   -3.02075513621703    3.44014193232208
H        -3.62043733825728    3.15921008822551   -1.00122334788172
H        -6.43343838008297    2.44684342221768   -0.53142659888433
H        -6.83419216214109    2.73431196324528    1.16810698584657
H        -6.11785736503390    4.02318186216786    0.18889788581753
H        -5.10336543507872    1.61295244136800    2.74019770389612
H         1.54850043389882    0.78718827082117    1.16133626563721
H         0.76242488815917    3.34584849281637   -1.14245118007207
H         4.13555632384316    0.68174698947107    0.39550047281125
H         6.88143760222355    1.37648375192427    0.85104352418283
H         5.93752226281993    2.77218034420668    1.37506869108824
H         7.25959721247067    2.98604576703041    0.21610711275973
H         6.27395813300440    3.41582356060296   -2.15645122491305

          :  Hamiltonian                  GFN2-xTB          :
         :: total energy            -115.287615923781 Eh    ::
         :: gradient norm              0.000338248237 Eh/a0 ::
         :: HOMO-LUMO gap              2.252931083999 eV    ::
         :: SCC energy              -116.828401703481 Eh    ::
         :: -> dispersion             -0.101300246077 Eh    ::
         :: repulsion energy           1.537379648766 Eh    ::

    * Orbital Energies and Occupations

         #    Occupation            Energy/Eh            Energy/eV
      -------------------------------------------------------------
         1        2.0000           -0.7468894             -20.3239
       ...           ...                  ...                  ...
        91        2.0000           -0.4315039             -11.7418
        92        2.0000           -0.4232988             -11.5185
        93        2.0000           -0.4209598             -11.4549
        94        2.0000           -0.4170209             -11.3477
        95        2.0000           -0.4129876             -11.2380
        96        2.0000           -0.4072712             -11.0824
        97        2.0000           -0.4030685             -10.9681
        98        2.0000           -0.3957193             -10.7681
        99        2.0000           -0.3910446             -10.6409
       100        2.0000           -0.3904144             -10.6237
       101        2.0000           -0.3842771             -10.4567
       102        2.0000           -0.3824237             -10.4063
       103        2.0000           -0.3737401             -10.1700 (HOMO)
       104                         -0.2909464              -7.9171 (LUMO)
       105                         -0.2513078              -6.8384
       106                         -0.2487132              -6.7678
       107                         -0.2420133              -6.5855
       108                         -0.2359628              -6.4209
       109                         -0.2313135              -6.2944
       110                         -0.2258772              -6.1464
       111                         -0.2196425              -5.9768
       112                         -0.2128956              -5.7932
       113                         -0.1965691              -5.3489
       114                         -0.1825258              -4.9668
       ...                                ...                  ...
       198                          0.6974913              18.9797
      -------------------------------------------------------------
                  HL-Gap            0.0827937 Eh            2.2529 eV

     #   Z          covCN         q      C6AA      Î±(0)
     1   6 C        2.866     0.142    24.912     8.182
     2   8 O        1.705    -0.278    18.606     5.824
     3   6 C        3.642     0.040    20.238     6.468
     4   6 C        2.918    -0.065    29.625     8.926
     5   6 C        2.921    -0.031    28.764     8.795
     6   6 C        2.917    -0.039    28.957     8.824
     7   6 C        2.926    -0.029    28.732     8.790
     8   6 C        2.971    -0.014    28.350     8.734
     9   6 C        3.840     0.052    19.674     6.310
    10   6 C        3.862     0.038    19.903     6.344
    11   6 C        2.971    -0.023    28.576     8.769
    12   6 C        2.924    -0.034    28.850     8.808
    13   6 C        2.917    -0.041    29.013     8.833
    14   6 C        2.921    -0.030    28.759     8.794
    15   6 C        2.917    -0.066    29.642     8.928
    16   6 C        2.868     0.140    24.938     8.186
    17   8 O        1.705    -0.268    18.450     5.799
    18   6 C        3.643     0.035    20.325     6.481
    19   7 N        2.759    -0.141    24.048     7.283
    20   6 C        2.779     0.277    22.310     7.736
    21   6 C        2.994    -0.013    28.316     8.729
    22   6 C        3.120    -0.040    28.804     8.790
    23   6 C        3.141     0.008    27.590     8.595
    24   6 C        3.755    -0.109    22.647     6.785
    25   6 C        2.951    -0.030    28.752     8.795
    26  16 S        2.305     0.007   140.776    19.969
    27   8 O        0.860    -0.441    22.526     6.363
    28   6 C        3.798     0.071    19.395     6.271
    29   6 C        2.683     0.359    20.901     7.482
    30   8 O        1.654    -0.377    20.406     6.098
    31   8 O        0.857    -0.377    21.220     6.176
    32   7 N        2.759    -0.126    23.733     7.235
    33   6 C        2.788     0.272    22.408     7.754
    34   6 C        2.992    -0.022    28.536     8.763
    35   6 C        3.123    -0.049    29.027     8.823
    36   6 C        3.144     0.010    27.541     8.587
    37   6 C        3.755    -0.107    22.604     6.779
    38   6 C        2.950    -0.032    28.806     8.803
    39  16 S        2.315     0.021   140.194    19.928
    40   8 O        0.860    -0.434    22.375     6.342
    41   1 H        0.925     0.062     2.177     2.307
    42   1 H        0.924     0.043     2.405     2.425
    43   1 H        0.924     0.040     2.443     2.445
    44   1 H        0.926     0.040     2.450     2.448
    45   1 H        0.926     0.039     2.459     2.452
    46   1 H        0.926     0.041     2.440     2.443
    47   1 H        0.926     0.043     2.415     2.430
    48   1 H        0.924     0.060     2.204     2.322
    49   1 H        0.924     0.079     1.994     2.208
    50   1 H        0.926     0.040     2.444     2.445
    51   1 H        0.926     0.042     2.418     2.432
    52   1 H        0.926     0.042     2.418     2.432
    53   1 H        0.926     0.043     2.406     2.426
    54   1 H        0.924     0.045     2.381     2.413
    55   1 H        0.924     0.045     2.379     2.412
    56   1 H        0.925     0.067     2.124     2.279
    57   1 H        0.926     0.062     2.176     2.307
    58   1 H        0.925     0.056     2.252     2.347
    59   1 H        0.925     0.047     2.353     2.399
    60   1 H        0.925     0.059     2.211     2.326
    61   1 H        0.926     0.054     2.276     2.359
    62   1 H        0.922     0.077     2.007     2.215
    63   1 H        0.800     0.375     0.534     1.149
    64   1 H        0.926     0.041     2.435     2.440
    65   1 H        0.925     0.047     2.362     2.404
    66   1 H        0.925     0.062     2.178     2.308
    67   1 H        0.925     0.043     2.407     2.426
    68   1 H        0.926     0.049     2.333     2.388

Wiberg/Mayer (AO) data.
largest (>0.10) Wiberg bond orders for each atom

     #   Z sym  total        # sym  WBO       # sym  WBO       # sym  WBO
 ---------------------------------------------------------------------------
     1   6 C    3.934 --     4 C    1.383     8 C    1.327     2 O    1.054
     2   8 O    2.225 --     1 C    1.054     3 C    0.983
     3   6 C    3.945 --     2 O    0.983    41 H    0.978    42 H    0.977
                            43 H    0.976
     4   6 C    3.987 --     5 C    1.435     1 C    1.383    44 H    0.965
                             7 C    0.103
     5   6 C    3.990 --     6 C    1.443     4 C    1.435    45 H    0.971
                             8 C    0.106
     6   6 C    3.991 --     5 C    1.443     7 C    1.427    46 H    0.970
     7   6 C    3.988 --     8 C    1.434     6 C    1.427    47 H    0.967
                             4 C    0.103
     8   6 C    3.982 --     7 C    1.434     1 C    1.327     9 C    0.993
                             5 C    0.106
     9   6 C    3.968 --     8 C    0.993    32 N    0.959    48 H    0.951
                            10 C    0.940
    10   6 C    3.959 --    11 C    1.005    49 H    0.953     9 C    0.940
                            19 N    0.939
    11   6 C    3.982 --    12 C    1.431    16 C    1.321    10 C    1.005
                            14 C    0.106
    12   6 C    3.990 --    11 C    1.431    13 C    1.429    50 H    0.964
                            15 C    0.102
    13   6 C    3.991 --    14 C    1.439    12 C    1.429    51 H    0.970
    14   6 C    3.990 --    13 C    1.439    15 C    1.438    52 H    0.971
                            11 C    0.106
    15   6 C    3.987 --    14 C    1.438    16 C    1.377    53 H    0.965
                            12 C    0.102
    16   6 C    3.936 --    15 C    1.377    11 C    1.321    17 O    1.067
    17   8 O    2.240 --    16 C    1.067    18 C    0.980
    18   6 C    3.942 --    17 O    0.980    56 H    0.979    54 H    0.976
                            55 H    0.976
    19   7 N    3.411 --    20 C    1.197    28 C    0.966    10 C    0.939
                            27 O    0.155
    20   6 C    3.949 --    27 O    1.598    19 N    1.197    21 C    1.052
    21   6 C    3.947 --    22 C    1.534    26 S    1.143    20 C    1.052
                            25 C    0.103
    22   6 C    3.985 --    21 C    1.534    23 C    1.277    57 H    0.962
                            26 S    0.105
    23   6 C    3.986 --    25 C    1.564    22 C    1.277    24 C    1.024
    24   6 C    3.995 --    23 C    1.024    59 H    0.985    60 H    0.971
                            58 H    0.970
    25   6 C    3.945 --    23 C    1.564    26 S    1.214    61 H    0.969
                            21 C    0.103
    26  16 S    2.659 --    25 C    1.214    21 C    1.143    22 C    0.105
    27   8 O    2.048 --    20 C    1.598    19 N    0.155
    28   6 C    3.950 --    32 N    0.971    19 N    0.966    62 H    0.940
                            29 C    0.907
    29   6 C    3.934 --    31 O    1.769    30 O    1.208    28 C    0.907
    30   8 O    2.209 --    29 C    1.208    63 H    0.737    31 O    0.172
    31   8 O    2.058 --    29 C    1.769    30 O    0.172
    32   7 N    3.453 --    33 C    1.193    28 C    0.971     9 C    0.959
                            40 O    0.185
    33   6 C    3.952 --    40 O    1.661    32 N    1.193    34 C    1.015
    34   6 C    3.949 --    35 C    1.554    39 S    1.157    33 C    1.015
                            38 C    0.106
    35   6 C    3.987 --    34 C    1.554    36 C    1.262    64 H    0.963
                            39 S    0.102
    36   6 C    3.987 --    38 C    1.581    35 C    1.262    37 C    1.023
    37   6 C    3.996 --    36 C    1.023    67 H    0.986    65 H    0.974
                            66 H    0.969
    38   6 C    3.944 --    36 C    1.581    39 S    1.204    68 H    0.970
                            34 C    0.106
    39  16 S    2.648 --    38 C    1.204    34 C    1.157    35 C    0.102
    40   8 O    2.007 --    33 C    1.661    32 N    0.185
    41   1 H    0.996 --     3 C    0.978
    42   1 H    0.998 --     3 C    0.977
    43   1 H    0.998 --     3 C    0.976
    44   1 H    0.998 --     4 C    0.965
    45   1 H    0.998 --     5 C    0.971
    46   1 H    0.998 --     6 C    0.970
    47   1 H    0.997 --     7 C    0.967
    48   1 H    0.996 --     9 C    0.951
    49   1 H    0.994 --    10 C    0.953
    50   1 H    0.998 --    12 C    0.964
    51   1 H    0.998 --    13 C    0.970
    52   1 H    0.998 --    14 C    0.971
    53   1 H    0.998 --    15 C    0.965
    54   1 H    0.998 --    18 C    0.976
    55   1 H    0.998 --    18 C    0.976
    56   1 H    0.995 --    18 C    0.979
    57   1 H    0.996 --    22 C    0.962
    58   1 H    0.997 --    24 C    0.970
    59   1 H    0.997 --    24 C    0.985
    60   1 H    0.996 --    24 C    0.971
    61   1 H    0.997 --    25 C    0.969
    62   1 H    0.992 --    28 C    0.940
    63   1 H    0.860 --    30 O    0.737
    64   1 H    0.998 --    35 C    0.963
    65   1 H    0.998 --    37 C    0.974
    66   1 H    0.996 --    37 C    0.969
    67   1 H    0.998 --    37 C    0.986
    68   1 H    0.997 --    38 C    0.970
 ---------------------------------------------------------------------------

molecular dipole:
                 x           y           z       tot (Debye)
 q only:       -2.307      -1.825       1.830
   full:       -2.598      -2.107       2.020       9.931

           -------------------------------------------------
          | TOTAL ENERGY             -115.287615923781 Eh   |
          | GRADIENT NORM               0.000338248237 Eh/Î± |
          | HOMO-LUMO GAP               2.252931083999 eV   |
           -------------------------------------------------

 * finished run on 2022/03/16 at 23:45:24.721
