   * xtb version 6.3.3 (4ae9cef) compiled by 'conda@95abc7406d43' on 2020-10-14
          program call               : xtb acid_275.xyz --opt --chrg 0 --uhf 0 --gfn 2
          number of atoms            :                    72
          number of electrons        :                   274
          charge                     :                     0
          spin                       :                   0.0

   ID    Z sym.   atoms
    1    6 C      1, 2, 6-15, 19-22, 24-30, 34, 36, 37, 41-45, 49-51
    2    9 F      3-5, 16-18, 31-33, 46-48
    3    7 N      23, 40
    4    8 O      35, 38, 39, 52
    5    1 H      53-72

          :  Hamiltonian                  GFN2-xTB          :
 * total energy  :  -161.9710847 Eh     change       -0.1484665E-08 Eh
 * total energy  :  -161.9904729 Eh     change       -0.1938813E-01 Eh
 * total energy  :  -161.9972050 Eh     change       -0.6732099E-02 Eh
 * total energy  :  -161.9993562 Eh     change       -0.2151255E-02 Eh
 * total energy  :  -162.0007557 Eh     change       -0.1399434E-02 Eh
 * total energy  :  -162.0015021 Eh     change       -0.7464132E-03 Eh
 * total energy  :  -162.0020929 Eh     change       -0.5908771E-03 Eh
 * total energy  :  -162.0026834 Eh     change       -0.5904360E-03 Eh
 * total energy  :  -162.0033400 Eh     change       -0.6566707E-03 Eh
 * total energy  :  -162.0038488 Eh     change       -0.5087517E-03 Eh
 * total energy  :  -162.0133087 Eh     change       -0.1816348E-04 Eh
 * total energy  :  -162.0133211 Eh     change       -0.1237672E-04 Eh
 * total energy  :  -162.0133340 Eh     change       -0.1294965E-04 Eh
 * total energy  :  -162.0133497 Eh     change       -0.1566156E-04 Eh
 * total energy  :  -162.0133629 Eh     change       -0.1324725E-04 Eh
 * total energy  :  -162.0133721 Eh     change       -0.9177841E-05 Eh
 * total energy  :  -162.0133800 Eh     change       -0.7875617E-05 Eh
 * total energy  :  -162.0133861 Eh     change       -0.6156716E-05 Eh
 * total energy  :  -162.0133899 Eh     change       -0.3789302E-05 Eh
   *** GEOMETRY OPTIMIZATION CONVERGED AFTER 81 ITERATIONS ***

 final structure:
================
72
 xtb: 6.3.3 (4ae9cef)
C         1.59481927823341    3.13546674985296   -1.43978221160036
C         1.14794448199672    2.23223856149392   -2.55714935858322
F         0.04574427884293    1.49807032441723   -2.31631825686663
F         2.09807744612319    1.33829831449948   -2.90395757607208
F         0.87115236067691    2.91330661248121   -3.67862917387182
C         2.22731640175399    4.30820761045171   -1.84495874263992
C         2.71408730051825    5.20813027628542   -0.91875898592197
C         2.57923265910016    4.93485885070872    0.43010276510189
C         1.97062457058945    3.76366468555421    0.83427191941930
C         1.47402825104100    2.83951527674865   -0.07994724666531
C         0.79739263658236    1.62367061192844    0.49912227777906
C        -0.74215954932864    1.69641330857450    0.43801012338783
C        -1.33404973457785    2.21201449920295    1.72630221242496
C        -1.97263932524716    3.44979370933652    1.81869363678462
C        -2.10451266946851    4.35150062850284    0.62117034954377
F        -0.89965510563369    4.67538747899038    0.08961261290092
F        -2.81272963006332    3.81909050208361   -0.38509555871535
F        -2.68985222235482    5.51982507151753    0.91089022745792
C        -2.49979199549753    3.87973538567656    3.03084847868019
C        -2.39338891364740    3.08676336460098    4.15772822461319
C        -1.75220716787371    1.86278814499235    4.07781934599845
C        -1.22502859742794    1.43426320203605    2.87419526293531
N        -1.13314270700865    0.31532427981468    0.17248008929444
C        -2.43040857369887   -0.07476995400866    0.28475282489118
C        -2.67010067023212   -1.52204018882257   -0.02380200285806
C        -3.10736581433285   -2.36440504909159    0.99209267286382
C        -3.32375804899004   -3.70756928766761    0.73846351001421
C        -3.10570505555017   -4.22305234163576   -0.52801014417228
C        -2.69701612680929   -3.37263335563769   -1.54500658588768
C        -2.42878874088747   -3.88868299838831   -2.93103049484690
F        -2.62957683444833   -5.20502552278438   -3.05890835594353
F        -3.18908857668846   -3.29018123549670   -3.86100244760293
F        -1.14852169709127   -3.66424928440906   -3.29869515856426
C        -2.49024132284105   -2.02110656344703   -1.30552436399900
O        -3.30697988964106    0.67954684160618    0.63832032160706
C        -0.01277785499382   -0.52960017478309   -0.17187268996773
C         0.15718974762840   -1.62891010679432    0.90379499856112
O         0.02507642398227   -2.84970688725656    0.40288407965409
O         0.37438563231717   -1.39048380290887    2.05879647028161
N         1.11713389051976    0.36864937290137   -0.16647634063275
C         2.41777934564014   -0.00778613386216   -0.34292039095121
C         2.56317759017359   -1.42533009868968   -0.81149866362405
C         2.96732888407894   -2.37855758451688    0.11157464027336
C         3.02192060001229   -3.71281035060147   -0.26947046138448
C         3.28755769260298   -4.74291236241636    0.78922785275652
F         2.15501910288001   -4.96049483327263    1.51366036790284
F         3.64942661797682   -5.93504277846880    0.30781962423752
F         4.22006468409224   -4.37598255096478    1.67385588415274
C         2.71799847840010   -4.09845014584919   -1.56707996028092
C         2.36451354063586   -3.13270994909202   -2.49350554278210
C         2.27112283608822   -1.80444431721116   -2.11672712660179
O         3.34067929277447    0.73834449374779   -0.11957556664989
H         2.33071529812765    4.51568048061281   -2.89874665003658
H         3.19631329842875    6.11333561722394   -1.25184724575573
H         2.95262992546231    5.62802965975584    1.16769754147628
H         1.87680463014996    3.55174111637769    1.88871743551357
H         1.11136467965224    1.54255520159980    1.54984646588899
H        -1.06870659128699    2.30717633920617   -0.40737333986007
H        -2.99734504061566    4.83524381192140    3.08683668698100
H        -2.81189957385491    3.42551556180697    5.09239786604267
H        -1.66242880544831    1.23801010258393    4.95326247551496
H        -0.72982972862848    0.47597673215690    2.81943048013562
H        -3.27061672751822   -1.95762969103262    1.97873926773906
H        -3.65900889851518   -4.35882017164197    1.53056303233148
H        -3.25819087056144   -5.27199237836747   -0.72887488074297
H        -2.20429536748063   -1.36761928416496   -2.11648621324539
H        -0.13087011859657   -1.01156361364519   -1.15118627648698
H         0.16163275523682   -3.53467406425820    1.08223329307614
H         3.21656057626014   -2.08864525654919    1.12182998168483
H         2.75973868586028   -5.13999253586280   -1.84494458201402
H         2.13521683954961   -3.42105220551135   -3.50661749249295
H         1.98090983283785   -1.05920472213589   -2.83911221158303

          :  Hamiltonian                  GFN2-xTB          :
         :: total energy            -162.013389925146 Eh    ::
         :: gradient norm              0.000366217765 Eh/a0 ::
         :: HOMO-LUMO gap              3.347439197443 eV    ::
         :: SCC energy              -163.685379710726 Eh    ::
         :: -> dispersion             -0.108758205694 Eh    ::
         :: repulsion energy           1.667571042188 Eh    ::

    * Orbital Energies and Occupations

         #    Occupation            Energy/Eh            Energy/eV
      -------------------------------------------------------------
         1        2.0000           -0.8920270             -24.2733
       ...           ...                  ...                  ...
       125        2.0000           -0.4599930             -12.5170
       126        2.0000           -0.4593793             -12.5003
       127        2.0000           -0.4560657             -12.4102
       128        2.0000           -0.4556765             -12.3996
       129        2.0000           -0.4522441             -12.3062
       130        2.0000           -0.4480095             -12.1910
       131        2.0000           -0.4453951             -12.1198
       132        2.0000           -0.4437892             -12.0761
       133        2.0000           -0.4408662             -11.9966
       134        2.0000           -0.4354280             -11.8486
       135        2.0000           -0.4237700             -11.5314
       136        2.0000           -0.4213587             -11.4658
       137        2.0000           -0.4194005             -11.4125 (HOMO)
       138                         -0.2963844              -8.0650 (LUMO)
       139                         -0.2856313              -7.7724
       140                         -0.2820078              -7.6738
       141                         -0.2791975              -7.5974
       142                         -0.2743810              -7.4663
       143                         -0.2737665              -7.4496
       144                         -0.2697224              -7.3395
       145                         -0.2639761              -7.1832
       146                         -0.2587033              -7.0397
       147                         -0.2439670              -6.6387
       148                         -0.2367260              -6.4416
       ...                                ...                  ...
       228                          0.6305144              17.1572
      -------------------------------------------------------------
                  HL-Gap            0.1230161 Eh            3.3474 eV

     #   Z          covCN         q      C6AA      Î±(0)
     1   6 C        2.974    -0.023    28.580     8.769
     2   6 C        3.338     0.488    17.233     6.570
     3   9 F        0.792    -0.217    11.415     3.991
     4   9 F        0.792    -0.214    11.375     3.984
     5   9 F        0.793    -0.201    11.248     3.962
     6   6 C        2.929    -0.018    28.459     8.749
     7   6 C        2.919    -0.018    28.469     8.750
     8   6 C        2.919    -0.013    28.348     8.731
     9   6 C        2.931    -0.023    28.570     8.766
    10   6 C        2.967     0.024    27.455     8.595
    11   6 C        3.828     0.047    19.772     6.327
    12   6 C        3.820     0.045    19.809     6.334
    13   6 C        2.971     0.021    27.528     8.606
    14   6 C        2.976    -0.026    28.635     8.778
    15   6 C        3.335     0.485    17.309     6.590
    16   9 F        0.791    -0.226    11.508     4.007
    17   9 F        0.791    -0.199    11.226     3.958
    18   9 F        0.792    -0.199    11.226     3.958
    19   6 C        2.923    -0.021    28.526     8.759
    20   6 C        2.920    -0.022    28.557     8.763
    21   6 C        2.919    -0.018    28.448     8.746
    22   6 C        2.926    -0.030    28.757     8.794
    23   7 N        2.766    -0.104    23.277     7.166
    24   6 C        2.762     0.272    22.410     7.752
    25   6 C        2.977    -0.010    28.259     8.720
    26   6 C        2.923    -0.016    28.419     8.742
    27   6 C        2.920    -0.021    28.533     8.760
    28   6 C        2.919    -0.022    28.545     8.761
    29   6 C        2.977    -0.019    28.470     8.752
    30   6 C        3.337     0.486    17.277     6.581
    31   9 F        0.791    -0.200    11.237     3.960
    32   9 F        0.791    -0.201    11.245     3.961
    33   9 F        0.791    -0.214    11.380     3.985
    34   6 C        2.924    -0.023    28.569     8.765
    35   8 O        0.859    -0.397    21.617     6.234
    36   6 C        3.751     0.083    19.265     6.259
    37   6 C        2.688     0.347    21.107     7.519
    38   8 O        1.659    -0.371    20.301     6.082
    39   8 O        0.856    -0.378    21.256     6.181
    40   7 N        2.764    -0.113    23.469     7.195
    41   6 C        2.763     0.275    22.343     7.741
    42   6 C        2.978    -0.010    28.266     8.721
    43   6 C        2.926    -0.023    28.569     8.765
    44   6 C        2.978    -0.024    28.603     8.773
    45   6 C        3.337     0.486    17.267     6.579
    46   9 F        0.791    -0.227    11.523     4.010
    47   9 F        0.791    -0.198    11.209     3.955
    48   9 F        0.791    -0.197    11.208     3.955
    49   6 C        2.920    -0.021    28.522     8.758
    50   6 C        2.921    -0.017    28.435     8.745
    51   6 C        2.921    -0.021    28.528     8.759
    52   8 O        0.859    -0.393    21.535     6.222
    53   1 H        0.926     0.070     2.087     2.259
    54   1 H        0.926     0.063     2.169     2.303
    55   1 H        0.926     0.062     2.181     2.310
    56   1 H        0.926     0.053     2.288     2.365
    57   1 H        0.923     0.069     2.098     2.265
    58   1 H        0.924     0.077     2.009     2.216
    59   1 H        0.926     0.069     2.091     2.261
    60   1 H        0.926     0.059     2.209     2.324
    61   1 H        0.926     0.058     2.217     2.328
    62   1 H        0.926     0.068     2.107     2.270
    63   1 H        0.926     0.064     2.156     2.296
    64   1 H        0.926     0.064     2.147     2.291
    65   1 H        0.926     0.072     2.068     2.249
    66   1 H        0.926     0.064     2.155     2.296
    67   1 H        0.924     0.080     1.983     2.202
    68   1 H        0.804     0.357     0.572     1.188
    69   1 H        0.926     0.064     2.147     2.292
    70   1 H        0.926     0.071     2.077     2.254
    71   1 H        0.926     0.073     2.052     2.240
    72   1 H        0.926     0.073     2.050     2.239

Wiberg/Mayer (AO) data.
largest (>0.10) Wiberg bond orders for each atom

     #   Z sym  total        # sym  WBO       # sym  WBO       # sym  WBO
 ---------------------------------------------------------------------------
     1   6 C    3.969 --     6 C    1.407    10 C    1.388     2 C    0.952
                             8 C    0.106
     2   6 C    3.819 --     5 F    0.954     1 C    0.952     3 F    0.938
                             4 F    0.935
     3   9 F    1.063 --     2 C    0.938
     4   9 F    1.067 --     2 C    0.935
     5   9 F    1.077 --     2 C    0.954
     6   6 C    3.987 --     7 C    1.447     1 C    1.407    53 H    0.965
                             9 C    0.109
     7   6 C    3.988 --     6 C    1.447     8 C    1.431    54 H    0.968
                            10 C    0.108
     8   6 C    3.989 --     9 C    1.450     7 C    1.431    55 H    0.968
                             1 C    0.106
     9   6 C    3.988 --     8 C    1.450    10 C    1.406    56 H    0.966
                             6 C    0.109
    10   6 C    3.986 --     9 C    1.406     1 C    1.388    11 C    0.995
                             7 C    0.108
    11   6 C    3.964 --    10 C    0.995    40 N    0.956    12 C    0.952
                            57 H    0.948
    12   6 C    3.962 --    13 C    0.992    23 N    0.953    11 C    0.952
                            58 H    0.951
    13   6 C    3.986 --    22 C    1.409    14 C    1.386    12 C    0.992
                            20 C    0.108
    14   6 C    3.970 --    19 C    1.413    13 C    1.386    15 C    0.950
                            21 C    0.105
    15   6 C    3.822 --    18 F    0.957    17 F    0.951    14 C    0.950
                            16 F    0.925
    16   9 F    1.052 --    15 C    0.925
    17   9 F    1.083 --    15 C    0.951
    18   9 F    1.080 --    15 C    0.957
    19   6 C    3.987 --    20 C    1.443    14 C    1.413    59 H    0.965
                            22 C    0.109
    20   6 C    3.988 --    19 C    1.443    21 C    1.433    60 H    0.969
                            13 C    0.108
    21   6 C    3.990 --    22 C    1.448    20 C    1.433    61 H    0.969
                            14 C    0.105
    22   6 C    3.987 --    21 C    1.448    13 C    1.409    62 H    0.959
                            19 C    0.109
    23   7 N    3.467 --    24 C    1.205    36 C    0.984    12 C    0.953
                            35 O    0.196
    24   6 C    3.950 --    35 O    1.708    23 N    1.205    25 C    0.956
    25   6 C    3.987 --    34 C    1.411    26 C    1.404    24 C    0.956
                            28 C    0.108
    26   6 C    3.988 --    27 C    1.444    25 C    1.404    63 H    0.967
                            29 C    0.106
    27   6 C    3.989 --    26 C    1.444    28 C    1.437    64 H    0.967
                            34 C    0.112
    28   6 C    3.987 --    27 C    1.437    29 C    1.415    65 H    0.966
                            25 C    0.108
    29   6 C    3.976 --    28 C    1.415    34 C    1.414    30 C    0.950
                            26 C    0.106
    30   6 C    3.827 --    31 F    0.956    29 C    0.950    32 F    0.949
                            33 F    0.935
    31   9 F    1.079 --    30 C    0.956
    32   9 F    1.078 --    30 C    0.949
    33   9 F    1.063 --    30 C    0.935
    34   6 C    3.989 --    29 C    1.414    25 C    1.411    66 H    0.964
                            27 C    0.112
    35   8 O    2.048 --    24 C    1.708    23 N    0.196
    36   6 C    3.969 --    40 N    0.987    23 N    0.984    67 H    0.941
                            37 C    0.904
    37   6 C    3.919 --    39 O    1.775    38 O    1.163    36 C    0.904
    38   8 O    2.220 --    37 C    1.163    68 H    0.843    39 O    0.184
    39   8 O    2.068 --    37 C    1.775    38 O    0.184
    40   7 N    3.449 --    41 C    1.188    36 C    0.987    11 C    0.956
                            52 O    0.190
    41   6 C    3.947 --    52 O    1.724    40 N    1.188    42 C    0.953
    42   6 C    3.987 --    43 C    1.413    51 C    1.403    41 C    0.953
                            49 C    0.108
    43   6 C    3.989 --    42 C    1.413    44 C    1.409    69 H    0.966
                            50 C    0.111
    44   6 C    3.973 --    49 C    1.416    43 C    1.409    45 C    0.952
                            51 C    0.107
    45   6 C    3.824 --    47 F    0.960    48 F    0.958    44 C    0.952
                            46 F    0.917
    46   9 F    1.049 --    45 C    0.917
    47   9 F    1.083 --    45 C    0.960
    48   9 F    1.083 --    45 C    0.958
    49   6 C    3.987 --    50 C    1.435    44 C    1.416    70 H    0.966
                            42 C    0.108
    50   6 C    3.988 --    51 C    1.445    49 C    1.435    71 H    0.966
                            43 C    0.111
    51   6 C    3.987 --    50 C    1.445    42 C    1.403    72 H    0.965
                            44 C    0.107
    52   8 O    2.051 --    41 C    1.724    40 N    0.190
    53   1 H    0.995 --     6 C    0.965
    54   1 H    0.995 --     7 C    0.968
    55   1 H    0.995 --     8 C    0.968
    56   1 H    0.997 --     9 C    0.966
    57   1 H    0.995 --    11 C    0.948
    58   1 H    0.993 --    12 C    0.951
    59   1 H    0.995 --    19 C    0.965
    60   1 H    0.996 --    20 C    0.969
    61   1 H    0.996 --    21 C    0.969
    62   1 H    0.995 --    22 C    0.959
    63   1 H    0.995 --    26 C    0.967
    64   1 H    0.995 --    27 C    0.967
    65   1 H    0.994 --    28 C    0.966
    66   1 H    0.996 --    34 C    0.964
    67   1 H    0.993 --    36 C    0.941
    68   1 H    0.872 --    38 O    0.843
    69   1 H    0.996 --    43 C    0.966
    70   1 H    0.994 --    49 C    0.966
    71   1 H    0.994 --    50 C    0.966
    72   1 H    0.994 --    51 C    0.965
 ---------------------------------------------------------------------------

molecular dipole:
                 x           y           z       tot (Debye)
 q only:       -0.035       0.381       1.847
   full:       -0.055      -0.120       1.718       4.379

           -------------------------------------------------
          | TOTAL ENERGY             -162.013389925146 Eh   |
          | GRADIENT NORM               0.000366217765 Eh/Î± |
          | HOMO-LUMO GAP               3.347439197443 eV   |
           -------------------------------------------------

 * finished run on 2022/03/16 at 23:16:07.790
