   * xtb version 6.3.3 (4ae9cef) compiled by 'conda@95abc7406d43' on 2020-10-14
          program call               : xtb acid_138.xyz --opt --chrg 0 --uhf 0 --gfn 2
          number of atoms            :                    80
          number of electrons        :                   226
          charge                     :                     0
          spin                       :                   0.0

   ID    Z sym.   atoms
    1    6 C      1, 3-16, 18, 20-28, 30, 31, 35-43
    2    8 O      2, 17, 29, 32, 33, 44
    3    7 N      19, 34
    4    1 H      45-80

          :  Hamiltonian                  GFN2-xTB          :
 * total energy  :  -125.7162356 Eh     change       -0.2012285E-08 Eh
 * total energy  :  -125.7309702 Eh     change       -0.1473467E-01 Eh
 * total energy  :  -125.7356210 Eh     change       -0.4650799E-02 Eh
 * total energy  :  -125.7372363 Eh     change       -0.1615264E-02 Eh
 * total energy  :  -125.7385159 Eh     change       -0.1279568E-02 Eh
 * total energy  :  -125.7393402 Eh     change       -0.8242988E-03 Eh
 * total energy  :  -125.7400092 Eh     change       -0.6690975E-03 Eh
 * total energy  :  -125.7406836 Eh     change       -0.6743884E-03 Eh
 * total energy  :  -125.7414157 Eh     change       -0.7320218E-03 Eh
 * total energy  :  -125.7421162 Eh     change       -0.7005172E-03 Eh
 * total energy  :  -125.7503461 Eh     change       -0.1840923E-04 Eh
 * total energy  :  -125.7503599 Eh     change       -0.1376580E-04 Eh
 * total energy  :  -125.7503713 Eh     change       -0.1143928E-04 Eh
 * total energy  :  -125.7503823 Eh     change       -0.1097579E-04 Eh
 * total energy  :  -125.7503925 Eh     change       -0.1026170E-04 Eh
 * total energy  :  -125.7504014 Eh     change       -0.8888159E-05 Eh
 * total energy  :  -125.7504082 Eh     change       -0.6754667E-05 Eh
 * total energy  :  -125.7504135 Eh     change       -0.5273638E-05 Eh
 * total energy  :  -125.7504173 Eh     change       -0.3841958E-05 Eh
   *** GEOMETRY OPTIMIZATION CONVERGED AFTER 67 ITERATIONS ***

 final structure:
================
80
 xtb: 6.3.3 (4ae9cef)
C        -2.00862170806759   -3.22697098504536   -0.23808724446583
O        -2.36100646146288   -1.95967066618273   -0.61487213902723
C        -3.69358992001055   -1.72385673943180   -1.00539088436520
C        -2.79346758156164   -4.34453336923086   -0.50037346095330
C        -2.37210995746491   -5.60645784543213   -0.12230480009846
C        -1.16742340660292   -5.77033713674450    0.53356917091447
C        -0.39350941597776   -4.65956032102751    0.81374601058912
C        -0.79185410695335   -3.38680476499675    0.43668105937898
C         0.13385890602743   -2.23941923400695    0.73895514048216
C         1.09182551372800   -1.94671445311017   -0.43822209267104
C         2.41610444610974   -2.62906163079573   -0.24810933353218
C         3.39204134284666   -2.09478496380824    0.57358058953596
C         4.59552721431816   -2.75064422098852    0.76710677905398
C         4.81750098290005   -3.96026505355199    0.13824885854596
C         3.84587132282792   -4.52010347420767   -0.67464193314539
C         2.63709718139676   -3.86468585953406   -0.87331983347219
O         1.61406431570027   -4.34387529917717   -1.63710152574226
C         1.75711987549209   -5.60480459810117   -2.24179250020706
N         1.18555256057343   -0.49347629601537   -0.43361821459180
C         2.02496527141111    0.17265275788124   -1.27995488057690
C         1.89887096790408    1.66122523739933   -1.20649232498291
C         1.57797174218420    2.38217422881058   -2.34840788620546
C         1.46348674699402    3.75890546596586   -2.29218195456034
C         1.68145534640672    4.44372975319043   -1.10357941571766
C         1.60734396203677    5.94245638561835   -1.05731757741908
C         2.97571578320050    6.55068904549971   -1.37276937671092
C         2.02979437515843    3.71794626382881    0.02932687421422
C         2.13539315524495    2.34119709562660   -0.01664351456214
O         2.82560572938952   -0.39140653226756   -1.99218795463746
C        -0.04095663122853    0.05457265179681    0.08149344491480
C        -1.07525185783923    0.32007323263528   -1.03776735783112
O        -0.71596455485905   -0.21009436271055   -2.20002627119557
O        -2.06827682053797    0.97723550858865   -0.88614820633471
N        -0.50640138821113   -0.95817644724972    0.99647806050425
C        -1.44780758791420   -0.82816253383899    1.96851733358534
C        -1.96614038199952    0.55790426922378    2.16757445674308
C        -1.13649000951249    1.56869711186197    2.63905295223157
C        -1.63212742628725    2.84574405870137    2.81930031339795
C        -2.96006657708837    3.13970086604617    2.53653789144434
C        -3.47174045161709    4.54634254963939    2.65427157048002
C        -3.25071602529509    5.29626621948547    1.33870489212601
C        -3.78972206215071    2.11646868252390    2.09769680700830
C        -3.30346071174896    0.83474487395509    1.92443053375512
O        -1.81144163392492   -1.77856419008906    2.63058760484276
H        -3.79332894334568   -0.63977218494030   -1.06538883137419
H        -4.39824596517081   -2.11110886687606   -0.26412525256473
H        -3.91237187577154   -2.16679189262054   -1.98360486108886
H        -3.73876427202640   -4.24003306858983   -1.00909470411982
H        -2.99595579728204   -6.46025252707140   -0.34174235452011
H        -0.83732826124312   -6.75282866738772    0.83425490575193
H         0.54303501858536   -4.77473679355977    1.33969352424577
H         0.71505065484472   -2.50558175627059    1.63320174448811
H         0.64653369736743   -2.28920109055736   -1.38007045562389
H         3.20814203614655   -1.14783759877973    1.05872262982819
H         5.35281716311652   -2.31864374030408    1.40300994137234
H         5.75313636602848   -4.48120608077025    0.27747240051113
H         4.04406048605450   -5.46640328321625   -1.15235230867636
H         0.81247697054400   -5.79267404518142   -2.74955136694120
H         2.57121144384739   -5.61274285318937   -2.97353675093200
H         1.92562777733649   -6.38927814356068   -1.49717261328672
H         1.41820127547479    1.85399819760637   -3.27651345851874
H         1.20364058817306    4.31124523851913   -3.18389781635083
H         0.87720666501300    6.30057595085299   -1.78565065670066
H         1.28898985630497    6.26807013934223   -0.06494536852466
H         3.71507740573544    6.21379220237158   -0.64971763619594
H         3.30503917651900    6.24637900692667   -2.36357333103131
H         2.92639198306322    7.63653699364472   -1.34028695613989
H         2.21912145920096    4.23847750912951    0.95736315169473
H         2.42108952110363    1.79084383747823    0.86885110598475
H         0.10943861493506    1.01319772330953    0.59296005653753
H        -1.38988370729975   -0.04542308939768   -2.87903919017476
H        -0.10573713800942    1.35101477319031    2.88467657654070
H        -0.97933151386944    3.62628004876441    3.18425459202276
H        -4.53788095886026    4.53608803117292    2.88852779789116
H        -2.94946209723244    5.06742433423246    3.45925891845471
H        -2.19089111723165    5.32911076964359    1.09560806755663
H        -3.76819071828647    4.79105210138704    0.52663725430466
H        -3.62452139710497    6.31508304553317    1.41217712498111
H        -4.82899511349676    2.32675130770590    1.88963885028117
H        -3.95442034665390    0.04230019072987    1.58940360958023

          :  Hamiltonian                  GFN2-xTB          :
         :: total energy            -125.750417293375 Eh    ::
         :: gradient norm              0.000419220750 Eh/a0 ::
         :: HOMO-LUMO gap              3.217784524914 eV    ::
         :: SCC energy              -127.597401272937 Eh    ::
         :: -> dispersion             -0.108618795785 Eh    ::
         :: repulsion energy           1.843217026616 Eh    ::

    * Orbital Energies and Occupations

         #    Occupation            Energy/Eh            Energy/eV
      -------------------------------------------------------------
         1        2.0000           -0.7640222             -20.7901
       ...           ...                  ...                  ...
       101        2.0000           -0.4198723             -11.4253
       102        2.0000           -0.4129470             -11.2369
       103        2.0000           -0.4054258             -11.0322
       104        2.0000           -0.4051252             -11.0240
       105        2.0000           -0.4034912             -10.9796
       106        2.0000           -0.4014513             -10.9240
       107        2.0000           -0.3959389             -10.7740
       108        2.0000           -0.3956889             -10.7672
       109        2.0000           -0.3890304             -10.5861
       110        2.0000           -0.3858103             -10.4984
       111        2.0000           -0.3826706             -10.4130
       112        2.0000           -0.3787340             -10.3059
       113        2.0000           -0.3728975             -10.1471 (HOMO)
       114                         -0.2546461              -6.9293 (LUMO)
       115                         -0.2430886              -6.6148
       116                         -0.2325313              -6.3275
       117                         -0.2305584              -6.2738
       118                         -0.2275724              -6.1926
       119                         -0.2213602              -6.0235
       120                         -0.2196231              -5.9762
       121                         -0.2140612              -5.8249
       122                         -0.2115699              -5.7571
       123                         -0.2008173              -5.4645
       124                         -0.1944768              -5.2920
       ...                                ...                  ...
       212                          0.6710530              18.2603
      -------------------------------------------------------------
                  HL-Gap            0.1182514 Eh            3.2178 eV

     #   Z          covCN         q      C6AA      Î±(0)
     1   6 C        2.866     0.148    24.782     8.160
     2   8 O        1.704    -0.288    18.780     5.851
     3   6 C        3.643     0.042    20.212     6.463
     4   6 C        2.919    -0.063    29.573     8.918
     5   6 C        2.921    -0.032    28.788     8.799
     6   6 C        2.917    -0.038    28.938     8.821
     7   6 C        2.928    -0.028    28.692     8.784
     8   6 C        2.970    -0.004    28.132     8.700
     9   6 C        3.829     0.050    19.711     6.317
    10   6 C        3.836     0.047    19.769     6.326
    11   6 C        2.974    -0.007    28.191     8.709
    12   6 C        2.924    -0.028    28.695     8.785
    13   6 C        2.918    -0.039    28.975     8.827
    14   6 C        2.921    -0.031    28.780     8.797
    15   6 C        2.918    -0.065    29.612     8.924
    16   6 C        2.869     0.142    24.909     8.181
    17   8 O        1.705    -0.273    18.536     5.813
    18   6 C        3.644     0.038    20.273     6.472
    19   7 N        2.768    -0.116    23.523     7.203
    20   6 C        2.762     0.274    22.368     7.745
    21   6 C        2.977    -0.025    28.625     8.776
    22   6 C        2.922    -0.025    28.634     8.775
    23   6 C        2.925    -0.036    28.887     8.814
    24   6 C        2.971     0.017    27.618     8.620
    25   6 C        3.807    -0.058    21.617     6.619
    26   6 C        3.754    -0.099    22.446     6.756
    27   6 C        2.924    -0.036    28.903     8.816
    28   6 C        2.921    -0.033    28.830     8.805
    29   8 O        0.858    -0.411    21.903     6.275
    30   6 C        3.769     0.086    19.187     6.242
    31   6 C        2.687     0.357    20.948     7.490
    32   8 O        1.659    -0.351    19.925     6.026
    33   8 O        0.856    -0.400    21.683     6.243
    34   7 N        2.765    -0.105    23.292     7.168
    35   6 C        2.762     0.275    22.358     7.743
    36   6 C        2.977    -0.017    28.432     8.747
    37   6 C        2.922    -0.033    28.833     8.806
    38   6 C        2.925    -0.036    28.907     8.817
    39   6 C        2.972     0.018    27.603     8.618
    40   6 C        3.807    -0.059    21.623     6.620
    41   6 C        3.754    -0.098    22.438     6.754
    42   6 C        2.925    -0.032    28.791     8.799
    43   6 C        2.923    -0.015    28.381     8.736
    44   8 O        0.859    -0.425    22.178     6.314
    45   1 H        0.924     0.069     2.096     2.264
    46   1 H        0.924     0.043     2.406     2.426
    47   1 H        0.924     0.034     2.528     2.487
    48   1 H        0.926     0.039     2.464     2.455
    49   1 H        0.926     0.038     2.482     2.463
    50   1 H        0.926     0.038     2.480     2.463
    51   1 H        0.926     0.038     2.479     2.462
    52   1 H        0.923     0.059     2.206     2.323
    53   1 H        0.924     0.072     2.059     2.244
    54   1 H        0.926     0.036     2.498     2.471
    55   1 H        0.926     0.038     2.475     2.460
    56   1 H        0.926     0.038     2.473     2.459
    57   1 H        0.926     0.039     2.456     2.451
    58   1 H        0.925     0.061     2.191     2.315
    59   1 H        0.924     0.045     2.383     2.414
    60   1 H        0.924     0.041     2.434     2.440
    61   1 H        0.926     0.042     2.422     2.434
    62   1 H        0.926     0.038     2.472     2.459
    63   1 H        0.924     0.039     2.463     2.454
    64   1 H        0.924     0.038     2.473     2.459
    65   1 H        0.925     0.038     2.473     2.459
    66   1 H        0.925     0.039     2.468     2.457
    67   1 H        0.925     0.039     2.465     2.455
    68   1 H        0.926     0.037     2.485     2.465
    69   1 H        0.926     0.030     2.580     2.512
    70   1 H        0.924     0.075     2.034     2.230
    71   1 H        0.804     0.341     0.610     1.227
    72   1 H        0.925     0.026     2.647     2.544
    73   1 H        0.926     0.034     2.535     2.490
    74   1 H        0.924     0.039     2.467     2.456
    75   1 H        0.924     0.038     2.480     2.463
    76   1 H        0.925     0.035     2.512     2.479
    77   1 H        0.925     0.039     2.456     2.451
    78   1 H        0.925     0.037     2.489     2.467
    79   1 H        0.926     0.038     2.472     2.459
    80   1 H        0.926     0.042     2.421     2.433

Wiberg/Mayer (AO) data.
largest (>0.10) Wiberg bond orders for each atom

     #   Z sym  total        # sym  WBO       # sym  WBO       # sym  WBO
 ---------------------------------------------------------------------------
     1   6 C    3.932 --     4 C    1.380     8 C    1.335     2 O    1.046
     2   8 O    2.218 --     1 C    1.046     3 C    0.980
     3   6 C    3.943 --     2 O    0.980    46 H    0.977    47 H    0.976
                            45 H    0.973
     4   6 C    3.987 --     5 C    1.439     1 C    1.380    48 H    0.965
                             7 C    0.103
     5   6 C    3.990 --     4 C    1.439     6 C    1.438    49 H    0.971
                             8 C    0.107
     6   6 C    3.991 --     5 C    1.438     7 C    1.433    50 H    0.971
     7   6 C    3.989 --     6 C    1.433     8 C    1.427    51 H    0.968
                             4 C    0.103
     8   6 C    3.984 --     7 C    1.427     1 C    1.335     9 C    0.994
                             5 C    0.107
     9   6 C    3.966 --     8 C    0.994    34 N    0.960    52 H    0.952
                            10 C    0.946
    10   6 C    3.963 --    11 C    0.997    19 N    0.958    53 H    0.948
                             9 C    0.946
    11   6 C    3.984 --    12 C    1.438    16 C    1.323    10 C    0.997
                            14 C    0.107
    12   6 C    3.990 --    11 C    1.438    13 C    1.425    54 H    0.968
                            15 C    0.102
    13   6 C    3.991 --    14 C    1.444    12 C    1.425    55 H    0.971
    14   6 C    3.990 --    13 C    1.444    15 C    1.433    56 H    0.971
                            11 C    0.107
    15   6 C    3.987 --    14 C    1.433    16 C    1.383    57 H    0.966
                            12 C    0.102
    16   6 C    3.934 --    15 C    1.383    11 C    1.323    17 O    1.059
    17   8 O    2.231 --    16 C    1.059    18 C    0.984
    18   6 C    3.945 --    17 O    0.984    58 H    0.980    60 H    0.976
                            59 H    0.976
    19   7 N    3.440 --    20 C    1.185    30 C    0.995    10 C    0.958
                            29 O    0.183
    20   6 C    3.945 --    29 O    1.710    19 N    1.185    21 C    0.965
    21   6 C    3.987 --    22 C    1.407    28 C    1.394    20 C    0.965
                            24 C    0.106
    22   6 C    3.990 --    23 C    1.446    21 C    1.407    61 H    0.969
                            27 C    0.107
    23   6 C    3.991 --    22 C    1.446    24 C    1.412    62 H    0.968
                            28 C    0.108
    24   6 C    3.988 --    23 C    1.412    27 C    1.404    25 C    1.014
                            21 C    0.106
    25   6 C    3.997 --    24 C    1.014    26 C    1.000    63 H    0.974
                            64 H    0.974
    26   6 C    3.995 --    25 C    1.000    66 H    0.988    65 H    0.988
                            67 H    0.986
    27   6 C    3.991 --    28 C    1.454    24 C    1.404    68 H    0.968
                            22 C    0.107
    28   6 C    3.991 --    27 C    1.454    21 C    1.394    69 H    0.969
                            23 C    0.108
    29   8 O    2.031 --    20 C    1.710    19 N    0.183
    30   6 C    3.973 --    19 N    0.995    34 N    0.984    70 H    0.931
                            31 C    0.905
    31   6 C    3.916 --    33 O    1.765    32 O    1.164    30 C    0.905
    32   8 O    2.230 --    31 C    1.164    71 H    0.857    33 O    0.180
    33   8 O    2.050 --    31 C    1.765    32 O    0.180
    34   7 N    3.467 --    35 C    1.203    30 C    0.984     9 C    0.960
                            44 O    0.188
    35   6 C    3.943 --    44 O    1.689    34 N    1.203    36 C    0.965
    36   6 C    3.987 --    43 C    1.406    37 C    1.397    35 C    0.965
                            39 C    0.107
    37   6 C    3.991 --    38 C    1.451    36 C    1.397    72 H    0.968
                            42 C    0.108
    38   6 C    3.991 --    37 C    1.451    39 C    1.406    73 H    0.968
                            43 C    0.108
    39   6 C    3.988 --    42 C    1.412    38 C    1.406    40 C    1.013
                            36 C    0.107
    40   6 C    3.997 --    39 C    1.013    41 C    1.000    74 H    0.974
                            75 H    0.974
    41   6 C    3.996 --    40 C    1.000    76 H    0.988    77 H    0.988
                            78 H    0.986
    42   6 C    3.991 --    43 C    1.446    39 C    1.412    79 H    0.968
                            37 C    0.108
    43   6 C    3.991 --    42 C    1.446    36 C    1.406    80 H    0.969
                            38 C    0.108
    44   8 O    2.015 --    35 C    1.689    34 N    0.188
    45   1 H    0.995 --     3 C    0.973
    46   1 H    0.998 --     3 C    0.977
    47   1 H    0.999 --     3 C    0.976
    48   1 H    0.998 --     4 C    0.965
    49   1 H    0.998 --     5 C    0.971
    50   1 H    0.998 --     6 C    0.971
    51   1 H    0.998 --     7 C    0.968
    52   1 H    0.996 --     9 C    0.952
    53   1 H    0.994 --    10 C    0.948
    54   1 H    0.998 --    12 C    0.968
    55   1 H    0.998 --    13 C    0.971
    56   1 H    0.998 --    14 C    0.971
    57   1 H    0.998 --    15 C    0.966
    58   1 H    0.996 --    18 C    0.980
    59   1 H    0.998 --    18 C    0.976
    60   1 H    0.998 --    18 C    0.976
    61   1 H    0.998 --    22 C    0.969
    62   1 H    0.998 --    23 C    0.968
    63   1 H    0.998 --    25 C    0.974
    64   1 H    0.998 --    25 C    0.974
    65   1 H    0.999 --    26 C    0.988
    66   1 H    0.999 --    26 C    0.988
    67   1 H    0.998 --    26 C    0.986
    68   1 H    0.998 --    27 C    0.968
    69   1 H    0.999 --    28 C    0.969
    70   1 H    0.994 --    30 C    0.931
    71   1 H    0.883 --    32 O    0.857
    72   1 H    0.999 --    37 C    0.968
    73   1 H    0.998 --    38 C    0.968
    74   1 H    0.998 --    40 C    0.974
    75   1 H    0.998 --    40 C    0.974
    76   1 H    0.999 --    41 C    0.988
    77   1 H    0.998 --    41 C    0.988
    78   1 H    0.998 --    41 C    0.986
    79   1 H    0.998 --    42 C    0.968
    80   1 H    0.998 --    43 C    0.969
 ---------------------------------------------------------------------------

molecular dipole:
                 x           y           z       tot (Debye)
 q only:       -0.360       0.484      -0.763
   full:       -0.554       0.585      -1.039       3.342

           -------------------------------------------------
          | TOTAL ENERGY             -125.750417293375 Eh   |
          | GRADIENT NORM               0.000419220750 Eh/Î± |
          | HOMO-LUMO GAP               3.217784524914 eV   |
           -------------------------------------------------

 * finished run on 2022/03/16 at 21:46:47.558
