   * xtb version 6.3.3 (4ae9cef) compiled by 'conda@95abc7406d43' on 2020-10-14
          program call               : xtb acid_291.xyz --opt --chrg 0 --uhf 0 --gfn 2
          number of atoms            :                    76
          number of electrons        :                   226
          charge                     :                     0
          spin                       :                   0.0

   ID    Z sym.   atoms
    1    6 C      1, 3-16, 18, 20-22, 24-28, 30, 31, 35-41, 43
    2    8 O      2, 17, 23, 29, 32, 33, 42, 44
    3    7 N      19, 34
    4    1 H      45-76

          :  Hamiltonian                  GFN2-xTB          :
 * total energy  :  -127.4991242 Eh     change       -0.2879801E-08 Eh
 * total energy  :  -127.5144496 Eh     change       -0.1532543E-01 Eh
 * total energy  :  -127.5195517 Eh     change       -0.5102079E-02 Eh
 * total energy  :  -127.5219468 Eh     change       -0.2395152E-02 Eh
 * total energy  :  -127.5240586 Eh     change       -0.2111776E-02 Eh
 * total energy  :  -127.5261101 Eh     change       -0.2051461E-02 Eh
 * total energy  :  -127.5279595 Eh     change       -0.1849449E-02 Eh
 * total energy  :  -127.5296194 Eh     change       -0.1659933E-02 Eh
 * total energy  :  -127.5310484 Eh     change       -0.1428949E-02 Eh
 * total energy  :  -127.5324546 Eh     change       -0.1406175E-02 Eh
 * total energy  :  -127.5621701 Eh     change       -0.1220706E-04 Eh
 * total energy  :  -127.5621815 Eh     change       -0.1134599E-04 Eh
 * total energy  :  -127.5621920 Eh     change       -0.1055003E-04 Eh
 * total energy  :  -127.5622004 Eh     change       -0.8393681E-05 Eh
 * total energy  :  -127.5622067 Eh     change       -0.6251775E-05 Eh
 * total energy  :  -127.5622134 Eh     change       -0.6787068E-05 Eh
 * total energy  :  -127.5622218 Eh     change       -0.8390055E-05 Eh
 * total energy  :  -127.5622298 Eh     change       -0.8014066E-05 Eh
 * total energy  :  -127.5622348 Eh     change       -0.4942050E-05 Eh
   *** GEOMETRY OPTIMIZATION CONVERGED AFTER 63 ITERATIONS ***

 final structure:
================
76
 xtb: 6.3.3 (4ae9cef)
C        -1.65208719564060   -0.75362819575664   -1.30034539427138
O        -1.13671167404928    0.23878928047323   -2.06303082755985
C        -1.28195330956262    0.17803105527590   -3.46256616571109
C        -2.35966105374656   -1.84444166910631   -1.79479783342032
C        -2.84263428647954   -2.81489438527451   -0.93386147805302
C        -2.62151455813157   -2.72071313279589    0.42685229526603
C        -1.91909503093802   -1.63762114974689    0.92556029549922
C        -1.43990469592241   -0.64878420374104    0.08466111480328
C        -0.66788554378887    0.51070599072272    0.64653486701440
C         0.82769370214566    0.48033753205047    0.23824175129698
C         1.61088441196530   -0.31358184339315    1.24420168563206
C         1.88970650084583    0.19724259103397    2.50076995981127
C         2.58356517124367   -0.54911369617252    3.43622185120048
C         2.99069560441322   -1.82957503533304    3.11493529483837
C         2.69519307221911   -2.37084201992101    1.87565618811127
C         1.99752081932410   -1.62465471511345    0.93357946587705
O         1.65136916015986   -2.08089200191678   -0.30467855738292
C         1.93781749221440   -3.41685596491909   -0.63655001815638
N         1.15720519879283    1.88910784427066    0.16666835013016
C         2.35064707202268    2.52585153010789    0.30116999386897
C         3.55348648691456    1.66656907239213    0.50081288654527
C         3.91635724574080    0.71132247132514   -0.46236448558577
O         3.10724254325402    0.61453814494071   -1.54036072554641
C         3.48101656907705   -0.20248722615665   -2.61953748439147
C         5.06379123586347   -0.04841047819214   -0.25893151577079
C         5.84071663915631    0.14776167189981    0.86981688036945
C         5.50621351010646    1.11746132472930    1.79647420805796
C         4.36994923068605    1.88178533212973    1.59894369753114
O         2.41170691536768    3.74058442892500    0.30615005676549
C         0.00127769375896    2.61515123059780   -0.28582284009726
C         0.00782898678438    2.79388050454910   -1.83470084468513
O        -1.03512842880065    3.44392975758683   -2.30973537127506
O         0.90082342656451    2.39330950039911   -2.52375652829497
N        -1.11876428892401    1.80801300563585    0.17100585321550
C        -2.38266015776064    2.25299189711029    0.18387366376632
C        -3.37244673218020    1.35595074528707    0.84997262944703
C        -3.40679538449599    1.24313793661821    2.22927889892849
C        -4.34921088324684    0.43578784345119    2.84305353701461
C        -5.25736654787102   -0.25937097487191    2.06688256233166
C        -5.24280746986565   -0.14772690751653    0.68715206609472
C        -4.30602654574356    0.66745343733886    0.06291666683661
O        -4.19261825633813    0.83775090851671   -1.27814645474732
C        -5.14752597428892    0.23260373613347   -2.11569413355351
O        -2.69545740186038    3.33917479254416   -0.29708292990880
H        -2.33311638455979    0.25297437511990   -3.75518037503149
H        -0.73427059554423    1.03653302195635   -3.84684905725599
H        -0.84790122681277   -0.74099813320190   -3.86860499257158
H        -2.53993761221283   -1.94221469809220   -2.85373434079370
H        -3.39369881864999   -3.65215212895034   -1.33715625723388
H        -2.99481766786132   -3.47966897606818    1.09643030760532
H        -1.74310198180859   -1.55240974439464    1.98792460457014
H        -0.73794802284989    0.48359647196070    1.74324748098976
H         0.92956907595359    0.02793149301438   -0.75336717539640
H         1.57095569480121    1.20104303001519    2.73961968609498
H         2.80486242857786   -0.13303143059609    4.40642662577127
H         3.53810460065515   -2.42215759525179    3.83221987262311
H         3.01412590065299   -3.37688851401500    1.65431882771396
H         3.01526651267080   -3.61299665159616   -0.64371717285370
H         1.44559989425303   -4.11364897299281    0.04887896919038
H         1.53863462185179   -3.56108676430094   -1.63966544290056
H         2.73728658214544   -0.00826246873261   -3.39020584020843
H         3.46026413523162   -1.26336080546786   -2.34702072187075
H         4.47369408939270    0.05898390219258   -2.99911301475194
H         5.35855941080961   -0.79554785378432   -0.97952523709621
H         6.72391464221982   -0.45722683753391    1.01371855306446
H         6.12714429394066    1.28070286906132    2.66354592464674
H         4.09706294113713    2.65312743049785    2.30297062804589
H        -0.02098363251734    3.62015989912938    0.16496517241103
H        -1.72733880727802    3.61955072592523   -1.60847094321192
H        -2.69885846651882    1.80222782206059    2.82360805429966
H        -4.37385871133900    0.35321147517580    3.91845261328895
H        -5.99323244195357   -0.89560429929960    2.53538368643344
H        -5.96478529732951   -0.69961868466189    0.10712331566340
H        -6.16265128247138    0.55422081017088   -1.86478786146493
H        -5.08458367109085   -0.85982895827495   -2.06665972326390
H        -4.90840947247481    0.56681322478891   -3.12420029834431

          :  Hamiltonian                  GFN2-xTB          :
         :: total energy            -127.562234791347 Eh    ::
         :: gradient norm              0.000459322269 Eh/a0 ::
         :: HOMO-LUMO gap              3.395661677600 eV    ::
         :: SCC energy              -129.314920276010 Eh    ::
         :: -> dispersion             -0.117039766554 Eh    ::
         :: repulsion energy           1.746135493949 Eh    ::

    * Orbital Energies and Occupations

         #    Occupation            Energy/Eh            Energy/eV
      -------------------------------------------------------------
         1        2.0000           -0.7295328             -19.8516
       ...           ...                  ...                  ...
       101        2.0000           -0.4268231             -11.6144
       102        2.0000           -0.4227393             -11.5033
       103        2.0000           -0.4190764             -11.4036
       104        2.0000           -0.4145550             -11.2806
       105        2.0000           -0.4061988             -11.0532
       106        2.0000           -0.4007631             -10.9053
       107        2.0000           -0.3992979             -10.8654
       108        2.0000           -0.3938005             -10.7159
       109        2.0000           -0.3928595             -10.6903
       110        2.0000           -0.3873974             -10.5416
       111        2.0000           -0.3812762             -10.3751
       112        2.0000           -0.3741720             -10.1817
       113        2.0000           -0.3735286             -10.1642 (HOMO)
       114                         -0.2487403              -6.7686 (LUMO)
       115                         -0.2425471              -6.6000
       116                         -0.2372979              -6.4572
       117                         -0.2357181              -6.4142
       118                         -0.2295093              -6.2453
       119                         -0.2264702              -6.1626
       120                         -0.2246446              -6.1129
       121                         -0.2194806              -5.9724
       122                         -0.2161109              -5.8807
       123                         -0.2113326              -5.7507
       124                         -0.1847031              -5.0260
       ...                                ...                  ...
       208                          0.6816217              18.5479
      -------------------------------------------------------------
                  HL-Gap            0.1247883 Eh            3.3957 eV

     #   Z          covCN         q      C6AA      Î±(0)
     1   6 C        2.867     0.151    24.726     8.151
     2   8 O        1.705    -0.263    18.353     5.784
     3   6 C        3.644     0.036    20.303     6.477
     4   6 C        2.917    -0.066    29.649     8.929
     5   6 C        2.921    -0.033    28.834     8.806
     6   6 C        2.917    -0.043    29.079     8.843
     7   6 C        2.924    -0.036    28.900     8.816
     8   6 C        2.972    -0.023    28.576     8.768
     9   6 C        3.828     0.044    19.824     6.335
    10   6 C        3.834     0.039    19.891     6.345
    11   6 C        2.973    -0.019    28.484     8.754
    12   6 C        2.925    -0.035    28.878     8.813
    13   6 C        2.917    -0.041    29.008     8.832
    14   6 C        2.922    -0.032    28.800     8.801
    15   6 C        2.918    -0.067    29.661     8.931
    16   6 C        2.868     0.138    24.993     8.195
    17   8 O        1.705    -0.274    18.541     5.814
    18   6 C        3.643     0.040    20.241     6.467
    19   7 N        2.766    -0.101    23.208     7.155
    20   6 C        2.765     0.280    22.259     7.726
    21   6 C        2.974    -0.036    28.890     8.817
    22   6 C        2.867     0.147    24.796     8.163
    23   8 O        1.706    -0.251    18.155     5.753
    24   6 C        3.644     0.039    20.262     6.470
    25   6 C        2.917    -0.068    29.704     8.937
    26   6 C        2.921    -0.031    28.773     8.796
    27   6 C        2.917    -0.043    29.066     8.841
    28   6 C        2.925    -0.023    28.580     8.767
    29   8 O        0.860    -0.433    22.351     6.339
    30   6 C        3.779     0.079    19.283     6.256
    31   6 C        2.684     0.361    20.879     7.478
    32   8 O        1.654    -0.377    20.410     6.099
    33   8 O        0.856    -0.369    21.066     6.154
    34   7 N        2.764    -0.096    23.111     7.140
    35   6 C        2.763     0.278    22.304     7.734
    36   6 C        2.978    -0.034    28.841     8.809
    37   6 C        2.923    -0.028    28.712     8.787
    38   6 C        2.918    -0.040    28.998     8.831
    39   6 C        2.921    -0.028    28.713     8.787
    40   6 C        2.918    -0.065    29.628     8.926
    41   6 C        2.870     0.151    24.712     8.149
    42   8 O        1.706    -0.263    18.358     5.785
    43   6 C        3.646     0.040    20.239     6.466
    44   8 O        0.859    -0.452    22.753     6.395
    45   1 H        0.924     0.042     2.417     2.431
    46   1 H        0.925     0.086     1.921     2.167
    47   1 H        0.924     0.039     2.467     2.456
    48   1 H        0.926     0.041     2.432     2.438
    49   1 H        0.926     0.036     2.497     2.471
    50   1 H        0.926     0.037     2.485     2.465
    51   1 H        0.926     0.033     2.538     2.491
    52   1 H        0.923     0.048     2.349     2.397
    53   1 H        0.924     0.091     1.865     2.136
    54   1 H        0.926     0.043     2.411     2.428
    55   1 H        0.926     0.042     2.417     2.431
    56   1 H        0.926     0.042     2.428     2.437
    57   1 H        0.926     0.041     2.437     2.441
    58   1 H        0.924     0.041     2.433     2.439
    59   1 H        0.924     0.042     2.422     2.434
    60   1 H        0.925     0.062     2.179     2.309
    61   1 H        0.925     0.074     2.039     2.233
    62   1 H        0.924     0.037     2.491     2.468
    63   1 H        0.924     0.042     2.423     2.434
    64   1 H        0.926     0.035     2.510     2.477
    65   1 H        0.926     0.036     2.505     2.475
    66   1 H        0.926     0.038     2.473     2.459
    67   1 H        0.926     0.050     2.321     2.382
    68   1 H        0.923     0.086     1.923     2.169
    69   1 H        0.800     0.365     0.555     1.171
    70   1 H        0.926     0.040     2.446     2.445
    71   1 H        0.926     0.043     2.412     2.429
    72   1 H        0.926     0.043     2.415     2.430
    73   1 H        0.926     0.043     2.415     2.430
    74   1 H        0.924     0.046     2.366     2.405
    75   1 H        0.924     0.041     2.442     2.444
    76   1 H        0.925     0.065     2.147     2.291

Wiberg/Mayer (AO) data.
largest (>0.10) Wiberg bond orders for each atom

     #   Z sym  total        # sym  WBO       # sym  WBO       # sym  WBO
 ---------------------------------------------------------------------------
     1   6 C    3.938 --     4 C    1.371     8 C    1.313     2 O    1.083
     2   8 O    2.258 --     1 C    1.083     3 C    0.975
     3   6 C    3.935 --    47 H    0.977    45 H    0.976     2 O    0.975
                            46 H    0.974
     4   6 C    3.987 --     5 C    1.438     1 C    1.371    48 H    0.965
                             7 C    0.101
     5   6 C    3.990 --     6 C    1.440     4 C    1.438    49 H    0.971
                             8 C    0.104
     6   6 C    3.991 --     5 C    1.440     7 C    1.425    50 H    0.971
     7   6 C    3.989 --     8 C    1.438     6 C    1.425    51 H    0.968
                             4 C    0.101
     8   6 C    3.983 --     7 C    1.438     1 C    1.313     9 C    0.996
                             5 C    0.104
     9   6 C    3.967 --     8 C    0.996    34 N    0.960    52 H    0.952
                            10 C    0.941
    10   6 C    3.965 --    11 C    0.998    19 N    0.970     9 C    0.941
                            53 H    0.941
    11   6 C    3.984 --    12 C    1.432    16 C    1.327    10 C    0.998
                            14 C    0.107
    12   6 C    3.990 --    11 C    1.432    13 C    1.429    54 H    0.967
                            15 C    0.102
    13   6 C    3.991 --    14 C    1.441    12 C    1.429    55 H    0.970
    14   6 C    3.990 --    13 C    1.441    15 C    1.436    56 H    0.971
                            11 C    0.107
    15   6 C    3.987 --    14 C    1.436    16 C    1.380    57 H    0.965
                            12 C    0.102
    16   6 C    3.934 --    15 C    1.380    11 C    1.327    17 O    1.057
    17   8 O    2.229 --    16 C    1.057    18 C    0.984
    18   6 C    3.945 --    17 O    0.984    60 H    0.979    59 H    0.977
                            58 H    0.976
    19   7 N    3.468 --    20 C    1.203    30 C    0.995    10 C    0.970
                            29 O    0.185
    20   6 C    3.946 --    29 O    1.675    19 N    1.203    21 C    0.977
    21   6 C    3.984 --    28 C    1.427    22 C    1.306    20 C    0.977
                            26 C    0.105
    22   6 C    3.938 --    25 C    1.370    21 C    1.306    23 O    1.085
    23   8 O    2.266 --    22 C    1.085    24 C    0.981
    24   6 C    3.942 --    23 O    0.981    61 H    0.978    63 H    0.977
                            62 H    0.975
    25   6 C    3.987 --    26 C    1.439    22 C    1.370    64 H    0.966
                            28 C    0.101
    26   6 C    3.991 --    27 C    1.439    25 C    1.439    65 H    0.971
                            21 C    0.105
    27   6 C    3.991 --    26 C    1.439    28 C    1.428    66 H    0.970
    28   6 C    3.988 --    27 C    1.428    21 C    1.427    67 H    0.968
                            25 C    0.101
    29   8 O    2.003 --    20 C    1.675    19 N    0.185
    30   6 C    3.952 --    19 N    0.995    34 N    0.963    68 H    0.937
                            31 C    0.890
    31   6 C    3.930 --    33 O    1.778    32 O    1.199    30 C    0.890
    32   8 O    2.227 --    31 C    1.199    69 H    0.762    33 O    0.181
    33   8 O    2.079 --    31 C    1.778    32 O    0.181
    34   7 N    3.516 --    35 C    1.284    30 C    0.963     9 C    0.960
                            44 O    0.190
    35   6 C    3.946 --    44 O    1.595    34 N    1.284    36 C    0.965
    36   6 C    3.984 --    37 C    1.429    41 C    1.315    35 C    0.965
                            39 C    0.106
    37   6 C    3.989 --    36 C    1.429    38 C    1.425    70 H    0.969
                            40 C    0.103
    38   6 C    3.991 --    39 C    1.441    37 C    1.425    71 H    0.970
    39   6 C    3.991 --    38 C    1.441    40 C    1.439    72 H    0.971
                            36 C    0.106
    40   6 C    3.987 --    39 C    1.439    41 C    1.374    73 H    0.965
                            37 C    0.103
    41   6 C    3.938 --    40 C    1.374    36 C    1.315    42 O    1.074
    42   8 O    2.247 --    41 C    1.074    43 C    0.981
    43   6 C    3.942 --    42 O    0.981    76 H    0.979    74 H    0.976
                            75 H    0.975
    44   8 O    2.019 --    35 C    1.595    34 N    0.190
    45   1 H    0.998 --     3 C    0.976
    46   1 H    0.992 --     3 C    0.974
    47   1 H    0.998 --     3 C    0.977
    48   1 H    0.998 --     4 C    0.965
    49   1 H    0.998 --     5 C    0.971
    50   1 H    0.998 --     6 C    0.971
    51   1 H    0.998 --     7 C    0.968
    52   1 H    0.997 --     9 C    0.952
    53   1 H    0.991 --    10 C    0.941
    54   1 H    0.998 --    12 C    0.967
    55   1 H    0.998 --    13 C    0.970
    56   1 H    0.998 --    14 C    0.971
    57   1 H    0.998 --    15 C    0.965
    58   1 H    0.998 --    18 C    0.976
    59   1 H    0.998 --    18 C    0.977
    60   1 H    0.996 --    18 C    0.979
    61   1 H    0.994 --    24 C    0.978
    62   1 H    0.999 --    24 C    0.975
    63   1 H    0.998 --    24 C    0.977
    64   1 H    0.998 --    25 C    0.966
    65   1 H    0.998 --    26 C    0.971
    66   1 H    0.998 --    27 C    0.970
    67   1 H    0.997 --    28 C    0.968
    68   1 H    0.992 --    30 C    0.937
    69   1 H    0.867 --    32 O    0.762
    70   1 H    0.998 --    37 C    0.969
    71   1 H    0.997 --    38 C    0.970
    72   1 H    0.998 --    39 C    0.971
    73   1 H    0.998 --    40 C    0.965
    74   1 H    0.998 --    43 C    0.976
    75   1 H    0.998 --    43 C    0.975
    76   1 H    0.995 --    43 C    0.979
 ---------------------------------------------------------------------------

molecular dipole:
                 x           y           z       tot (Debye)
 q only:       -0.905      -3.898       0.448
   full:       -1.067      -4.422       0.590      11.660

           -------------------------------------------------
          | TOTAL ENERGY             -127.562234791347 Eh   |
          | GRADIENT NORM               0.000459322269 Eh/Î± |
          | HOMO-LUMO GAP               3.395661677600 eV   |
           -------------------------------------------------

 * finished run on 2022/03/16 at 23:26:59.895
