   * xtb version 6.3.3 (4ae9cef) compiled by 'conda@95abc7406d43' on 2020-10-14
          program call               : xtb acid_121.xyz --opt --chrg 0 --uhf 0 --gfn 2
          number of atoms            :                    66
          number of electrons        :                   230
          charge                     :                     0
          spin                       :                   0.0

   ID    Z sym.   atoms
    1    6 C      1-22, 24-26, 29, 31, 33, 34, 38-40, 43, 45
    2    7 N      23, 37
    3   17 Cl     27, 30, 41, 44
    4   16 S      28, 42
    5    8 O      32, 35, 36, 46
    6    1 H      47-66

          :  Hamiltonian                  GFN2-xTB          :
 * total energy  :  -129.8340303 Eh     change       -0.6448687E-08 Eh
 * total energy  :  -129.8526144 Eh     change       -0.1858413E-01 Eh
 * total energy  :  -129.8594697 Eh     change       -0.6855279E-02 Eh
 * total energy  :  -129.8615226 Eh     change       -0.2052912E-02 Eh
 * total energy  :  -129.8627665 Eh     change       -0.1243880E-02 Eh
 * total energy  :  -129.8634343 Eh     change       -0.6678522E-03 Eh
 * total energy  :  -129.8640552 Eh     change       -0.6208409E-03 Eh
 * total energy  :  -129.8646306 Eh     change       -0.5754110E-03 Eh
 * total energy  :  -129.8650714 Eh     change       -0.4408600E-03 Eh
 * total energy  :  -129.8653735 Eh     change       -0.3020838E-03 Eh
 * total energy  :  -129.8674933 Eh     change       -0.2771556E-04 Eh
 * total energy  :  -129.8675147 Eh     change       -0.2138771E-04 Eh
 * total energy  :  -129.8675284 Eh     change       -0.1364962E-04 Eh
 * total energy  :  -129.8675378 Eh     change       -0.9438106E-05 Eh
 * total energy  :  -129.8675444 Eh     change       -0.6609227E-05 Eh
 * total energy  :  -129.8675505 Eh     change       -0.6080727E-05 Eh
 * total energy  :  -129.8675568 Eh     change       -0.6292569E-05 Eh
 * total energy  :  -129.8675619 Eh     change       -0.5119788E-05 Eh
 * total energy  :  -129.8675642 Eh     change       -0.2314905E-05 Eh
   *** GEOMETRY OPTIMIZATION CONVERGED AFTER 44 ITERATIONS ***

 final structure:
================
66
 xtb: 6.3.3 (4ae9cef)
C         4.68218835376338   -2.17470434921963    0.50130818015847
C         4.74175659768846   -1.41781790513859    1.63618956398666
C         3.76762894015420   -0.43717129160322    1.86806468521405
C         2.76116941936728   -0.22734457235053    0.96674943664676
C         2.66705243496958   -0.98741501186591   -0.22045124499027
C         3.65444970416461   -1.98678572294285   -0.44702320752095
C         3.59381725246628   -2.77906264791073   -1.61141408919743
C         2.59386303132000   -2.59755299716929   -2.52227696049308
C         1.62257546479090   -1.61255206546842   -2.30759583450082
C         1.64504026434472   -0.81329106897905   -1.19274063982276
C         0.54349465486961    0.20401165626465   -1.03095106315651
C        -0.37828637297679   -0.09244810450539    0.16896160309154
C        -1.67676770987537   -0.73578059601289   -0.25414646365620
C        -2.55110481974620    0.00556271676291   -1.01240129396932
C        -3.80934704093377   -0.49481990911271   -1.36713073076868
C        -4.19970572313388   -1.72910017313944   -0.93319918129956
C        -3.32646805934181   -2.53081244222531   -0.17055591629141
C        -2.02302047222978   -2.05417555208023    0.14590915911304
C        -1.15890503064572   -2.91902977151819    0.85417183161065
C        -1.57883660013066   -4.14937357645963    1.27657407711097
C        -2.88200745460192   -4.59188929038347    1.00946498763400
C        -3.73039483306658   -3.80247689325368    0.28803344554576
N        -0.59468403821763    1.21822139187024    0.76813151972569
C        -1.64570637460100    1.61993400547560    1.51489465673665
C        -2.46857643475304    0.52863686947139    2.10550592484362
C        -1.99713425350455   -0.43975849539444    2.94370181656179
Cl       -0.40185991928866   -0.60686822896235    3.51830117499339
S        -3.23479121341955   -1.54917692183771    3.44622857327913
C        -4.40051825043023   -0.67285038134266    2.50039109364522
Cl       -6.01530178688500   -1.19704619888694    2.41736275880645
C        -3.86257180060522    0.40364999803734    1.87340534862932
O        -1.87141437637187    2.80094418217886    1.69917848241159
C         0.27414947723357    2.24258660274776    0.22638394667790
C        -0.59297073494994    3.38691033443597   -0.34772347295491
O        -0.24127907041168    4.56596891472309    0.14043914513368
O        -1.42759334793502    3.21457621490101   -1.19227508626887
N         1.03157766715218    1.56052191802651   -0.79246197956597
C         1.82888142404002    2.15252549253539   -1.71672319166696
C         2.16717924691739    3.58129550173406   -1.42921026030768
C         2.92123564422712    4.02017189245390   -0.38131918354075
Cl        3.62317827351044    3.06089788480430    0.84210488184737
S         3.15994403596771    5.74004369830530   -0.40376286462256
C         2.22540999440962    5.84961027145463   -1.86500151753917
Cl        1.94646908831266    7.35839020920202   -2.60602961757326
C         1.78093199966413    4.63925921195396   -2.29185008598392
O         2.24138935066703    1.57321568143028   -2.69482464349954
H         5.42508595198464   -2.93551080367336    0.30868512836185
H         5.53138576315114   -1.56749043739397    2.35746309649400
H         3.81624892268875    0.15828343499590    2.76832753854256
H         2.03334478435030    0.53802482833096    1.17530684610851
H         4.35468771205396   -3.53021403942354   -1.76684385200221
H         2.54494127382503   -3.20245249029160   -3.41496642042572
H         0.84492851858590   -1.47656565792762   -3.04439664035185
H        -0.04571458054192    0.21210782509032   -1.95798328164794
H         0.15056800759153   -0.72207386344394    0.88891115163279
H        -2.28534573440477    1.00804061923057   -1.31636879756388
H        -4.46960455711666    0.11460638784777   -1.96507466066882
H        -5.18176735200647   -2.11273154104325   -1.16789245966742
H        -0.14171679993268   -2.62312195001623    1.05891281419949
H        -0.90149376287382   -4.79060201829859    1.82048752252652
H        -3.20006726725417   -5.56048847163122    1.36441148250306
H        -4.72985837599646   -4.13868123766614    0.05292540234540
H        -4.41492894349162    1.08126472295074    1.25017831449649
H         0.91269269909142    2.66904084988537    1.01588253353945
H        -0.84251174004077    5.26299503303718   -0.16898170960527
H         1.19498687838828    4.48794232843290   -3.17937577303566

          :  Hamiltonian                  GFN2-xTB          :
         :: total energy            -129.867564234194 Eh    ::
         :: gradient norm              0.000319484459 Eh/a0 ::
         :: HOMO-LUMO gap              2.645053996598 eV    ::
         :: SCC energy              -131.551258552376 Eh    ::
         :: -> dispersion             -0.125294277525 Eh    ::
         :: repulsion energy           1.678763963806 Eh    ::

    * Orbital Energies and Occupations

         #    Occupation            Energy/Eh            Energy/eV
      -------------------------------------------------------------
         1        2.0000           -1.0878512             -29.6019
       ...           ...                  ...                  ...
       103        2.0000           -0.4297203             -11.6933
       104        2.0000           -0.4291325             -11.6773
       105        2.0000           -0.4261155             -11.5952
       106        2.0000           -0.4245094             -11.5515
       107        2.0000           -0.4173279             -11.3561
       108        2.0000           -0.4161230             -11.3233
       109        2.0000           -0.4144919             -11.2789
       110        2.0000           -0.4084705             -11.1150
       111        2.0000           -0.4079459             -11.1008
       112        2.0000           -0.4056489             -11.0383
       113        2.0000           -0.4033997             -10.9771
       114        2.0000           -0.3929424             -10.6925
       115        2.0000           -0.3852661             -10.4836 (HOMO)
       116                         -0.2880621              -7.8386 (LUMO)
       117                         -0.2825160              -7.6877
       118                         -0.2783128              -7.5733
       119                         -0.2693082              -7.3282
       120                         -0.2609439              -7.1006
       121                         -0.2559812              -6.9656
       122                         -0.2505455              -6.8177
       123                         -0.2449802              -6.6663
       124                         -0.2414520              -6.5702
       125                         -0.2363549              -6.4315
       126                         -0.2360633              -6.4236
       ...                                ...                  ...
       234                          0.6861572              18.6713
      -------------------------------------------------------------
                  HL-Gap            0.0972039 Eh            2.6451 eV

     #   Z          covCN         q      C6AA      Î±(0)
     1   6 C        2.921    -0.033    28.812     8.802
     2   6 C        2.915    -0.029    28.717     8.787
     3   6 C        2.917    -0.028    28.689     8.783
     4   6 C        2.917    -0.038    28.941     8.822
     5   6 C        2.983     0.010    27.777     8.645
     6   6 C        2.988     0.016    27.645     8.625
     7   6 C        2.920    -0.033    28.829     8.805
     8   6 C        2.914    -0.026    28.662     8.779
     9   6 C        2.924    -0.026    28.663     8.780
    10   6 C        2.966     0.001    27.994     8.679
    11   6 C        3.827     0.048    19.747     6.323
    12   6 C        3.814     0.033    20.003     6.366
    13   6 C        2.968    -0.014    28.356     8.734
    14   6 C        2.922    -0.040    28.985     8.829
    15   6 C        2.914    -0.030    28.738     8.791
    16   6 C        2.920    -0.035    28.879     8.813
    17   6 C        2.989     0.013    27.714     8.636
    18   6 C        2.983     0.003    27.956     8.673
    19   6 C        2.916    -0.037    28.932     8.820
    20   6 C        2.917    -0.027    28.668     8.780
    21   6 C        2.915    -0.028    28.696     8.784
    22   6 C        2.921    -0.032    28.810     8.802
    23   7 N        2.766    -0.105    23.295     7.168
    24   6 C        2.768     0.282    22.220     7.720
    25   6 C        3.165    -0.032    28.451     8.717
    26   6 C        2.905     0.083    26.141     8.384
    27  17 Cl       1.015    -0.113   102.697    15.504
    28  16 S        2.451     0.050   139.037    19.846
    29   6 C        2.904     0.091    25.970     8.356
    30  17 Cl       1.019    -0.108   102.532    15.492
    31   6 C        3.115    -0.052    29.125     8.840
    32   8 O        0.860    -0.417    22.021     6.292
    33   6 C        3.761     0.094    19.070     6.225
    34   6 C        2.688     0.366    20.800     7.464
    35   8 O        1.659    -0.356    20.022     6.041
    36   8 O        0.856    -0.393    21.549     6.224
    37   7 N        2.760    -0.109    23.390     7.183
    38   6 C        2.761     0.281    22.238     7.723
    39   6 C        3.165    -0.043    28.700     8.755
    40   6 C        2.905     0.084    26.126     8.381
    41  17 Cl       1.012    -0.117   102.809    15.512
    42  16 S        2.447     0.059   138.680    19.820
    43   6 C        2.903     0.090    25.998     8.360
    44  17 Cl       1.014    -0.114   102.706    15.505
    45   6 C        3.115    -0.055    29.198     8.851
    46   8 O        0.859    -0.397    21.625     6.235
    47   1 H        0.926     0.036     2.505     2.475
    48   1 H        0.926     0.034     2.532     2.489
    49   1 H        0.926     0.031     2.576     2.510
    50   1 H        0.926     0.030     2.584     2.514
    51   1 H        0.926     0.039     2.460     2.453
    52   1 H        0.926     0.040     2.442     2.444
    53   1 H        0.926     0.039     2.457     2.451
    54   1 H        0.923     0.064     2.158     2.297
    55   1 H        0.924     0.066     2.131     2.283
    56   1 H        0.926     0.058     2.223     2.332
    57   1 H        0.926     0.043     2.408     2.427
    58   1 H        0.926     0.041     2.431     2.438
    59   1 H        0.926     0.030     2.591     2.517
    60   1 H        0.926     0.038     2.482     2.464
    61   1 H        0.926     0.038     2.469     2.457
    62   1 H        0.926     0.039     2.459     2.452
    63   1 H        0.926     0.087     1.912     2.162
    64   1 H        0.923     0.075     2.034     2.231
    65   1 H        0.804     0.350     0.589     1.206
    66   1 H        0.926     0.085     1.931     2.173

Wiberg/Mayer (AO) data.
largest (>0.10) Wiberg bond orders for each atom

     #   Z sym  total        # sym  WBO       # sym  WBO       # sym  WBO
 ---------------------------------------------------------------------------
     1   6 C    3.991 --     2 C    1.556     6 C    1.280    47 H    0.968
                             4 C    0.118
     2   6 C    3.992 --     1 C    1.556     3 C    1.323    48 H    0.971
     3   6 C    3.992 --     4 C    1.553     2 C    1.323    49 H    0.971
     4   6 C    3.992 --     3 C    1.553     5 C    1.284    50 H    0.963
                             1 C    0.118
     5   6 C    3.989 --     4 C    1.284    10 C    1.254     6 C    1.252
     6   6 C    3.990 --     1 C    1.280     7 C    1.279     5 C    1.252
     7   6 C    3.990 --     8 C    1.553     6 C    1.279    51 H    0.968
                            10 C    0.115
     8   6 C    3.991 --     7 C    1.553     9 C    1.327    52 H    0.970
     9   6 C    3.989 --    10 C    1.524     8 C    1.327    53 H    0.967
    10   6 C    3.982 --     9 C    1.524     5 C    1.254    11 C    0.990
                             7 C    0.115
    11   6 C    3.956 --    10 C    0.990    12 C    0.955    54 H    0.951
                            37 N    0.948
    12   6 C    3.956 --    13 C    0.988    11 C    0.955    23 N    0.952
                            55 H    0.941
    13   6 C    3.982 --    14 C    1.517    18 C    1.255    12 C    0.988
                            16 C    0.114
    14   6 C    3.989 --    13 C    1.517    15 C    1.329    56 H    0.961
    15   6 C    3.991 --    16 C    1.550    14 C    1.329    57 H    0.970
    16   6 C    3.989 --    15 C    1.550    17 C    1.281    58 H    0.967
                            13 C    0.114
    17   6 C    3.990 --    16 C    1.281    22 C    1.279    18 C    1.250
    18   6 C    3.989 --    19 C    1.283    13 C    1.255    17 C    1.250
    19   6 C    3.992 --    20 C    1.555    18 C    1.283    59 H    0.960
                            22 C    0.118
    20   6 C    3.990 --    19 C    1.555    21 C    1.321    60 H    0.971
    21   6 C    3.992 --    22 C    1.557    20 C    1.321    61 H    0.970
    22   6 C    3.991 --    21 C    1.557    17 C    1.279    62 H    0.968
                            19 C    0.118
    23   7 N    3.478 --    24 C    1.234    33 C    0.977    12 C    0.952
                            32 O    0.194
    24   6 C    3.954 --    32 O    1.658    23 N    1.234    25 C    0.966
    25   6 C    3.979 --    26 C    1.531    31 C    1.225    24 C    0.966
    26   6 C    3.887 --    25 C    1.531    28 S    1.150    27 Cl   1.016
    27  17 Cl   1.182 --    26 C    1.016
    28  16 S    2.618 --    26 C    1.150    29 C    1.141
    29   6 C    3.892 --    31 C    1.586    28 S    1.141    30 Cl   1.022
    30  17 Cl   1.181 --    29 C    1.022
    31   6 C    3.978 --    29 C    1.586    25 C    1.225    63 H    0.956
    32   8 O    2.044 --    24 C    1.658    23 N    0.194
    33   6 C    3.963 --    37 N    0.986    23 N    0.977    64 H    0.942
                            34 C    0.904
    34   6 C    3.922 --    36 O    1.761    35 O    1.164    33 C    0.904
    35   8 O    2.225 --    34 C    1.164    65 H    0.852    36 O    0.178
    36   8 O    2.055 --    34 C    1.761    35 O    0.178
    37   7 N    3.467 --    38 C    1.212    33 C    0.986    11 C    0.948
                            46 O    0.195
    38   6 C    3.956 --    46 O    1.703    37 N    1.212    39 C    0.952
    39   6 C    3.977 --    40 C    1.538    45 C    1.229    38 C    0.952
    40   6 C    3.887 --    39 C    1.538    42 S    1.149    41 Cl   1.015
    41  17 Cl   1.180 --    40 C    1.015
    42  16 S    2.621 --    40 C    1.149    43 C    1.146
    43   6 C    3.891 --    45 C    1.582    42 S    1.146    44 Cl   1.018
    44  17 Cl   1.176 --    43 C    1.018
    45   6 C    3.978 --    43 C    1.582    39 C    1.229    66 H    0.957
    46   8 O    2.046 --    38 C    1.703    37 N    0.195
    47   1 H    0.998 --     1 C    0.968
    48   1 H    0.998 --     2 C    0.971
    49   1 H    0.999 --     3 C    0.971
    50   1 H    0.999 --     4 C    0.963
    51   1 H    0.997 --     7 C    0.968
    52   1 H    0.997 --     8 C    0.970
    53   1 H    0.998 --     9 C    0.967
    54   1 H    0.995 --    11 C    0.951
    55   1 H    0.995 --    12 C    0.941
    56   1 H    0.996 --    14 C    0.961
    57   1 H    0.997 --    15 C    0.970
    58   1 H    0.997 --    16 C    0.967
    59   1 H    0.999 --    19 C    0.960
    60   1 H    0.998 --    20 C    0.971
    61   1 H    0.998 --    21 C    0.970
    62   1 H    0.998 --    22 C    0.968
    63   1 H    0.992 --    31 C    0.956
    64   1 H    0.993 --    33 C    0.942
    65   1 H    0.877 --    35 O    0.852
    66   1 H    0.993 --    45 C    0.957
 ---------------------------------------------------------------------------

molecular dipole:
                 x           y           z       tot (Debye)
 q only:       -0.251      -1.344       0.402
   full:       -0.287      -1.093       0.373       3.024

           -------------------------------------------------
          | TOTAL ENERGY             -129.867564234194 Eh   |
          | GRADIENT NORM               0.000319484459 Eh/Î± |
          | HOMO-LUMO GAP               2.645053996598 eV   |
           -------------------------------------------------

 * finished run on 2022/03/16 at 21:34:04.777
