   * xtb version 6.3.3 (4ae9cef) compiled by 'conda@95abc7406d43' on 2020-10-14
          program call               : xtb acid_435.xyz --opt --chrg 0 --uhf 0 --gfn 2
          number of atoms            :                    72
          number of electrons        :                   226
          charge                     :                     0
          spin                       :                   0.0

   ID    Z sym.   atoms
    1    6 C      1-22, 24-28, 30, 31, 33, 34, 38-42, 44, 45
    2    7 N      23, 37
    3    9 F      29, 43
    4    8 O      32, 35, 36, 46
    5    1 H      47-72

          :  Hamiltonian                  GFN2-xTB          :
 * total energy  :  -126.2330281 Eh     change       -0.3790547E-08 Eh
 * total energy  :  -126.2485675 Eh     change       -0.1553940E-01 Eh
 * total energy  :  -126.2528600 Eh     change       -0.4292467E-02 Eh
 * total energy  :  -126.2539098 Eh     change       -0.1049852E-02 Eh
 * total energy  :  -126.2545406 Eh     change       -0.6307419E-03 Eh
 * total energy  :  -126.2547537 Eh     change       -0.2131550E-03 Eh
 * total energy  :  -126.2549109 Eh     change       -0.1572022E-03 Eh
 * total energy  :  -126.2550612 Eh     change       -0.1502692E-03 Eh
 * total energy  :  -126.2552160 Eh     change       -0.1548404E-03 Eh
 * total energy  :  -126.2553683 Eh     change       -0.1523010E-03 Eh
 * total energy  :  -126.2563321 Eh     change       -0.2150663E-04 Eh
 * total energy  :  -126.2563388 Eh     change       -0.6701871E-05 Eh
 * total energy  :  -126.2563572 Eh     change       -0.1841552E-04 Eh
 * total energy  :  -126.2563437 Eh     change        0.1353939E-04 Eh
 * total energy  :  -126.2563597 Eh     change       -0.1601916E-04 Eh
 * total energy  :  -126.2563655 Eh     change       -0.5781885E-05 Eh
 * total energy  :  -126.2563533 Eh     change        0.1217800E-04 Eh
 * total energy  :  -126.2563667 Eh     change       -0.1337866E-04 Eh
 * total energy  :  -126.2563716 Eh     change       -0.4925109E-05 Eh
   *** GEOMETRY OPTIMIZATION CONVERGED AFTER 41 ITERATIONS ***

 final structure:
================
72
 xtb: 6.3.3 (4ae9cef)
C        -3.01377799703467    1.99551649656348   -0.31178578897100
C        -4.21605181578481    2.19885220890881    0.30257617822538
C        -4.67270967174059    1.32307584691462    1.30871295074577
C        -5.91162459450185    1.50222719985129    1.95806841215843
C        -6.32320524516841    0.63302814027471    2.92903177059322
C        -5.51498811292658   -0.45487057278341    3.29561990036541
C        -4.30904820523251   -0.65561770168239    2.68543197932208
C        -3.85573658199544    0.22298108525760    1.67908667313777
C        -2.61838911898386    0.04553523339327    1.03120273417932
C        -2.20201400745196    0.90596699163928    0.04893993959652
C        -0.86681740805900    0.71341813106659   -0.62137045357232
C         0.30550350393160    1.01633080015382    0.33926667267980
C         1.13058289539662    2.21016891646616   -0.06731111875010
C         1.34183401270651    3.23348707448721    0.81809579853807
C         2.10910291018925    4.36057725077413    0.46276141208594
C         2.33202740800110    5.42621926805277    1.35968874769813
C         3.07877492531618    6.50776352517922    0.98513741899892
C         3.63681220724121    6.57423557142299   -0.30145360939710
C         3.44063536847423    5.55673506759933   -1.19277717410138
C         2.67512891856281    4.42736586380883   -0.83683374422849
C         2.44917315030448    3.35829723157926   -1.72846862989320
C         1.69626720217358    2.28266065557573   -1.35528562698184
N         1.08054857119957   -0.22311112567097    0.35745114473956
C         1.99034742444591   -0.46615888889082    1.33796665797602
C         2.61654955668058   -1.82627780401888    1.28891668759002
C         1.89119206182165   -2.94273593579743    1.69131372368998
C         2.47142199544360   -4.19799233710926    1.67078120028713
C         3.78236969612727   -4.31395491515627    1.24442700190200
F         4.34870652088377   -5.53659733888629    1.21094847469160
C         4.52801372086985   -3.21550559516177    0.85691567571418
C         3.93838502053757   -1.96489001483602    0.88734776181982
O         2.24594063122809    0.35681202184855    2.18823641129493
C         0.67185150351064   -1.11148900077427   -0.69462818047362
C         1.64217216808626   -1.03876237731395   -1.89892543881601
O         1.00240388823791   -1.00101795858816   -3.06402584495422
O         2.83430739067619   -1.05803180521514   -1.78809958590336
N        -0.66351519271513   -0.68153329559542   -1.00212895580211
C        -1.57417168994135   -1.34406371252560   -1.76657216770375
C        -1.26829934505168   -2.79385016563011   -1.98656798830144
C        -1.21194610024147   -3.67206287933007   -0.90876871376465
C        -0.96885583585519   -5.01745159603682   -1.11426035163374
C        -0.78400304948291   -5.46793976623713   -2.40962720859554
F        -0.53435629795740   -6.77479595745664   -2.61507362758590
C        -0.85641938055865   -4.61798615493001   -3.49867923271018
C        -1.11036442334951   -3.27626884374224   -3.27926686378150
O        -2.56933048924647   -0.80781974005208   -2.19907246405223
H        -2.67509302223660    2.66735649209241   -1.08646919690758
H        -4.83912751305984    3.03513473522067    0.02034750672202
H        -6.53032879862931    2.34075503097538    1.67191129401720
H        -7.27353031448858    0.77560552657265    3.42217081963183
H        -5.85639580674182   -1.13198531789688    4.06488719981103
H        -3.68462579611594   -1.49224359750791    2.96588501702787
H        -1.99789978828968   -0.79239352205160    1.32021848927952
H        -0.81464763424028    1.35285464989188   -1.51170468827153
H        -0.06317812139250    1.18466544489580    1.35863271399190
H         0.92523253486853    3.18242668428147    1.81317721415952
H         1.90199971614595    5.36875357061036    2.34901235835011
H         3.24616142490130    7.32069598554250    1.67637875264486
H         4.22373111937559    7.43729856596313   -0.57987279051214
H         3.86936923593746    5.60274390440450   -2.18383146664420
H         2.88312259800189    3.40549920808905   -2.71712822442241
H         1.53010070421950    1.47638098165056   -2.05438200193720
H         0.87473186834123   -2.82939360283842    2.04062498248558
H         1.92784929612595   -5.07608139777225    1.98133370595250
H         5.55022624521746   -3.34649887823963    0.54036711057601
H         4.49696767590530   -1.09255482780670    0.58949506393547
H         0.70396453233426   -2.16140914786897   -0.36752614956531
H         1.62933761813075   -0.99250887285503   -3.80698553756234
H        -1.38508546486466   -3.30738797048280    0.09321932808580
H        -0.92694518018899   -5.71520342979241   -0.29320334656761
H        -0.72358797364650   -5.01091075900486   -4.49399146575464
H        -1.18677924437476   -2.59206655347383   -4.10950624657932

          :  Hamiltonian                  GFN2-xTB          :
         :: total energy            -126.256371638353 Eh    ::
         :: gradient norm              0.000646948026 Eh/a0 ::
         :: HOMO-LUMO gap              2.935511589354 eV    ::
         :: SCC energy              -128.185758956120 Eh    ::
         :: -> dispersion             -0.101571916899 Eh    ::
         :: repulsion energy           1.926941039246 Eh    ::

    * Orbital Energies and Occupations

         #    Occupation            Energy/Eh            Energy/eV
      -------------------------------------------------------------
         1        2.0000           -0.8296882             -22.5770
       ...           ...                  ...                  ...
       101        2.0000           -0.4284217             -11.6579
       102        2.0000           -0.4278118             -11.6414
       103        2.0000           -0.4222305             -11.4895
       104        2.0000           -0.4219817             -11.4827
       105        2.0000           -0.4212582             -11.4630
       106        2.0000           -0.4149963             -11.2926
       107        2.0000           -0.4147310             -11.2854
       108        2.0000           -0.4101315             -11.1602
       109        2.0000           -0.4065538             -11.0629
       110        2.0000           -0.4023724             -10.9491
       111        2.0000           -0.4018032             -10.9336
       112        2.0000           -0.3863778             -10.5139
       113        2.0000           -0.3836786             -10.4404 (HOMO)
       114                         -0.2758005              -7.5049 (LUMO)
       115                         -0.2679601              -7.2916
       116                         -0.2667149              -7.2577
       117                         -0.2642409              -7.1904
       118                         -0.2589577              -7.0466
       119                         -0.2533210              -6.8932
       120                         -0.2510078              -6.8303
       121                         -0.2394706              -6.5163
       122                         -0.2342231              -6.3735
       123                         -0.2223583              -6.0507
       124                         -0.2197327              -5.9792
       ...                                ...                  ...
       210                          0.6918090              18.8251
      -------------------------------------------------------------
                  HL-Gap            0.1078781 Eh            2.9355 eV

     #   Z          covCN         q      C6AA      α(0)
     1   6 C        2.919    -0.030    28.743     8.792
     2   6 C        2.918    -0.031    28.769     8.796
     3   6 C        2.988     0.015    27.665     8.628
     4   6 C        2.918    -0.033    28.816     8.803
     5   6 C        2.916    -0.029    28.716     8.787
     6   6 C        2.916    -0.028    28.709     8.786
     7   6 C        2.918    -0.034    28.839     8.806
     8   6 C        2.987     0.016    27.647     8.625
     9   6 C        2.923    -0.037    28.921     8.819
    10   6 C        2.970     0.010    27.789     8.647
    11   6 C        3.824     0.042    19.847     6.339
    12   6 C        3.824     0.040    19.891     6.346
    13   6 C        2.967     0.002    27.985     8.677
    14   6 C        2.924    -0.033    28.813     8.803
    15   6 C        2.987     0.017    27.612     8.620
    16   6 C        2.918    -0.032    28.796     8.800
    17   6 C        2.916    -0.028    28.697     8.784
    18   6 C        2.916    -0.028    28.701     8.785
    19   6 C        2.918    -0.034    28.843     8.807
    20   6 C        2.988     0.014    27.685     8.631
    21   6 C        2.917    -0.034    28.844     8.807
    22   6 C        2.919    -0.033    28.833     8.806
    23   7 N        2.767    -0.112    23.445     7.191
    24   6 C        2.761     0.275    22.357     7.743
    25   6 C        2.975    -0.019    28.471     8.752
    26   6 C        2.927    -0.033    28.814     8.803
    27   6 C        2.916    -0.049    29.226     8.865
    28   6 C        2.788     0.173    24.278     8.071
    29   9 F        0.787    -0.220    11.442     3.996
    30   6 C        2.917    -0.043    29.074     8.842
    31   6 C        2.927    -0.015    28.376     8.736
    32   8 O        0.859    -0.408    21.847     6.267
    33   6 C        3.758     0.088    19.175     6.243
    34   6 C        2.686     0.348    21.089     7.515
    35   8 O        1.659    -0.361    20.116     6.055
    36   8 O        0.856    -0.383    21.349     6.195
    37   7 N        2.766    -0.112    23.448     7.192
    38   6 C        2.761     0.276    22.332     7.739
    39   6 C        2.974    -0.021    28.516     8.759
    40   6 C        2.927    -0.032    28.793     8.800
    41   6 C        2.916    -0.048    29.186     8.859
    42   6 C        2.788     0.174    24.255     8.067
    43   9 F        0.787    -0.217    11.411     3.990
    44   6 C        2.916    -0.047    29.157     8.855
    45   6 C        2.927    -0.021    28.534     8.760
    46   8 O        0.859    -0.406    21.807     6.261
    47   1 H        0.926     0.036     2.496     2.471
    48   1 H        0.926     0.041     2.441     2.443
    49   1 H        0.926     0.035     2.515     2.480
    50   1 H        0.926     0.034     2.536     2.490
    51   1 H        0.926     0.033     2.541     2.493
    52   1 H        0.926     0.030     2.585     2.514
    53   1 H        0.925     0.024     2.672     2.556
    54   1 H        0.924     0.058     2.228     2.334
    55   1 H        0.924     0.068     2.111     2.272
    56   1 H        0.926     0.047     2.362     2.404
    57   1 H        0.926     0.038     2.471     2.458
    58   1 H        0.926     0.035     2.520     2.482
    59   1 H        0.926     0.034     2.531     2.488
    60   1 H        0.926     0.034     2.532     2.488
    61   1 H        0.926     0.036     2.500     2.473
    62   1 H        0.926     0.020     2.738     2.587
    63   1 H        0.926     0.041     2.438     2.442
    64   1 H        0.926     0.063     2.161     2.299
    65   1 H        0.926     0.069     2.092     2.262
    66   1 H        0.926     0.067     2.115     2.274
    67   1 H        0.923     0.072     2.065     2.248
    68   1 H        0.804     0.346     0.597     1.214
    69   1 H        0.926     0.044     2.397     2.421
    70   1 H        0.926     0.066     2.130     2.282
    71   1 H        0.926     0.067     2.114     2.274
    72   1 H        0.926     0.062     2.173     2.305

Wiberg/Mayer (AO) data.
largest (>0.10) Wiberg bond orders for each atom

     #   Z sym  total        # sym  WBO       # sym  WBO       # sym  WBO
 ---------------------------------------------------------------------------
     1   6 C    3.990 --     2 C    1.559    10 C    1.299    47 H    0.968
     2   6 C    3.991 --     1 C    1.559     3 C    1.279    48 H    0.968
                             9 C    0.116
     3   6 C    3.990 --     4 C    1.281     2 C    1.279     8 C    1.249
     4   6 C    3.992 --     5 C    1.557     3 C    1.281    49 H    0.968
                             7 C    0.118
     5   6 C    3.990 --     4 C    1.557     6 C    1.320    50 H    0.971
     6   6 C    3.992 --     7 C    1.559     5 C    1.320    51 H    0.971
     7   6 C    3.990 --     6 C    1.559     8 C    1.278    52 H    0.968
                             4 C    0.118
     8   6 C    3.991 --     9 C    1.286     7 C    1.278     3 C    1.249
     9   6 C    3.991 --    10 C    1.521     8 C    1.286    53 H    0.966
                             2 C    0.116
    10   6 C    3.985 --     9 C    1.521     1 C    1.299    11 C    0.990
    11   6 C    3.959 --    10 C    0.990    12 C    0.956    37 N    0.954
                            54 H    0.953
    12   6 C    3.956 --    13 C    0.988    11 C    0.956    55 H    0.955
                            23 N    0.949
    13   6 C    3.985 --    14 C    1.527    22 C    1.295    12 C    0.988
    14   6 C    3.989 --    13 C    1.527    15 C    1.282    56 H    0.964
                            21 C    0.114
    15   6 C    3.990 --    14 C    1.282    16 C    1.278    20 C    1.251
    16   6 C    3.989 --    17 C    1.558    15 C    1.278    57 H    0.968
                            19 C    0.118
    17   6 C    3.992 --    16 C    1.558    18 C    1.321    58 H    0.971
    18   6 C    3.990 --    19 C    1.556    17 C    1.321    59 H    0.971
    19   6 C    3.992 --    18 C    1.556    20 C    1.282    60 H    0.968
                            16 C    0.118
    20   6 C    3.990 --    19 C    1.282    21 C    1.276    15 C    1.251
    21   6 C    3.992 --    22 C    1.563    20 C    1.276    61 H    0.968
                            14 C    0.114
    22   6 C    3.992 --    21 C    1.563    13 C    1.295    62 H    0.964
    23   7 N    3.463 --    24 C    1.202    33 C    0.994    12 C    0.949
                            32 O    0.192
    24   6 C    3.947 --    32 O    1.705    23 N    1.202    25 C    0.957
    25   6 C    3.988 --    31 C    1.408    26 C    1.403    24 C    0.957
    26   6 C    3.991 --    27 C    1.444    25 C    1.403    63 H    0.968
                            30 C    0.110
    27   6 C    3.989 --    26 C    1.444    28 C    1.393    64 H    0.966
                            31 C    0.110
    28   6 C    3.890 --    30 C    1.397    27 C    1.393    29 F    0.964
    29   9 F    1.096 --    28 C    0.964
    30   6 C    3.989 --    31 C    1.443    28 C    1.397    65 H    0.965
                            26 C    0.110
    31   6 C    3.988 --    30 C    1.443    25 C    1.408    66 H    0.967
                            27 C    0.110
    32   8 O    2.030 --    24 C    1.705    23 N    0.192
    33   6 C    3.976 --    37 N    0.997    23 N    0.994    67 H    0.919
                            34 C    0.904
    34   6 C    3.919 --    36 O    1.783    35 O    1.155    33 C    0.904
    35   8 O    2.221 --    34 C    1.155    68 H    0.853    36 O    0.183
    36   8 O    2.066 --    34 C    1.783    35 O    0.183
    37   7 N    3.456 --    38 C    1.197    33 C    0.997    11 C    0.954
                            46 O    0.190
    38   6 C    3.948 --    46 O    1.707    37 N    1.197    39 C    0.961
    39   6 C    3.987 --    45 C    1.408    40 C    1.399    38 C    0.961
    40   6 C    3.991 --    41 C    1.448    39 C    1.399    69 H    0.967
                            44 C    0.109
    41   6 C    3.989 --    40 C    1.448    42 C    1.391    70 H    0.966
                            45 C    0.109
    42   6 C    3.890 --    44 C    1.396    41 C    1.391    43 F    0.966
    43   9 F    1.100 --    42 C    0.966
    44   6 C    3.989 --    45 C    1.444    42 C    1.396    71 H    0.965
                            40 C    0.109
    45   6 C    3.989 --    44 C    1.444    39 C    1.408    72 H    0.967
                            41 C    0.109
    46   8 O    2.033 --    38 C    1.707    37 N    0.190
    47   1 H    0.998 --     1 C    0.968
    48   1 H    0.997 --     2 C    0.968
    49   1 H    0.998 --     4 C    0.968
    50   1 H    0.998 --     5 C    0.971
    51   1 H    0.998 --     6 C    0.971
    52   1 H    0.999 --     7 C    0.968
    53   1 H    0.999 --     9 C    0.966
    54   1 H    0.996 --    11 C    0.953
    55   1 H    0.995 --    12 C    0.955
    56   1 H    0.997 --    14 C    0.964
    57   1 H    0.998 --    16 C    0.968
    58   1 H    0.998 --    17 C    0.971
    59   1 H    0.998 --    18 C    0.971
    60   1 H    0.998 --    19 C    0.968
    61   1 H    0.998 --    21 C    0.968
    62   1 H    0.999 --    22 C    0.964
    63   1 H    0.998 --    26 C    0.968
    64   1 H    0.995 --    27 C    0.966
    65   1 H    0.995 --    30 C    0.965
    66   1 H    0.995 --    31 C    0.967
    67   1 H    0.994 --    33 C    0.919
    68   1 H    0.880 --    35 O    0.853
    69   1 H    0.998 --    40 C    0.967
    70   1 H    0.995 --    41 C    0.966
    71   1 H    0.995 --    44 C    0.965
    72   1 H    0.996 --    45 C    0.967
 ---------------------------------------------------------------------------

molecular dipole:
                 x           y           z       tot (Debye)
 q only:       -0.474       1.278      -0.486
   full:       -0.304       0.926      -0.758       3.139

           -------------------------------------------------
          | TOTAL ENERGY             -126.256371638353 Eh   |
          | GRADIENT NORM               0.000646948026 Eh/α |
          | HOMO-LUMO GAP               2.935511589354 eV   |
           -------------------------------------------------

 * finished run on 2022/03/17 at 01:10:49.151
