   * xtb version 6.3.3 (4ae9cef) compiled by 'conda@95abc7406d43' on 2020-10-14
          program call               : xtb acid_103.xyz --opt --chrg 0 --uhf 0 --gfn 2
          number of atoms            :                    78
          number of electrons        :                   214
          charge                     :                     0
          spin                       :                   0.0

   ID    Z sym.   atoms
    1    6 C      1-14, 16-25, 27, 28, 32-41
    2    7 N      15, 31
    3    8 O      26, 29, 30, 42
    4    1 H      43-78

          :  Hamiltonian                  GFN2-xTB          :
 * total energy  :  -117.5922024 Eh     change       -0.1275993E-08 Eh
 * total energy  :  -117.6056710 Eh     change       -0.1346865E-01 Eh
 * total energy  :  -117.6097624 Eh     change       -0.4091372E-02 Eh
 * total energy  :  -117.6112208 Eh     change       -0.1458430E-02 Eh
 * total energy  :  -117.6121723 Eh     change       -0.9514148E-03 Eh
 * total energy  :  -117.6128244 Eh     change       -0.6521767E-03 Eh
 * total energy  :  -117.6134875 Eh     change       -0.6630242E-03 Eh
 * total energy  :  -117.6140511 Eh     change       -0.5636760E-03 Eh
 * total energy  :  -117.6146249 Eh     change       -0.5737464E-03 Eh
 * total energy  :  -117.6150980 Eh     change       -0.4731186E-03 Eh
 * total energy  :  -117.6237667 Eh     change       -0.7058682E-05 Eh
 * total energy  :  -117.6237739 Eh     change       -0.7229641E-05 Eh
 * total energy  :  -117.6237808 Eh     change       -0.6890577E-05 Eh
 * total energy  :  -117.6237872 Eh     change       -0.6465799E-05 Eh
 * total energy  :  -117.6237937 Eh     change       -0.6406241E-05 Eh
 * total energy  :  -117.6238011 Eh     change       -0.7429237E-05 Eh
 * total energy  :  -117.6238105 Eh     change       -0.9376300E-05 Eh
 * total energy  :  -117.6238196 Eh     change       -0.9165574E-05 Eh
 * total energy  :  -117.6238220 Eh     change       -0.2364561E-05 Eh
   *** GEOMETRY OPTIMIZATION CONVERGED AFTER 152 ITERATIONS ***

 final structure:
================
78
 xtb: 6.3.3 (4ae9cef)
C         2.31612869394977    2.01832773910098   -1.38944712639057
C         2.76054314638401    2.40621790095013   -2.64071785788605
C         2.07184485825662    2.01341356586320   -3.77489703419785
C         0.93175810561730    1.23648779034079   -3.65459934503091
C         0.48701091140558    0.84829376343657   -2.40489854859161
C         1.18253713335595    1.22877528547484   -1.26329378233279
C         0.68043519806760    0.82356057378667    0.09852694230190
C        -0.67831442207173    1.49463889774058    0.41884806530572
C        -0.56453195986083    2.43371784421936    1.59759934492049
C        -1.00141914539511    2.10024546018821    2.86927782368396
C        -0.84879729067487    3.00055891381200    3.91116898133988
C        -0.25527395246293    4.23073990821885    3.69337995858655
C         0.18701516732711    4.56489534320272    2.42365113815453
C         0.03060116839457    3.67194286436680    1.38053147979844
N        -1.60219190331024    0.38813716992764    0.58551537870963
C        -2.94173301810412    0.57794868056591    0.40328299490919
C        -3.74991396960543   -0.68113759657890    0.45563688263423
C        -3.98802217915049   -1.42413993629410   -0.70153239899375
C        -3.45846571229279   -0.96052382672608   -2.03988399605164
C        -2.66102671060469   -2.05175797771352   -2.75878925731848
C        -4.62312845028924   -0.47926503602533   -2.90890844519441
C        -4.75667818120617   -2.57718448977443   -0.59684535564557
C        -5.27221567812972   -2.98245242891315    0.62059294577858
C        -5.03922229502112   -2.23106805065072    1.75969600930556
C        -4.28107720659345   -1.07809044798271    1.67600940255362
O        -3.40635090282451    1.68184918884198    0.22399695643330
C        -0.94773561740558   -0.88536936090753    0.63460881979349
C        -0.99851940443961   -1.55033597770580    2.04741554473508
O        -0.45629797234579   -2.74597041196493    2.10545124340508
O        -1.52950426893502   -1.02027895443508    2.98050010665391
N         0.41037210202209   -0.60463163611316    0.19216641811476
C         1.24514442809785   -1.59346119505991   -0.17693083438664
C         2.58450630164953   -1.18292072825165   -0.68043005785159
C         2.83185680049607   -1.27169329248029   -2.04485185457988
C         4.05815659833239   -0.89255667386696   -2.55394112972520
C         5.04552726517747   -0.44762574942914   -1.69197436135952
C         4.81446066386006   -0.40978437549881   -0.32938368567466
C         3.58495203525905   -0.77737820699977    0.20412741841801
C         3.36479062629280   -0.83279175160533    1.69802634402610
C         3.98690574804125   -2.12676071801797    2.23421225691000
C         3.93019763344280    0.38363933030388    2.43235978762387
O         0.90400850770685   -2.77385391003442   -0.09917588192393
H         2.85579949373750    2.32452919593113   -0.50531606577286
H         3.64716022300973    3.01562242771610   -2.72882697353912
H         2.41989998314660    2.31474983832777   -4.75129490567780
H         0.38731725015998    0.93389402311401   -4.53662216907610
H        -0.40094337709893    0.23902036250838   -2.31399269624335
H         1.41747266378680    1.10545175694373    0.86058182937310
H        -1.02544158696515    2.08685924211255   -0.43990893547938
H        -1.46135169359194    1.14248659404986    3.05119887034055
H        -1.19760072349656    2.73428362341203    4.89761888296903
H        -0.13920022522692    4.93036228214764    4.50791346267860
H         0.64802539548997    5.52518292418049    2.24453212155193
H         0.36753237481213    3.93395648775295    0.38684090477508
H        -2.79843285656376   -0.10135096083239   -1.87162492466173
H        -1.85223442665895   -2.43099328501331   -2.13509880578671
H        -2.22832722028625   -1.65391449971952   -3.67484191652321
H        -3.30053990293713   -2.88891478005191   -3.02526538868920
H        -5.32431998286372   -1.28932256762680   -3.09447791163551
H        -4.25559897614017   -0.11184106495335   -3.86471946303548
H        -5.15064568482494    0.32767827579795   -2.40610942517736
H        -4.95895558900467   -3.16662121462997   -1.47851219587195
H        -5.86360091981241   -3.88437837231737    0.67831994246963
H        -5.44610778026236   -2.54040968429116    2.71007638558784
H        -4.08928716817697   -0.48299094184737    2.55517121544415
H        -1.42087613942841   -1.60889252183120   -0.05335675751105
H         0.00273633706576   -3.00330241736195    1.25260967585804
H         2.05300290227959   -1.62802601883628   -2.70203359487518
H         4.24228926623416   -0.94761012719868   -3.61567979485567
H         6.00673544370308   -0.14627738660453   -2.08093787956054
H         5.60741175908292   -0.09329432946283    0.33015647905700
H         2.28929106091469   -0.87992450737528    1.89919076884895
H         5.05879805927040   -2.13899196140241    2.05017144708207
H         3.81434135465923   -2.21023885523240    3.30442346142848
H         3.54242307477970   -2.98938004097646    1.74293962878969
H         3.59460455815016    1.31072285750553    1.97091242081591
H         5.01684813732119    0.37283234443767    2.43356878687996
H         3.59344406346707    0.37668281433509    3.46631122906497

          :  Hamiltonian                  GFN2-xTB          :
         :: total energy            -117.623821986908 Eh    ::
         :: gradient norm              0.000252466473 Eh/a0 ::
         :: HOMO-LUMO gap              3.616312227387 eV    ::
         :: SCC energy              -119.464926451004 Eh    ::
         :: -> dispersion             -0.111491177827 Eh    ::
         :: repulsion energy           1.835884134968 Eh    ::

    * Orbital Energies and Occupations

         #    Occupation            Energy/Eh            Energy/eV
      -------------------------------------------------------------
         1        2.0000           -0.7516092             -20.4523
       ...           ...                  ...                  ...
        95        2.0000           -0.4267252             -11.6118
        96        2.0000           -0.4219725             -11.4825
        97        2.0000           -0.4209812             -11.4555
        98        2.0000           -0.4203553             -11.4384
        99        2.0000           -0.4176548             -11.3650
       100        2.0000           -0.4157218             -11.3124
       101        2.0000           -0.4125257             -11.2254
       102        2.0000           -0.4067795             -11.0690
       103        2.0000           -0.4049882             -11.0203
       104        2.0000           -0.4021098             -10.9420
       105        2.0000           -0.4003375             -10.8937
       106        2.0000           -0.3951378             -10.7522
       107        2.0000           -0.3902602             -10.6195 (HOMO)
       108                         -0.2573632              -7.0032 (LUMO)
       109                         -0.2507475              -6.8232
       110                         -0.2462052              -6.6996
       111                         -0.2450841              -6.6691
       112                         -0.2409363              -6.5562
       113                         -0.2352003              -6.4001
       114                         -0.2282917              -6.2121
       115                         -0.2256120              -6.1392
       116                         -0.2254693              -6.1353
       117                         -0.2228791              -6.0648
       118                         -0.2160702              -5.8796
       ...                                ...                  ...
       204                          0.6687076              18.1965
      -------------------------------------------------------------
                  HL-Gap            0.1328970 Eh            3.6163 eV

     #   Z          covCN         q      C6AA      Î±(0)
     1   6 C        2.924    -0.033    28.829     8.805
     2   6 C        2.920    -0.026    28.651     8.778
     3   6 C        2.921    -0.028    28.699     8.785
     4   6 C        2.920    -0.026    28.653     8.778
     5   6 C        2.924    -0.032    28.798     8.800
     6   6 C        2.974    -0.002    28.061     8.689
     7   6 C        3.815     0.039    19.907     6.350
     8   6 C        3.823     0.047    19.773     6.328
     9   6 C        2.973     0.004    27.938     8.670
    10   6 C        2.921    -0.034    28.859     8.809
    11   6 C        2.921    -0.025    28.632     8.775
    12   6 C        2.920    -0.030    28.743     8.792
    13   6 C        2.920    -0.028    28.711     8.787
    14   6 C        2.926    -0.038    28.934     8.821
    15   7 N        2.760    -0.115    23.514     7.202
    16   6 C        2.765     0.276    22.326     7.738
    17   6 C        2.982    -0.031    28.758     8.797
    18   6 C        2.974     0.005    27.896     8.664
    19   6 C        3.854    -0.009    20.697     6.471
    20   6 C        3.754    -0.099    22.438     6.754
    21   6 C        3.757    -0.102    22.506     6.764
    22   6 C        2.925    -0.035    28.868     8.811
    23   6 C        2.919    -0.030    28.750     8.793
    24   6 C        2.920    -0.029    28.716     8.788
    25   6 C        2.923    -0.024    28.615     8.772
    26   8 O        0.859    -0.417    22.027     6.292
    27   6 C        3.752     0.082    19.273     6.261
    28   6 C        2.683     0.349    21.069     7.512
    29   8 O        1.654    -0.371    20.303     6.083
    30   8 O        0.856    -0.366    21.022     6.147
    31   7 N        2.759    -0.111    23.427     7.189
    32   6 C        2.766     0.273    22.393     7.750
    33   6 C        2.983    -0.022    28.544     8.764
    34   6 C        2.924    -0.023    28.573     8.766
    35   6 C        2.920    -0.030    28.749     8.793
    36   6 C        2.919    -0.028    28.706     8.786
    37   6 C        2.926    -0.033    28.828     8.805
    38   6 C        2.974     0.011    27.765     8.643
    39   6 C        3.854    -0.010    20.724     6.475
    40   6 C        3.758    -0.104    22.530     6.767
    41   6 C        3.754    -0.102    22.509     6.765
    42   8 O        0.860    -0.466    23.040     6.436
    43   1 H        0.926     0.032     2.560     2.502
    44   1 H        0.926     0.041     2.441     2.443
    45   1 H        0.926     0.041     2.436     2.441
    46   1 H        0.926     0.041     2.438     2.442
    47   1 H        0.926     0.035     2.520     2.483
    48   1 H        0.924     0.053     2.288     2.366
    49   1 H        0.923     0.066     2.127     2.281
    50   1 H        0.926     0.066     2.127     2.281
    51   1 H        0.926     0.040     2.444     2.445
    52   1 H        0.926     0.035     2.523     2.484
    53   1 H        0.926     0.033     2.541     2.493
    54   1 H        0.925     0.025     2.659     2.550
    55   1 H        0.924     0.021     2.715     2.577
    56   1 H        0.925     0.025     2.659     2.550
    57   1 H        0.925     0.036     2.509     2.477
    58   1 H        0.925     0.042     2.427     2.436
    59   1 H        0.925     0.039     2.458     2.451
    60   1 H        0.925     0.038     2.478     2.462
    61   1 H        0.925     0.045     2.387     2.416
    62   1 H        0.926     0.038     2.481     2.463
    63   1 H        0.926     0.036     2.500     2.473
    64   1 H        0.926     0.042     2.428     2.437
    65   1 H        0.926     0.051     2.302     2.373
    66   1 H        0.922     0.061     2.188     2.313
    67   1 H        0.799     0.365     0.554     1.170
    68   1 H        0.926     0.038     2.478     2.462
    69   1 H        0.926     0.040     2.451     2.448
    70   1 H        0.926     0.040     2.451     2.448
    71   1 H        0.926     0.045     2.380     2.413
    72   1 H        0.924     0.023     2.688     2.564
    73   1 H        0.925     0.041     2.441     2.443
    74   1 H        0.925     0.046     2.371     2.408
    75   1 H        0.925     0.042     2.416     2.431
    76   1 H        0.925     0.028     2.615     2.529
    77   1 H        0.925     0.043     2.413     2.429
    78   1 H        0.925     0.043     2.410     2.428

Wiberg/Mayer (AO) data.
largest (>0.10) Wiberg bond orders for each atom

     #   Z sym  total        # sym  WBO       # sym  WBO       # sym  WBO
 ---------------------------------------------------------------------------
     1   6 C    3.990 --     2 C    1.441     6 C    1.415    43 H    0.968
                             4 C    0.110
     2   6 C    3.991 --     1 C    1.441     3 C    1.441    44 H    0.970
                             5 C    0.111
     3   6 C    3.990 --     2 C    1.441     4 C    1.434    45 H    0.971
                             6 C    0.109
     4   6 C    3.992 --     5 C    1.450     3 C    1.434    46 H    0.970
                             1 C    0.110
     5   6 C    3.991 --     4 C    1.450     6 C    1.406    47 H    0.967
                             2 C    0.111
     6   6 C    3.985 --     1 C    1.415     5 C    1.406     7 C    0.989
                             3 C    0.109
     7   6 C    3.961 --     6 C    0.989    31 N    0.958    48 H    0.951
                             8 C    0.950
     8   6 C    3.963 --     9 C    0.983    15 N    0.968     7 C    0.950
                            49 H    0.949
     9   6 C    3.984 --    10 C    1.425    14 C    1.403     8 C    0.983
                            12 C    0.109
    10   6 C    3.987 --    11 C    1.434     9 C    1.425    50 H    0.957
                            13 C    0.111
    11   6 C    3.992 --    12 C    1.448    10 C    1.434    51 H    0.971
                            14 C    0.113
    12   6 C    3.991 --    11 C    1.448    13 C    1.431    52 H    0.971
                             9 C    0.109
    13   6 C    3.992 --    14 C    1.453    12 C    1.431    53 H    0.971
                            10 C    0.111
    14   6 C    3.991 --    13 C    1.453     9 C    1.403    54 H    0.970
                            11 C    0.113
    15   7 N    3.458 --    16 C    1.186    27 C    1.004     8 C    0.968
                            26 O    0.185
    16   6 C    3.940 --    26 O    1.707    15 N    1.186    17 C    0.956
    17   6 C    3.986 --    25 C    1.408    18 C    1.383    16 C    0.956
                            23 C    0.108
    18   6 C    3.986 --    22 C    1.411    17 C    1.383    19 C    0.997
                            24 C    0.109
    19   6 C    3.996 --    20 C    1.000    18 C    0.997    21 C    0.994
                            55 H    0.962
    20   6 C    3.996 --    19 C    1.000    57 H    0.986    58 H    0.984
                            56 H    0.984
    21   6 C    3.995 --    19 C    0.994    61 H    0.987    59 H    0.986
                            60 H    0.985
    22   6 C    3.992 --    23 C    1.447    18 C    1.411    62 H    0.966
                            25 C    0.111
    23   6 C    3.992 --    22 C    1.447    24 C    1.434    63 H    0.971
                            17 C    0.108
    24   6 C    3.991 --    25 C    1.442    23 C    1.434    64 H    0.970
                            18 C    0.109
    25   6 C    3.989 --    24 C    1.442    17 C    1.408    65 H    0.968
                            22 C    0.111
    26   8 O    2.025 --    16 C    1.707    15 N    0.185
    27   6 C    3.960 --    15 N    1.004    31 N    0.965    66 H    0.930
                            28 C    0.889
    28   6 C    3.931 --    30 O    1.770    29 O    1.209    27 C    0.889
    29   8 O    2.237 --    28 C    1.209    67 H    0.758    30 O    0.183
    30   8 O    2.083 --    28 C    1.770    29 O    0.183
    31   7 N    3.501 --    32 C    1.270    27 C    0.965     7 C    0.958
                            42 O    0.183
    32   6 C    3.938 --    42 O    1.585    31 N    1.270    33 C    0.970
    33   6 C    3.984 --    34 C    1.402    38 C    1.378    32 C    0.970
                            36 C    0.107
    34   6 C    3.990 --    35 C    1.445    33 C    1.402    68 H    0.969
                            37 C    0.110
    35   6 C    3.991 --    34 C    1.445    36 C    1.431    69 H    0.970
                            38 C    0.107
    36   6 C    3.991 --    37 C    1.448    35 C    1.431    70 H    0.971
                            33 C    0.107
    37   6 C    3.991 --    36 C    1.448    38 C    1.410    71 H    0.965
                            34 C    0.110
    38   6 C    3.985 --    37 C    1.410    33 C    1.378    39 C    0.999
                            35 C    0.107
    39   6 C    3.996 --    41 C    1.003    38 C    0.999    40 C    0.989
                            72 H    0.962
    40   6 C    3.994 --    39 C    0.989    75 H    0.987    73 H    0.986
                            74 H    0.984
    41   6 C    3.996 --    39 C    1.003    78 H    0.986    76 H    0.985
                            77 H    0.984
    42   8 O    2.008 --    32 C    1.585    31 N    0.183
    43   1 H    0.999 --     1 C    0.968
    44   1 H    0.998 --     2 C    0.970
    45   1 H    0.998 --     3 C    0.971
    46   1 H    0.998 --     4 C    0.970
    47   1 H    0.999 --     5 C    0.967
    48   1 H    0.997 --     7 C    0.951
    49   1 H    0.995 --     8 C    0.949
    50   1 H    0.996 --    10 C    0.957
    51   1 H    0.998 --    11 C    0.971
    52   1 H    0.998 --    12 C    0.971
    53   1 H    0.998 --    13 C    0.971
    54   1 H    0.999 --    14 C    0.970
    55   1 H    0.999 --    19 C    0.962
    56   1 H    0.999 --    20 C    0.984
    57   1 H    0.998 --    20 C    0.986
    58   1 H    0.998 --    20 C    0.984
    59   1 H    0.998 --    21 C    0.986
    60   1 H    0.998 --    21 C    0.985
    61   1 H    0.998 --    21 C    0.987
    62   1 H    0.998 --    22 C    0.966
    63   1 H    0.998 --    23 C    0.971
    64   1 H    0.997 --    24 C    0.970
    65   1 H    0.997 --    25 C    0.968
    66   1 H    0.996 --    27 C    0.930
    67   1 H    0.866 --    29 O    0.758
    68   1 H    0.998 --    34 C    0.969
    69   1 H    0.997 --    35 C    0.970
    70   1 H    0.998 --    36 C    0.971
    71   1 H    0.997 --    37 C    0.965
    72   1 H    0.999 --    39 C    0.962
    73   1 H    0.998 --    40 C    0.986
    74   1 H    0.997 --    40 C    0.984
    75   1 H    0.998 --    40 C    0.987
    76   1 H    0.999 --    41 C    0.985
    77   1 H    0.998 --    41 C    0.984
    78   1 H    0.998 --    41 C    0.986
 ---------------------------------------------------------------------------

molecular dipole:
                 x           y           z       tot (Debye)
 q only:        1.935       0.377      -1.218
   full:        2.090       0.243      -1.595       6.711

           -------------------------------------------------
          | TOTAL ENERGY             -117.623821986908 Eh   |
          | GRADIENT NORM               0.000252466473 Eh/Î± |
          | HOMO-LUMO GAP               3.616312227387 eV   |
           -------------------------------------------------

 * finished run on 2022/03/16 at 21:21:34.584
