   * xtb version 6.3.3 (4ae9cef) compiled by 'conda@95abc7406d43' on 2020-10-14
          program call               : xtb alk_3.xyz --opt --chrg 0 --uhf 0 --gfn 2
          number of atoms            :                    22
          number of electrons        :                    52
          charge                     :                     0
          spin                       :                   0.0

   ID    Z sym.   atoms
    1    6 C      1-10
    2    1 H      11-22

          :  Hamiltonian                  GFN2-xTB          :
 * total energy  :   -27.4830553 Eh     change       -0.2929070E-09 Eh
 * total energy  :   -27.4850738 Eh     change       -0.2018508E-02 Eh
 * total energy  :   -27.4852421 Eh     change       -0.1682220E-03 Eh
 * total energy  :   -27.4852721 Eh     change       -0.3005368E-04 Eh
 * total energy  :   -27.4852763 Eh     change       -0.4213622E-05 Eh
 * total energy  :   -27.4852870 Eh     change       -0.1065841E-04 Eh
 * total energy  :   -27.4852905 Eh     change       -0.3512209E-05 Eh
   *** GEOMETRY OPTIMIZATION CONVERGED AFTER 7 ITERATIONS ***

 final structure:
================
22
 xtb: 6.3.3 (4ae9cef)
C         3.91331623529703   -0.75601259580475   -0.12815085906461
C         3.01919943148698    0.20331442001209    0.01715325574727
C         1.58054234808611   -0.02079580864764    0.35303249505790
C         0.66759352850777    0.48394384087355   -0.77843464917239
C        -0.77600411145877    0.27076740564394   -0.42745092278828
C        -1.41670782769238   -0.91669460774702   -0.75748665095448
C        -2.73819489198259   -1.12756075355166   -0.40672578400998
C        -3.43746770383039   -0.15234377244626    0.28338804346063
C        -2.80715845602437    1.03275314373987    0.62160617266950
C        -1.48552735034401    1.24054984774328    0.26952800511429
H         3.65619761434486   -1.79419404790777    0.00617458563810
H         4.93945264100626   -0.54903113941419   -0.38068718653774
H         3.30299719908487    1.23834106590957   -0.12699805612692
H         1.33074870602749    0.51961035413248    1.27077346347689
H         1.39445964162639   -1.08290568822288    0.52329298290159
H         0.85902808258921    1.54655832813895   -0.94341770703679
H         0.91438073800857   -0.05480567962607   -1.69579971272314
H        -0.87530041224702   -1.67992511965999   -1.29883476110264
H        -3.22475052704867   -2.05450427785451   -0.67421048873695
H        -4.47024165306025   -0.31456569376684    0.55510946293829
H        -3.34762387393138    1.79830128716787    1.15953214801665
H        -0.99893835844572    2.16920149128800    0.53372416323275

          :  Hamiltonian                  GFN2-xTB          :
         :: total energy             -27.485290490427 Eh    ::
         :: gradient norm              0.000262044936 Eh/a0 ::
         :: HOMO-LUMO gap              4.630221755547 eV    ::
         :: SCC energy               -28.002150881810 Eh    ::
         :: -> dispersion             -0.017110138097 Eh    ::
         :: repulsion energy           0.516877073779 Eh    ::

    * Orbital Energies and Occupations

         #    Occupation            Energy/Eh            Energy/eV
      -------------------------------------------------------------
         1        2.0000           -0.6418727             -17.4662
       ...           ...                  ...                  ...
        14        2.0000           -0.4860014             -13.2248
        15        2.0000           -0.4811702             -13.0933
        16        2.0000           -0.4748939             -12.9225
        17        2.0000           -0.4720272             -12.8445
        18        2.0000           -0.4593438             -12.4994
        19        2.0000           -0.4569212             -12.4335
        20        2.0000           -0.4368018             -11.8860
        21        2.0000           -0.4308010             -11.7227
        22        2.0000           -0.4176754             -11.3655
        23        2.0000           -0.4165783             -11.3357
        24        2.0000           -0.4034853             -10.9794
        25        2.0000           -0.4000708             -10.8865
        26        2.0000           -0.3899744             -10.6117 (HOMO)
        27                         -0.2198169              -5.9815 (LUMO)
        28                         -0.2186118              -5.9487
        29                         -0.1994399              -5.4270
        30                         -0.0896213              -2.4387
        31                          0.0912994               2.4844
        32                          0.1215594               3.3078
        33                          0.1221834               3.3248
        34                          0.1292336               3.5166
        35                          0.1374149               3.7393
        36                          0.1526998               4.1552
        37                          0.1692410               4.6053
       ...                                ...                  ...
        52                          0.6682895              18.1851
      -------------------------------------------------------------
                  HL-Gap            0.1701575 Eh            4.6302 eV

     #   Z          covCN         q      C6AA      Î±(0)
     1   6 C        2.837    -0.094    30.365     9.030
     2   6 C        2.887    -0.027    28.683     8.781
     3   6 C        3.808    -0.053    21.523     6.604
     4   6 C        3.810    -0.059    21.627     6.620
     5   6 C        2.971     0.013    27.724     8.637
     6   6 C        2.925    -0.038    28.942     8.822
     7   6 C        2.919    -0.031    28.764     8.795
     8   6 C        2.920    -0.033    28.833     8.806
     9   6 C        2.919    -0.031    28.768     8.795
    10   6 C        2.925    -0.038    28.944     8.823
    11   1 H        0.926     0.036     2.507     2.476
    12   1 H        0.926     0.034     2.531     2.488
    13   1 H        0.925     0.031     2.578     2.511
    14   1 H        0.924     0.040     2.455     2.450
    15   1 H        0.924     0.038     2.472     2.459
    16   1 H        0.924     0.037     2.487     2.466
    17   1 H        0.924     0.037     2.493     2.469
    18   1 H        0.926     0.029     2.607     2.525
    19   1 H        0.926     0.028     2.614     2.529
    20   1 H        0.926     0.028     2.622     2.532
    21   1 H        0.926     0.028     2.616     2.529
    22   1 H        0.926     0.028     2.616     2.529

Wiberg/Mayer (AO) data.
largest (>0.10) Wiberg bond orders for each atom

     #   Z sym  total        # sym  WBO       # sym  WBO       # sym  WBO
 ---------------------------------------------------------------------------
     1   6 C    3.989 --     2 C    1.977    12 H    0.977    11 H    0.976
     2   6 C    3.990 --     1 C    1.977     3 C    1.027    13 H    0.966
     3   6 C    3.997 --     2 C    1.027    15 H    0.976     4 C    0.971
                            14 H    0.963
     4   6 C    3.996 --     5 C    1.012    17 H    0.974    16 H    0.973
                             3 C    0.971
     5   6 C    3.988 --    10 C    1.412     6 C    1.411     4 C    1.012
                             8 C    0.110
     6   6 C    3.991 --     7 C    1.446     5 C    1.411    18 H    0.970
                             9 C    0.111
     7   6 C    3.993 --     6 C    1.446     8 C    1.438    19 H    0.971
                            10 C    0.111
     8   6 C    3.992 --     9 C    1.438     7 C    1.438    20 H    0.972
                             5 C    0.110
     9   6 C    3.993 --    10 C    1.446     8 C    1.438    21 H    0.971
                             6 C    0.111
    10   6 C    3.991 --     9 C    1.446     5 C    1.412    22 H    0.970
                             7 C    0.111
    11   1 H    0.999 --     1 C    0.976
    12   1 H    0.998 --     1 C    0.977
    13   1 H    0.999 --     2 C    0.966
    14   1 H    0.998 --     3 C    0.963
    15   1 H    0.999 --     3 C    0.976
    16   1 H    0.998 --     4 C    0.973
    17   1 H    0.998 --     4 C    0.974
    18   1 H    0.999 --     6 C    0.970
    19   1 H    0.999 --     7 C    0.971
    20   1 H    0.999 --     8 C    0.972
    21   1 H    0.999 --     9 C    0.971
    22   1 H    0.999 --    10 C    0.970
 ---------------------------------------------------------------------------

molecular dipole:
                 x           y           z       tot (Debye)
 q only:        0.039       0.045      -0.003
   full:        0.030       0.055       0.003       0.159

           -------------------------------------------------
          | TOTAL ENERGY              -27.485290490427 Eh   |
          | GRADIENT NORM               0.000262044936 Eh/Î± |
          | HOMO-LUMO GAP               4.630221755547 eV   |
           -------------------------------------------------

 * finished run on 2022/03/17 at 02:19:32.307
