   * xtb version 6.3.3 (4ae9cef) compiled by 'conda@95abc7406d43' on 2020-10-14
          program call               : xtb acid_209.xyz --opt --chrg 0 --uhf 0 --gfn 2
          number of atoms            :                    72
          number of electrons        :                   274
          charge                     :                     0
          spin                       :                   0.0

   ID    Z sym.   atoms
    1    8 O      1, 20, 21, 38
    2    6 C      2-6, 10-12, 16, 18, 19, 23-27, 31-33, 37, 39-52
    3    9 F      7-9, 13-15, 28-30, 34-36
    4    7 N      17, 22
    5    1 H      53-72

          :  Hamiltonian                  GFN2-xTB          :
 * total energy  :  -161.9463609 Eh     change       -0.1165347E-08 Eh
 * total energy  :  -161.9636614 Eh     change       -0.1730051E-01 Eh
 * total energy  :  -161.9691399 Eh     change       -0.5478469E-02 Eh
 * total energy  :  -161.9708938 Eh     change       -0.1753891E-02 Eh
 * total energy  :  -161.9721677 Eh     change       -0.1273943E-02 Eh
 * total energy  :  -161.9732439 Eh     change       -0.1076144E-02 Eh
 * total energy  :  -161.9741287 Eh     change       -0.8848521E-03 Eh
 * total energy  :  -161.9751173 Eh     change       -0.9885850E-03 Eh
 * total energy  :  -161.9759449 Eh     change       -0.8276362E-03 Eh
 * total energy  :  -161.9766217 Eh     change       -0.6767809E-03 Eh
 * total energy  :  -161.9898442 Eh     change       -0.9951564E-05 Eh
 * total energy  :  -161.9898625 Eh     change       -0.1825256E-04 Eh
 * total energy  :  -161.9898760 Eh     change       -0.1354530E-04 Eh
 * total energy  :  -161.9898942 Eh     change       -0.1813033E-04 Eh
 * total energy  :  -161.9899169 Eh     change       -0.2271246E-04 Eh
 * total energy  :  -161.9899348 Eh     change       -0.1786115E-04 Eh
 * total energy  :  -161.9899504 Eh     change       -0.1560543E-04 Eh
 * total energy  :  -161.9899627 Eh     change       -0.1230457E-04 Eh
 * total energy  :  -161.9899674 Eh     change       -0.4707992E-05 Eh
   *** GEOMETRY OPTIMIZATION CONVERGED AFTER 94 ITERATIONS ***

 final structure:
================
72
 xtb: 6.3.3 (4ae9cef)
O        -3.07053060398493    1.69123888444122   -1.03270230295282
C        -2.27730650719879    0.84289570607464   -0.70903210806799
C        -2.56205837299144   -0.63426206435400   -0.69612586759053
C        -2.78629984209808   -1.24412069911863    0.53137358437563
C        -3.00644812525207   -2.61232526611345    0.59343108584036
C        -3.25180077244968   -3.22683296841118    1.94769820483828
F        -4.47156060388654   -2.90432483073973    2.41774671409706
F        -2.37602501194039   -2.76863208372794    2.85902759401618
F        -3.17770031664837   -4.55472512430129    1.95496811077684
C        -3.01052684077597   -3.38257262435797   -0.55841158939815
C        -2.81695501372345   -2.75423718236263   -1.78079590124932
C        -2.86817551528183   -3.58339700291386   -3.03919698437111
F        -2.27360261413338   -2.98781214828561   -4.07769040897368
F        -2.29008425390058   -4.77924830206265   -2.88679759961764
F        -4.13880659597294   -3.82254908338243   -3.41548602782738
C        -2.60452516726035   -1.38537044171260   -1.86179093191733
N        -1.01214117894638    1.13922244079293   -0.29437198683532
C         0.00321015023692    0.16482573578913    0.01674491565391
C         0.30935421220929   -0.70140287094864   -1.24037652135974
O         0.48370798404874   -0.01147834414958   -2.35648993440604
O         0.37279643406505   -1.89481917099788   -1.19309370146057
N         1.13870917953386    0.96138385981911    0.42026719270975
C         2.31038102321437    0.48961714907021    0.93672776119835
C         2.47689049471001   -0.99454006092293    0.76024646922648
C         1.76283542344613   -1.91765171182284    1.50997793062885
C         1.86897968038287   -3.26885066208566    1.21202170934410
C         0.98627710565310   -4.23443887825853    1.95874715824917
F         0.93577659940489   -3.96721810261028    3.27109037282603
F        -0.28368672113269   -4.16123136782256    1.51161965011004
F         1.36641307350459   -5.50605082213519    1.83280887308695
C         2.69593508875815   -3.71679611420412    0.19420321970915
C         3.44780724837061   -2.78716494391148   -0.50783790875075
C         4.39356024369258   -3.23975902664330   -1.59063710824298
F         4.06705072265536   -4.42703589885250   -2.10622707582341
F         5.65238589176859   -3.35555789375551   -1.12967669562539
F         4.44738818250549   -2.37013739621691   -2.60952294979034
C         3.34504375720740   -1.43236030725562   -0.23148719180964
O         3.14796423017718    1.21935414879473    1.40559482644847
C         0.87212428841112    2.39441867865468    0.40147751940860
C         1.74704243396897    3.15543015977273   -0.57032596679306
C         2.49149795301578    2.53462495587559   -1.56217341823180
C         3.26304061791965    3.28843749606635   -2.43152157233730
C         3.29061596391160    4.66665516148404   -2.32237714573960
C         2.54546386021384    5.29259868655908   -1.33617074651875
C         1.77968832390554    4.54161869779730   -0.46469291105013
C        -0.62397873805846    2.50898410047093    0.03988927869154
C        -1.46531845173359    3.04052810226622    1.17437955784140
C        -1.57369559951352    2.32110961608214    2.35852096710511
C        -2.35157432281974    2.79941117105050    3.39670992649894
C        -3.02302833458918    4.00305452944020    3.26146523120263
C        -2.91487629033033    4.72472200242672    2.08542942761216
C        -2.14112128048946    4.24419898439104    1.04345890115685
H        -2.79667033462278   -0.65444409462334    1.43728475651016
H        -3.15540099758485   -4.45055426219602   -0.50462254128217
H        -2.45732019863386   -0.91466161728965   -2.82216936534307
H        -0.30677214492162   -0.53030165361651    0.81411365841889
H         0.40030838298423    0.95009960232889   -2.23820585164085
H         1.12448619261396   -1.60049349849690    2.32182899523195
H         2.75123282554844   -4.76683895814595   -0.04858000125843
H         3.92613954852328   -0.71749324888330   -0.79536685757136
H         1.05495726218010    2.79315604906419    1.40744440987403
H         2.50531080906463    1.45796579986626   -1.65206231470075
H         3.84477524331733    2.79113275113413   -3.19252943443354
H         3.89559531656891    5.25135125898292   -2.99802294095451
H         2.56734414847119    6.36742884200876   -1.24059928027679
H         1.20433662904085    5.02702827752167    0.31026963437677
H        -0.77021592541825    3.14581091834192   -0.84118182316594
H        -1.04700488995546    1.38348239626988    2.47239900185272
H        -2.43368494872624    2.23168091486320    4.31122597599308
H        -3.63114206574798    4.37531353804881    4.07163977732117
H        -3.43906111593397    5.66165031745146    1.97497432420706
H        -2.06732582857904    4.80125579472943    0.12154725092292

          :  Hamiltonian                  GFN2-xTB          :
         :: total energy            -161.989967370393 Eh    ::
         :: gradient norm              0.000342003847 Eh/a0 ::
         :: HOMO-LUMO gap              3.197494956379 eV    ::
         :: SCC energy              -163.666419036579 Eh    ::
         :: -> dispersion             -0.104508080142 Eh    ::
         :: repulsion energy           1.672224663750 Eh    ::

    * Orbital Energies and Occupations

         #    Occupation            Energy/Eh            Energy/eV
      -------------------------------------------------------------
         1        2.0000           -0.8964641             -24.3940
       ...           ...                  ...                  ...
       125        2.0000           -0.4774978             -12.9934
       126        2.0000           -0.4683640             -12.7448
       127        2.0000           -0.4625684             -12.5871
       128        2.0000           -0.4557882             -12.4026
       129        2.0000           -0.4529790             -12.3262
       130        2.0000           -0.4506218             -12.2620
       131        2.0000           -0.4451559             -12.1133
       132        2.0000           -0.4431303             -12.0582
       133        2.0000           -0.4418265             -12.0227
       134        2.0000           -0.4380129             -11.9189
       135        2.0000           -0.4353211             -11.8457
       136        2.0000           -0.4308886             -11.7251
       137        2.0000           -0.4290719             -11.6756 (HOMO)
       138                         -0.3115661              -8.4781 (LUMO)
       139                         -0.3080262              -8.3818
       140                         -0.3060272              -8.3274
       141                         -0.3040378              -8.2733
       142                         -0.2958556              -8.0506
       143                         -0.2667564              -7.2588
       144                         -0.2612820              -7.1098
       145                         -0.2610914              -7.1047
       146                         -0.2559826              -6.9656
       147                         -0.2536892              -6.9032
       148                         -0.2531690              -6.8891
       ...                                ...                  ...
       228                          0.6348122              17.2741
      -------------------------------------------------------------
                  HL-Gap            0.1175058 Eh            3.1975 eV

     #   Z          covCN         q      C6AA      Î±(0)
     1   8 O        0.859    -0.383    21.335     6.193
     2   6 C        2.761     0.272    22.407     7.752
     3   6 C        2.979    -0.009    28.238     8.717
     4   6 C        2.927    -0.018    28.469     8.750
     5   6 C        2.977    -0.007    28.189     8.709
     6   6 C        3.336     0.489    17.239     6.575
     7   9 F        0.791    -0.201    11.246     3.961
     8   9 F        0.791    -0.202    11.257     3.963
     9   9 F        0.791    -0.185    11.085     3.933
    10   6 C        2.921    -0.010    28.273     8.720
    11   6 C        2.979    -0.004    28.114     8.697
    12   6 C        3.336     0.489    17.244     6.576
    13   9 F        0.791    -0.194    11.170     3.948
    14   9 F        0.791    -0.192    11.154     3.945
    15   9 F        0.791    -0.200    11.239     3.960
    16   6 C        2.921    -0.012    28.316     8.726
    17   7 N        2.766    -0.128    23.785     7.243
    18   6 C        3.743     0.070    19.474     6.296
    19   6 C        2.686     0.342    21.184     7.532
    20   8 O        1.659    -0.336    19.650     5.984
    21   8 O        0.856    -0.366    21.005     6.145
    22   7 N        2.762    -0.121    23.628     7.219
    23   6 C        2.762     0.273    22.380     7.747
    24   6 C        2.978    -0.005    28.150     8.703
    25   6 C        2.923    -0.016    28.409     8.741
    26   6 C        2.979    -0.005    28.151     8.703
    27   6 C        3.336     0.490    17.230     6.573
    28   9 F        0.791    -0.195    11.188     3.951
    29   9 F        0.791    -0.207    11.312     3.973
    30   9 F        0.791    -0.190    11.130     3.941
    31   6 C        2.920    -0.009    28.243     8.715
    32   6 C        2.978    -0.004    28.129     8.700
    33   6 C        3.336     0.489    17.245     6.577
    34   9 F        0.791    -0.192    11.148     3.944
    35   9 F        0.791    -0.200    11.232     3.959
    36   9 F        0.791    -0.198    11.212     3.955
    37   6 C        2.926    -0.011    28.289     8.722
    38   8 O        0.859    -0.382    21.319     6.191
    39   6 C        3.819     0.038    19.928     6.353
    40   6 C        2.972    -0.000    28.035     8.685
    41   6 C        2.922    -0.038    28.954     8.824
    42   6 C        2.920    -0.025    28.627     8.774
    43   6 C        2.920    -0.026    28.640     8.776
    44   6 C        2.920    -0.023    28.581     8.767
    45   6 C        2.926    -0.034    28.854     8.809
    46   6 C        3.816     0.040    19.896     6.348
    47   6 C        2.974     0.002    27.987     8.678
    48   6 C        2.924    -0.034    28.850     8.808
    49   6 C        2.919    -0.026    28.649     8.777
    50   6 C        2.921    -0.025    28.618     8.773
    51   6 C        2.920    -0.023    28.572     8.766
    52   6 C        2.923    -0.028    28.697     8.785
    53   1 H        0.926     0.073     2.048     2.238
    54   1 H        0.926     0.100     1.787     2.090
    55   1 H        0.926     0.086     1.921     2.167
    56   1 H        0.923     0.060     2.199     2.319
    57   1 H        0.804     0.349     0.590     1.206
    58   1 H        0.926     0.073     2.051     2.240
    59   1 H        0.926     0.099     1.794     2.095
    60   1 H        0.926     0.082     1.959     2.189
    61   1 H        0.924     0.080     1.984     2.203
    62   1 H        0.926     0.026     2.647     2.544
    63   1 H        0.926     0.047     2.363     2.404
    64   1 H        0.926     0.046     2.366     2.405
    65   1 H        0.926     0.046     2.367     2.406
    66   1 H        0.926     0.038     2.479     2.462
    67   1 H        0.924     0.064     2.153     2.295
    68   1 H        0.925     0.023     2.687     2.563
    69   1 H        0.926     0.044     2.393     2.419
    70   1 H        0.926     0.046     2.373     2.409
    71   1 H        0.926     0.047     2.360     2.402
    72   1 H        0.926     0.043     2.409     2.427

Wiberg/Mayer (AO) data.
largest (>0.10) Wiberg bond orders for each atom

     #   Z sym  total        # sym  WBO       # sym  WBO       # sym  WBO
 ---------------------------------------------------------------------------
     1   8 O    2.059 --     2 C    1.730    17 N    0.195
     2   6 C    3.953 --     1 O    1.730    17 N    1.192     3 C    0.948
     3   6 C    3.988 --    16 C    1.410     4 C    1.407     2 C    0.948
                            10 C    0.109
     4   6 C    3.988 --     5 C    1.418     3 C    1.407    53 H    0.963
                            11 C    0.107
     5   6 C    3.982 --    10 C    1.418     4 C    1.418     6 C    0.948
                            16 C    0.106
     6   6 C    3.840 --     9 F    0.969     5 C    0.948     8 F    0.946
                             7 F    0.943
     7   9 F    1.074 --     6 C    0.943
     8   9 F    1.073 --     6 C    0.946
     9   9 F    1.095 --     6 C    0.969
    10   6 C    3.982 --     5 C    1.418    11 C    1.417    54 H    0.959
                             3 C    0.109
    11   6 C    3.983 --    16 C    1.419    10 C    1.417    12 C    0.948
                             4 C    0.107
    12   6 C    3.841 --    13 F    0.958    14 F    0.958    11 C    0.948
                            15 F    0.942
    13   9 F    1.084 --    12 C    0.958
    14   9 F    1.086 --    12 C    0.958
    15   9 F    1.075 --    12 C    0.942
    16   6 C    3.985 --    11 C    1.419     3 C    1.410    55 H    0.962
                             5 C    0.106
    17   7 N    3.451 --     2 C    1.192    18 C    0.989    46 C    0.945
                             1 O    0.195
    18   6 C    3.967 --    17 N    0.989    22 N    0.985    56 H    0.939
                            19 C    0.893
    19   6 C    3.925 --    21 O    1.788    20 O    1.177    18 C    0.893
    20   8 O    2.254 --    19 C    1.177    57 H    0.845    21 O    0.177
    21   8 O    2.081 --    19 C    1.788    20 O    0.177
    22   7 N    3.454 --    23 C    1.191    18 C    0.985    39 C    0.956
                            38 O    0.196
    23   6 C    3.953 --    38 O    1.730    22 N    1.191    24 C    0.950
    24   6 C    3.987 --    25 C    1.413    37 C    1.407    23 C    0.950
                            31 C    0.109
    25   6 C    3.988 --    26 C    1.416    24 C    1.413    58 H    0.963
                            32 C    0.107
    26   6 C    3.982 --    31 C    1.418    25 C    1.416    27 C    0.949
                            37 C    0.107
    27   6 C    3.838 --    30 F    0.964    28 F    0.953    26 C    0.949
                            29 F    0.937
    28   9 F    1.081 --    27 C    0.953
    29   9 F    1.069 --    27 C    0.937
    30   9 F    1.089 --    27 C    0.964
    31   6 C    3.982 --    26 C    1.418    32 C    1.416    59 H    0.959
                            24 C    0.109
    32   6 C    3.982 --    37 C    1.420    31 C    1.416    33 C    0.948
                            25 C    0.107
    33   6 C    3.840 --    34 F    0.961    36 F    0.952    32 C    0.948
                            35 F    0.944
    34   9 F    1.087 --    33 C    0.961
    35   9 F    1.076 --    33 C    0.944
    36   9 F    1.079 --    33 C    0.952
    37   6 C    3.986 --    32 C    1.420    24 C    1.407    60 H    0.963
                            26 C    0.107
    38   8 O    2.059 --    23 C    1.730    22 N    0.196
    39   6 C    3.955 --    40 C    0.984    46 C    0.958    22 N    0.956
                            61 H    0.947
    40   6 C    3.984 --    41 C    1.424    45 C    1.403    39 C    0.984
                            43 C    0.110
    41   6 C    3.991 --    42 C    1.433    40 C    1.424    62 H    0.964
                            44 C    0.109
    42   6 C    3.991 --    43 C    1.447    41 C    1.433    63 H    0.970
                            45 C    0.113
    43   6 C    3.990 --    42 C    1.447    44 C    1.431    64 H    0.970
                            40 C    0.110
    44   6 C    3.991 --    45 C    1.453    43 C    1.431    65 H    0.970
                            41 C    0.109
    45   6 C    3.991 --    44 C    1.453    40 C    1.403    66 H    0.969
                            42 C    0.113
    46   6 C    3.955 --    47 C    0.985    39 C    0.958    67 H    0.956
                            17 N    0.945
    47   6 C    3.983 --    52 C    1.417    48 C    1.409    46 C    0.985
                            50 C    0.109
    48   6 C    3.992 --    49 C    1.448    47 C    1.409    68 H    0.969
                            51 C    0.112
    49   6 C    3.992 --    48 C    1.448    50 C    1.435    69 H    0.970
                            52 C    0.111
    50   6 C    3.990 --    51 C    1.443    49 C    1.435    70 H    0.970
                            47 C    0.109
    51   6 C    3.991 --    50 C    1.443    52 C    1.440    71 H    0.970
                            48 C    0.112
    52   6 C    3.989 --    51 C    1.440    47 C    1.417    72 H    0.968
                            49 C    0.111
    53   1 H    0.994 --     4 C    0.963
    54   1 H    0.990 --    10 C    0.959
    55   1 H    0.992 --    16 C    0.962
    56   1 H    0.996 --    18 C    0.939
    57   1 H    0.878 --    20 O    0.845
    58   1 H    0.994 --    25 C    0.963
    59   1 H    0.990 --    31 C    0.959
    60   1 H    0.993 --    37 C    0.963
    61   1 H    0.993 --    39 C    0.947
    62   1 H    0.999 --    41 C    0.964
    63   1 H    0.998 --    42 C    0.970
    64   1 H    0.997 --    43 C    0.970
    65   1 H    0.997 --    44 C    0.970
    66   1 H    0.999 --    45 C    0.969
    67   1 H    0.995 --    46 C    0.956
    68   1 H    0.999 --    48 C    0.969
    69   1 H    0.998 --    49 C    0.970
    70   1 H    0.997 --    50 C    0.970
    71   1 H    0.997 --    51 C    0.970
    72   1 H    0.998 --    52 C    0.968
 ---------------------------------------------------------------------------

molecular dipole:
                 x           y           z       tot (Debye)
 q only:        0.098       3.696       0.223
   full:        0.024       3.585       0.396       9.168

           -------------------------------------------------
          | TOTAL ENERGY             -161.989967370393 Eh   |
          | GRADIENT NORM               0.000342003847 Eh/Î± |
          | HOMO-LUMO GAP               3.197494956379 eV   |
           -------------------------------------------------

 * finished run on 2022/03/16 at 22:32:28.254
