   * xtb version 6.3.3 (4ae9cef) compiled by 'conda@95abc7406d43' on 2020-10-14
          program call               : xtb acid_126.xyz --opt --chrg 0 --uhf 0 --gfn 2
          number of atoms            :                    54
          number of electrons        :                   182
          charge                     :                     0
          spin                       :                   0.0

   ID    Z sym.   atoms
    1    6 C      1-14, 16-18, 20, 21, 24, 25, 29-31, 33, 34
    2    7 N      15, 28
    3   35 Br     19, 32
    4    8 O      22, 23, 26, 27, 35, 36
    5    1 H      37-54

          :  Hamiltonian                  GFN2-xTB          :
 * total energy  :  -103.2509917 Eh     change       -0.8744934E-09 Eh
 * total energy  :  -103.2660302 Eh     change       -0.1503850E-01 Eh
 * total energy  :  -103.2702007 Eh     change       -0.4170434E-02 Eh
 * total energy  :  -103.2719180 Eh     change       -0.1717350E-02 Eh
 * total energy  :  -103.2729208 Eh     change       -0.1002803E-02 Eh
 * total energy  :  -103.2737483 Eh     change       -0.8274483E-03 Eh
 * total energy  :  -103.2742649 Eh     change       -0.5166092E-03 Eh
 * total energy  :  -103.2748889 Eh     change       -0.6240306E-03 Eh
 * total energy  :  -103.2755698 Eh     change       -0.6808585E-03 Eh
 * total energy  :  -103.2764899 Eh     change       -0.9201125E-03 Eh
 * total energy  :  -103.2866253 Eh     change       -0.2705379E-04 Eh
 * total energy  :  -103.2866391 Eh     change       -0.1380455E-04 Eh
 * total energy  :  -103.2866531 Eh     change       -0.1402875E-04 Eh
 * total energy  :  -103.2866659 Eh     change       -0.1273531E-04 Eh
 * total energy  :  -103.2866753 Eh     change       -0.9385585E-05 Eh
 * total energy  :  -103.2866836 Eh     change       -0.8386194E-05 Eh
 * total energy  :  -103.2866916 Eh     change       -0.7934438E-05 Eh
 * total energy  :  -103.2866970 Eh     change       -0.5400112E-05 Eh
 * total energy  :  -103.2866998 Eh     change       -0.2769220E-05 Eh
   *** GEOMETRY OPTIMIZATION CONVERGED AFTER 75 ITERATIONS ***

 final structure:
================
54
 xtb: 6.3.3 (4ae9cef)
C         1.31057113791971    2.19295133749509   -1.97953936540457
C         1.58384137819688    2.81617018157651   -3.18732468631417
C         0.58908092317609    3.50039390477009   -3.86022426848356
C        -0.68012196128293    3.57953177618618   -3.30997884375210
C        -0.95379129335325    2.96211183955113   -2.10450749841177
C         0.03512632198318    2.24789701177593   -1.43443123956802
C        -0.32987020177236    1.57890928083310   -0.12334361696304
C        -1.50014036768756    0.59541958074082   -0.28321342459233
C        -2.46775184723491    0.55450986497550    0.87567513778521
C        -3.82706177096069    0.43547319886117    0.61720445176067
C        -4.73144621213193    0.34201883197981    1.65982356493398
C        -4.28432460532591    0.36093996393384    2.96969645106964
C        -2.93007529717906    0.47354180646216    3.23328198538979
C        -2.02382494366394    0.56850167133844    2.19234452122808
N        -0.81730129946757   -0.69137457932392   -0.40228200733190
C        -1.36468885894727   -1.72607857229498   -1.08818586847654
C        -0.61260535463182   -3.00650271668546   -0.94880912574947
C        -0.40763060098538   -3.79965309475556    0.15336087005805
Br       -0.97617631351401   -3.43825444361193    1.90104448311680
C         0.29063419951480   -4.94735244208095   -0.28781394585853
C         0.45464156987136   -4.76672047343148   -1.62648550562097
O        -0.09544078642296   -3.61560470323560   -2.03019963727334
O        -2.37829342481125   -1.61601088566063   -1.73980647016689
C         0.46925407081387   -0.67177436937987    0.24901688803367
C         1.54633094273567   -1.33251956321428   -0.65751318770266
O         1.58854042216888   -0.86562560749571   -1.89847519267258
O         2.28950803899559   -2.18334369632343   -0.26397371953672
N         0.73039220224120    0.74209303454147    0.42702160564014
C         1.76272144315480    1.31407668640562    1.10996385440721
C         2.76783837231426    0.40477323701285    1.68855558012350
C         4.11671580604574    0.63302662553354    1.84522979521909
Br        5.06194156821367    2.13902425678644    1.28329372018595
C         4.65746653309966   -0.51440565112537    2.47123840356067
C         3.59948227367927   -1.34768487308575    2.66619879651336
O         2.46671974097805   -0.80841379341685    2.20287679885636
O         1.86903937424611    2.52016138609659    1.19714914327925
H         2.11734063508521    1.70306253266442   -1.45506524192603
H         2.58215955382787    2.76647980454797   -3.59397462642445
H         0.80296190987284    3.98277251900511   -4.80156758278297
H        -1.45822653580902    4.12869587826878   -3.81811660767552
H        -1.93969265487694    3.04387836382003   -1.67038394626164
H        -0.56086023157926    2.36362079039881    0.60709474222542
H        -2.05479756149588    0.76155094988261   -1.21171492477292
H        -4.17361990999671    0.40329790825525   -0.40498654103373
H        -5.78586866967100    0.24966925404470    1.44741081885752
H        -4.98888420220061    0.28458645739272    3.78402354418024
H        -2.57515696525722    0.48351846937015    4.25262081067786
H        -0.97107636643852    0.65618525592909    2.41626683613884
H         0.61661463233710   -5.76768617803197    0.31613269815780
H         0.93760029077791   -5.36647018251433   -2.37150358795287
H         0.46159564631141   -1.19495104043796    1.21716653789900
H         0.96939226697889   -0.13342805180849   -2.07028251872668
H         5.68294856971279   -0.67446993032854    2.73003479910548
H         3.52826841244855   -2.32052081219396    3.10997934303043

          :  Hamiltonian                  GFN2-xTB          :
         :: total energy            -103.286699754520 Eh    ::
         :: gradient norm              0.000355970948 Eh/a0 ::
         :: HOMO-LUMO gap              3.366481700607 eV    ::
         :: SCC energy              -104.611591208381 Eh    ::
         :: -> dispersion             -0.083302700121 Eh    ::
         :: repulsion energy           1.322373064676 Eh    ::

    * Orbital Energies and Occupations

         #    Occupation            Energy/Eh            Energy/eV
      -------------------------------------------------------------
         1        2.0000           -0.8564828             -23.3061
       ...           ...                  ...                  ...
        79        2.0000           -0.4379966             -11.9185
        80        2.0000           -0.4366841             -11.8828
        81        2.0000           -0.4319751             -11.7546
        82        2.0000           -0.4288307             -11.6691
        83        2.0000           -0.4282221             -11.6525
        84        2.0000           -0.4269039             -11.6166
        85        2.0000           -0.4259549             -11.5908
        86        2.0000           -0.4203947             -11.4395
        87        2.0000           -0.4180312             -11.3752
        88        2.0000           -0.4165788             -11.3357
        89        2.0000           -0.4150603             -11.2944
        90        2.0000           -0.4130980             -11.2410
        91        2.0000           -0.4084999             -11.1158 (HOMO)
        92                         -0.2847840              -7.7494 (LUMO)
        93                         -0.2831050              -7.7037
        94                         -0.2695271              -7.3342
        95                         -0.2483331              -6.7575
        96                         -0.2453436              -6.6761
        97                         -0.2420247              -6.5858
        98                         -0.2384530              -6.4886
        99                         -0.2332391              -6.3468
       100                         -0.2205453              -6.0013
       101                         -0.2184106              -5.9433
       102                         -0.2074689              -5.6455
       ...                                ...                  ...
       172                          0.6712963              18.2669
      -------------------------------------------------------------
                  HL-Gap            0.1237159 Eh            3.3665 eV

     #   Z          covCN         q      C6AA      Î±(0)
     1   6 C        2.922    -0.038    28.951     8.824
     2   6 C        2.920    -0.025    28.631     8.775
     3   6 C        2.920    -0.027    28.672     8.781
     4   6 C        2.920    -0.024    28.607     8.771
     5   6 C        2.925    -0.037    28.920     8.819
     6   6 C        2.970    -0.004    28.123     8.699
     7   6 C        3.825     0.039    19.904     6.348
     8   6 C        3.827     0.036    19.946     6.355
     9   6 C        2.973    -0.002    28.062     8.689
    10   6 C        2.924    -0.031    28.775     8.797
    11   6 C        2.920    -0.025    28.619     8.773
    12   6 C        2.920    -0.025    28.639     8.776
    13   6 C        2.920    -0.025    28.638     8.776
    14   6 C        2.922    -0.033    28.814     8.803
    15   7 N        2.773    -0.122    23.657     7.224
    16   6 C        2.755     0.268    22.473     7.763
    17   6 C        3.151     0.069    26.177     8.368
    18   6 C        3.033     0.051    26.825     8.495
    19  35 Br       1.001    -0.139   188.857    22.158
    20   6 C        3.031    -0.061    29.483     8.906
    21   6 C        3.085     0.082    26.088     8.373
    22   8 O        1.732    -0.152    16.592     5.500
    23   8 O        0.859    -0.397    21.618     6.234
    24   6 C        3.747     0.071    19.463     6.293
    25   6 C        2.686     0.348    21.081     7.514
    26   8 O        1.659    -0.348    19.874     6.018
    27   8 O        0.856    -0.361    20.912     6.131
    28   7 N        2.766    -0.123    23.671     7.226
    29   6 C        2.757     0.265    22.528     7.772
    30   6 C        3.141     0.068    26.255     8.385
    31   6 C        3.028     0.068    26.447     8.435
    32  35 Br       1.005    -0.111   188.065    22.111
    33   6 C        3.033    -0.064    29.569     8.919
    34   6 C        3.073     0.087    25.990     8.359
    35   8 O        1.731    -0.173    16.910     5.552
    36   8 O        0.860    -0.405    21.771     6.256
    37   1 H        0.926     0.037     2.494     2.470
    38   1 H        0.926     0.046     2.374     2.410
    39   1 H        0.926     0.043     2.412     2.429
    40   1 H        0.926     0.043     2.410     2.428
    41   1 H        0.926     0.036     2.500     2.473
    42   1 H        0.924     0.085     1.933     2.174
    43   1 H        0.924     0.077     2.006     2.215
    44   1 H        0.926     0.046     2.364     2.404
    45   1 H        0.926     0.042     2.417     2.431
    46   1 H        0.926     0.041     2.432     2.439
    47   1 H        0.926     0.042     2.425     2.435
    48   1 H        0.926     0.032     2.555     2.500
    49   1 H        0.927     0.071     2.070     2.250
    50   1 H        0.926     0.078     2.001     2.212
    51   1 H        0.923     0.087     1.906     2.159
    52   1 H        0.804     0.342     0.607     1.224
    53   1 H        0.927     0.073     2.054     2.241
    54   1 H        0.926     0.079     1.987     2.204

Wiberg/Mayer (AO) data.
largest (>0.10) Wiberg bond orders for each atom

     #   Z sym  total        # sym  WBO       # sym  WBO       # sym  WBO
 ---------------------------------------------------------------------------
     1   6 C    3.991 --     2 C    1.427     6 C    1.421    37 H    0.963
                             4 C    0.108
     2   6 C    3.991 --     3 C    1.450     1 C    1.427    38 H    0.970
                             5 C    0.113
     3   6 C    3.991 --     2 C    1.450     4 C    1.429    39 H    0.971
                             6 C    0.109
     4   6 C    3.991 --     5 C    1.455     3 C    1.429    40 H    0.970
                             1 C    0.108
     5   6 C    3.991 --     4 C    1.455     6 C    1.400    41 H    0.968
                             2 C    0.113
     6   6 C    3.984 --     1 C    1.421     5 C    1.400     7 C    0.982
                             3 C    0.109
     7   6 C    3.958 --     6 C    0.982     8 C    0.966    28 N    0.961
                            42 H    0.942
     8   6 C    3.953 --     9 C    0.982     7 C    0.966    43 H    0.951
                            15 N    0.942
     9   6 C    3.983 --    14 C    1.414    10 C    1.413     8 C    0.982
                            12 C    0.109
    10   6 C    3.989 --    11 C    1.443     9 C    1.413    44 H    0.967
                            13 C    0.111
    11   6 C    3.991 --    10 C    1.443    12 C    1.440    45 H    0.970
                            14 C    0.112
    12   6 C    3.990 --    11 C    1.440    13 C    1.438    46 H    0.971
                             9 C    0.109
    13   6 C    3.992 --    14 C    1.445    12 C    1.438    47 H    0.970
                            10 C    0.111
    14   6 C    3.992 --    13 C    1.445     9 C    1.414    48 H    0.968
                            11 C    0.112
    15   7 N    3.475 --    16 C    1.214    24 C    0.984     8 C    0.942
                            23 O    0.202
    16   6 C    3.960 --    23 O    1.696    15 N    1.214    17 C    0.962
    17   6 C    3.907 --    18 C    1.498    22 O    1.126    16 C    0.962
                            21 C    0.141
    18   6 C    3.929 --    17 C    1.498    20 C    1.281    19 Br   1.003
    19  35 Br   1.142 --    18 C    1.003
    20   6 C    3.979 --    21 C    1.593    18 C    1.281    49 H    0.971
    21   6 C    3.905 --    20 C    1.593    22 O    1.150    50 H    0.962
                            17 C    0.141
    22   8 O    2.475 --    21 C    1.150    17 C    1.126
    23   8 O    2.043 --    16 C    1.696    15 N    0.202
    24   6 C    3.959 --    15 N    0.984    28 N    0.980    51 H    0.935
                            25 C    0.898
    25   6 C    3.925 --    27 O    1.789    26 O    1.168    24 C    0.898
    26   8 O    2.243 --    25 C    1.168    52 H    0.840    27 O    0.175
    27   8 O    2.081 --    25 C    1.789    26 O    0.175
    28   7 N    3.458 --    29 C    1.187    24 C    0.980     7 C    0.961
                            36 O    0.189
    29   6 C    3.961 --    36 O    1.671    28 N    1.187    30 C    1.012
    30   6 C    3.902 --    31 C    1.482    35 O    1.102    29 C    1.012
                            34 C    0.136
    31   6 C    3.941 --    30 C    1.482    33 C    1.283    32 Br   1.025
    32  35 Br   1.172 --    31 C    1.025
    33   6 C    3.979 --    34 C    1.590    31 C    1.283    53 H    0.971
    34   6 C    3.908 --    33 C    1.590    35 O    1.150    54 H    0.961
                            30 C    0.136
    35   8 O    2.457 --    34 C    1.150    30 C    1.102
    36   8 O    2.030 --    29 C    1.671    28 N    0.189
    37   1 H    0.999 --     1 C    0.963
    38   1 H    0.998 --     2 C    0.970
    39   1 H    0.998 --     3 C    0.971
    40   1 H    0.998 --     4 C    0.970
    41   1 H    0.999 --     5 C    0.968
    42   1 H    0.992 --     7 C    0.942
    43   1 H    0.993 --     8 C    0.951
    44   1 H    0.998 --    10 C    0.967
    45   1 H    0.998 --    11 C    0.970
    46   1 H    0.998 --    12 C    0.971
    47   1 H    0.998 --    13 C    0.970
    48   1 H    0.999 --    14 C    0.968
    49   1 H    0.994 --    20 C    0.971
    50   1 H    0.993 --    21 C    0.962
    51   1 H    0.992 --    24 C    0.935
    52   1 H    0.883 --    26 O    0.840
    53   1 H    0.994 --    33 C    0.971
    54   1 H    0.993 --    34 C    0.961
 ---------------------------------------------------------------------------

molecular dipole:
                 x           y           z       tot (Debye)
 q only:       -0.477      -0.290      -0.050
   full:       -0.821      -0.821      -0.257       3.022

           -------------------------------------------------
          | TOTAL ENERGY             -103.286699754520 Eh   |
          | GRADIENT NORM               0.000355970948 Eh/Î± |
          | HOMO-LUMO GAP               3.366481700607 eV   |
           -------------------------------------------------

 * finished run on 2022/03/16 at 21:36:41.820
