   * xtb version 6.3.3 (4ae9cef) compiled by 'conda@95abc7406d43' on 2020-10-14
          program call               : xtb acid_457.xyz --opt --chrg 0 --uhf 0 --gfn 2
          number of atoms            :                    72
          number of electrons        :                   242
          charge                     :                     0
          spin                       :                   0.0

   ID    Z sym.   atoms
    1    6 C      1, 2, 6-15, 19-22, 24-27, 29-31, 33, 34, 38-41, 43-45
    2    9 F      3-5, 16-18
    3    7 N      23, 37
    4    8 O      28, 32, 35, 36, 42, 46
    5    1 H      47-72

          :  Hamiltonian                  GFN2-xTB          :
 * total energy  :  -140.5001865 Eh     change       -0.2725614E-08 Eh
 * total energy  :  -140.5157397 Eh     change       -0.1555319E-01 Eh
 * total energy  :  -140.5207617 Eh     change       -0.5022057E-02 Eh
 * total energy  :  -140.5223515 Eh     change       -0.1589793E-02 Eh
 * total energy  :  -140.5235225 Eh     change       -0.1171001E-02 Eh
 * total energy  :  -140.5241700 Eh     change       -0.6475113E-03 Eh
 * total energy  :  -140.5246615 Eh     change       -0.4914394E-03 Eh
 * total energy  :  -140.5251948 Eh     change       -0.5333814E-03 Eh
 * total energy  :  -140.5257537 Eh     change       -0.5588217E-03 Eh
 * total energy  :  -140.5262012 Eh     change       -0.4475827E-03 Eh
 * total energy  :  -140.5320027 Eh     change       -0.1334843E-04 Eh
 * total energy  :  -140.5320110 Eh     change       -0.8265840E-05 Eh
 * total energy  :  -140.5320134 Eh     change       -0.2457498E-05 Eh
 * total energy  :  -140.5320120 Eh     change        0.1470134E-05 Eh
 * total energy  :  -140.5320184 Eh     change       -0.6451875E-05 Eh
 * total energy  :  -140.5320256 Eh     change       -0.7158161E-05 Eh
 * total energy  :  -140.5320290 Eh     change       -0.3382257E-05 Eh
 * total energy  :  -140.5320379 Eh     change       -0.8903650E-05 Eh
 * total energy  :  -140.5320419 Eh     change       -0.4069718E-05 Eh
   *** GEOMETRY OPTIMIZATION CONVERGED AFTER 50 ITERATIONS ***

 final structure:
================
72
 xtb: 6.3.3 (4ae9cef)
C         1.57501420194261   -3.47354712785208   -0.58393212110258
C         0.61132824583043   -3.87450601434600   -1.66501420020636
F         0.61418573302312   -3.05650604892843   -2.73316767373220
F        -0.67086302489283   -3.89178040365526   -1.22887406145095
F         0.84140202915687   -5.10168232225694   -2.14691427615868
C         2.54330821436321   -4.38921261363468   -0.18934502870551
C         3.43623915226218   -4.07096806620422    0.81499105909967
C         3.36009652834494   -2.83601462901820    1.43435136930541
C         2.39525064498700   -1.92842205425826    1.04594119924826
C         1.49319251226480   -2.22395541575605    0.03015608700997
C         0.45770327064847   -1.19466050100536   -0.33510128257771
C        -0.57607501698209   -0.96401149494544    0.79188884524897
C        -1.79536592719923   -1.83619342578935    0.64492328859501
C        -2.10000448596593   -2.86919120482369    1.53178219424697
C        -1.20749974268477   -3.18436465773125    2.69891451260358
F         0.04078499475874   -3.53895120273443    2.30885613666753
F        -1.65215759580288   -4.20369421046737    3.44283885741313
F        -1.03640509203502   -2.15712627265960    3.55100337759511
C        -3.23293559916096   -3.65097363502558    1.33936388525351
C        -4.07042135526408   -3.41362879531308    0.26736819208752
C        -3.77147394073300   -2.39816886925452   -0.62359590654672
C        -2.64352385685403   -1.62453714377806   -0.43625848374962
N        -0.89175992004482    0.45366192569992    0.64690178511338
C        -2.03428206622168    1.01773760654512    1.12661403476555
C        -2.20695702563199    2.43980758717776    0.74043254208131
C        -3.18015756379032    2.89719206920232   -0.11091363959667
C        -4.24051401010406    2.16693233505071   -0.85252645144808
O        -3.08239430644117    4.23098608656174   -0.24450461655858
C        -2.06845825684758    4.64292402445039    0.53875975012569
C        -1.48363749134431    3.59358407345312    1.17957990716551
C        -0.36435127514158    3.64518262754375    2.16303070944893
O        -2.84646936574164    0.38995278251465    1.77083229450506
C         0.09891747168815    1.15094936868536   -0.13380246997288
C        -0.49041844091502    1.76846409547201   -1.41918285957045
O        -1.25336717805399    0.90364627304131   -2.08353140156588
O        -0.23725302245997    2.87207563883790   -1.81280931917249
N         1.05735233365277    0.12681103633630   -0.47256794004541
C         2.22080226314486    0.33664368943678   -1.16240888923605
C         2.68990621682607    1.73905288033488   -1.13783664424082
C         2.83861373043895    2.57361661194955   -2.21321120409794
C         2.51610841303529    2.37113691896313   -3.64736467881652
O         3.31835997811877    3.76122650719704   -1.80910809650323
C         3.50528384373243    3.69238897702288   -0.47761056989182
C         3.14015722986875    2.47441941158311    0.00688502263959
C         3.27287669408678    1.97746113064632    1.40504161016637
O         2.81668962007174   -0.57052435987074   -1.70054407077365
H         2.59495467714931   -5.35168254991246   -0.67379916602057
H         4.18657975532191   -4.78662899443916    1.11203611748766
H         4.05170203374030   -2.58028175413005    2.22250757582748
H         2.34199325466480   -0.96529723593986    1.52990672383879
H        -0.06581531744131   -1.45623169329388   -1.26068177515069
H        -0.09425327978159   -1.11525076732841    1.76350086651416
H        -3.45647774994125   -4.44493756926635    2.03459628426535
H        -4.95050362555800   -4.02178964142808    0.12933564569248
H        -4.41775535204966   -2.20937600303487   -1.46738200785526
H        -2.41504640810379   -0.83309652730579   -1.13286504085680
H        -5.21371788351326    2.59808343383202   -0.62393047093330
H        -4.08736656704114    2.24367610660532   -1.92907456085293
H        -4.23690701332863    1.12255926273279   -0.55365975088468
H        -1.85870737445292    5.69313032763655    0.56020752871214
H         0.57738893982733    3.88340243592250    1.66701787489932
H        -0.55341846058037    4.42270707357780    2.90042043009369
H        -0.26992261874615    2.69426935839635    2.68205452208071
H         0.57341360807110    1.97029751688669    0.42058877912581
H        -1.56836106913369    1.28419600008140   -2.91999222923818
H         3.28268518541265    2.82909811534662   -4.26809244172762
H         2.46050705844767    1.30738176082820   -3.86157849613801
H         1.56063743357073    2.83997092801371   -3.88445855302322
H         3.90688709293593    4.55866295650701    0.00898191961488
H         2.32659398446695    1.60505870865956    1.79490904023721
H         3.62425237972606    2.77782468194607    2.05123246858625
H         3.99382455441261    1.16102788070604    1.43788194103398

          :  Hamiltonian                  GFN2-xTB          :
         :: total energy            -140.532041930680 Eh    ::
         :: gradient norm              0.000801979311 Eh/a0 ::
         :: HOMO-LUMO gap              3.071560442476 eV    ::
         :: SCC energy              -142.131150997837 Eh    ::
         :: -> dispersion             -0.106134611422 Eh    ::
         :: repulsion energy           1.594196557120 Eh    ::

    * Orbital Energies and Occupations

         #    Occupation            Energy/Eh            Energy/eV
      -------------------------------------------------------------
         1        2.0000           -0.8773104             -23.8728
       ...           ...                  ...                  ...
       109        2.0000           -0.4503638             -12.2550
       110        2.0000           -0.4371610             -11.8958
       111        2.0000           -0.4365943             -11.8803
       112        2.0000           -0.4336174             -11.7993
       113        2.0000           -0.4326605             -11.7733
       114        2.0000           -0.4268710             -11.6158
       115        2.0000           -0.4243313             -11.5466
       116        2.0000           -0.4203635             -11.4387
       117        2.0000           -0.4092128             -11.1352
       118        2.0000           -0.4068351             -11.0705
       119        2.0000           -0.4063213             -11.0566
       120        2.0000           -0.3937171             -10.7136
       121        2.0000           -0.3917861             -10.6610 (HOMO)
       122                         -0.2789083              -7.5895 (LUMO)
       123                         -0.2636468              -7.1742
       124                         -0.2593224              -7.0565
       125                         -0.2535416              -6.8992
       126                         -0.2502176              -6.8088
       127                         -0.2398646              -6.5270
       128                         -0.2358791              -6.4186
       129                         -0.2175609              -5.9201
       130                         -0.2141252              -5.8266
       131                         -0.1708883              -4.6501
       132                         -0.1693610              -4.6085
       ...                                ...                  ...
       210                          0.6739946              18.3403
      -------------------------------------------------------------
                  HL-Gap            0.1128778 Eh            3.0716 eV

     #   Z          covCN         q      C6AA      Î±(0)
     1   6 C        2.977    -0.024    28.604     8.773
     2   6 C        3.336     0.486    17.296     6.587
     3   9 F        0.791    -0.206    11.299     3.971
     4   9 F        0.791    -0.224    11.486     4.003
     5   9 F        0.792    -0.200    11.237     3.960
     6   6 C        2.923    -0.019    28.476     8.751
     7   6 C        2.920    -0.020    28.498     8.754
     8   6 C        2.919    -0.015    28.382     8.736
     9   6 C        2.928    -0.021    28.533     8.760
    10   6 C        2.972     0.027    27.400     8.586
    11   6 C        3.829     0.047    19.767     6.326
    12   6 C        3.824     0.046    19.780     6.329
    13   6 C        2.971     0.027    27.394     8.585
    14   6 C        2.977    -0.025    28.618     8.775
    15   6 C        3.336     0.485    17.300     6.588
    16   9 F        0.791    -0.225    11.494     4.005
    17   9 F        0.792    -0.200    11.232     3.959
    18   9 F        0.791    -0.206    11.301     3.971
    19   6 C        2.924    -0.019    28.479     8.752
    20   6 C        2.920    -0.020    28.504     8.755
    21   6 C        2.919    -0.016    28.410     8.741
    22   6 C        2.927    -0.025    28.616     8.773
    23   7 N        2.769    -0.115    23.500     7.200
    24   6 C        2.757     0.275    22.353     7.742
    25   6 C        3.082    -0.080    29.891     8.963
    26   6 C        3.093     0.118    25.310     8.246
    27   6 C        3.753    -0.117    22.806     6.810
    28   8 O        1.729    -0.180    17.020     5.570
    29   6 C        3.066     0.056    26.679     8.470
    30   6 C        3.045    -0.017    28.401     8.741
    31   6 C        3.753    -0.109    22.650     6.786
    32   8 O        0.859    -0.418    22.053     6.296
    33   6 C        3.760     0.083    19.245     6.254
    34   6 C        2.688     0.348    21.087     7.515
    35   8 O        1.659    -0.359    20.068     6.048
    36   8 O        0.856    -0.388    21.445     6.209
    37   7 N        2.772    -0.120    23.605     7.216
    38   6 C        2.756     0.276    22.336     7.739
    39   6 C        3.082    -0.080    29.891     8.963
    40   6 C        3.091     0.127    25.122     8.215
    41   6 C        3.753    -0.120    22.849     6.816
    42   8 O        1.730    -0.177    16.973     5.563
    43   6 C        3.065     0.052    26.777     8.485
    44   6 C        3.045    -0.020    28.474     8.752
    45   6 C        3.754    -0.107    22.600     6.779
    46   8 O        0.859    -0.415    21.985     6.287
    47   1 H        0.926     0.068     2.106     2.269
    48   1 H        0.926     0.059     2.213     2.326
    49   1 H        0.926     0.057     2.238     2.339
    50   1 H        0.926     0.052     2.290     2.366
    51   1 H        0.924     0.065     2.143     2.290
    52   1 H        0.924     0.063     2.163     2.300
    53   1 H        0.926     0.068     2.111     2.272
    54   1 H        0.926     0.058     2.224     2.332
    55   1 H        0.926     0.054     2.269     2.356
    56   1 H        0.926     0.060     2.194     2.316
    57   1 H        0.925     0.072     2.059     2.244
    58   1 H        0.925     0.056     2.242     2.341
    59   1 H        0.925     0.065     2.145     2.290
    60   1 H        0.926     0.058     2.228     2.334
    61   1 H        0.924     0.049     2.330     2.387
    62   1 H        0.925     0.056     2.241     2.341
    63   1 H        0.925     0.047     2.354     2.400
    64   1 H        0.924     0.084     1.941     2.179
    65   1 H        0.804     0.343     0.605     1.222
    66   1 H        0.925     0.071     2.077     2.254
    67   1 H        0.925     0.064     2.150     2.293
    68   1 H        0.924     0.068     2.104     2.268
    69   1 H        0.926     0.053     2.284     2.363
    70   1 H        0.925     0.041     2.437     2.441
    71   1 H        0.925     0.048     2.341     2.393
    72   1 H        0.925     0.055     2.256     2.349

Wiberg/Mayer (AO) data.
largest (>0.10) Wiberg bond orders for each atom

     #   Z sym  total        # sym  WBO       # sym  WBO       # sym  WBO
 ---------------------------------------------------------------------------
     1   6 C    3.969 --     6 C    1.411    10 C    1.387     2 C    0.952
                             8 C    0.104
     2   6 C    3.820 --     5 F    0.957     1 C    0.952     3 F    0.944
                             4 F    0.928
     3   9 F    1.074 --     2 C    0.944
     4   9 F    1.055 --     2 C    0.928
     5   9 F    1.079 --     2 C    0.957
     6   6 C    3.987 --     7 C    1.445     1 C    1.411    47 H    0.966
                             9 C    0.109
     7   6 C    3.988 --     6 C    1.445     8 C    1.431    48 H    0.969
                            10 C    0.108
     8   6 C    3.990 --     9 C    1.451     7 C    1.431    49 H    0.969
                             1 C    0.104
     9   6 C    3.990 --     8 C    1.451    10 C    1.406    50 H    0.964
                             6 C    0.109
    10   6 C    3.986 --     9 C    1.406     1 C    1.387    11 C    0.997
                             7 C    0.108
    11   6 C    3.968 --    10 C    0.997    37 N    0.958    51 H    0.951
                            12 C    0.947
    12   6 C    3.968 --    13 C    0.997    23 N    0.956    52 H    0.952
                            11 C    0.947
    13   6 C    3.986 --    22 C    1.406    14 C    1.386    12 C    0.997
                            20 C    0.108
    14   6 C    3.969 --    19 C    1.411    13 C    1.386    15 C    0.952
                            21 C    0.104
    15   6 C    3.820 --    17 F    0.957    14 C    0.952    18 F    0.944
                            16 F    0.927
    16   9 F    1.054 --    15 C    0.927
    17   9 F    1.080 --    15 C    0.957
    18   9 F    1.074 --    15 C    0.944
    19   6 C    3.987 --    20 C    1.445    14 C    1.411    53 H    0.966
                            22 C    0.109
    20   6 C    3.988 --    19 C    1.445    21 C    1.431    54 H    0.969
                            13 C    0.108
    21   6 C    3.990 --    22 C    1.451    20 C    1.431    55 H    0.969
                            14 C    0.104
    22   6 C    3.989 --    21 C    1.451    13 C    1.406    56 H    0.960
                            19 C    0.109
    23   7 N    3.456 --    24 C    1.196    33 C    0.988    12 C    0.956
                            32 O    0.190
    24   6 C    3.946 --    32 O    1.694    23 N    1.196    25 C    0.975
    25   6 C    3.969 --    26 C    1.521    30 C    1.224    24 C    0.975
    26   6 C    3.916 --    25 C    1.521    28 O    1.134    27 C    1.031
                            29 C    0.136
    27   6 C    3.992 --    26 C    1.031    59 H    0.981    58 H    0.968
                            57 H    0.968
    28   8 O    2.445 --    26 C    1.134    29 C    1.118
    29   6 C    3.900 --    30 C    1.594    28 O    1.118    60 H    0.965
                            26 C    0.136
    30   6 C    3.981 --    29 C    1.594    25 C    1.224    31 C    1.029
    31   6 C    3.996 --    30 C    1.029    63 H    0.984    62 H    0.975
                            61 H    0.968
    32   8 O    2.029 --    24 C    1.694    23 N    0.190
    33   6 C    3.967 --    23 N    0.988    37 N    0.983    64 H    0.935
                            34 C    0.908
    34   6 C    3.920 --    36 O    1.777    35 O    1.150    33 C    0.908
    35   8 O    2.223 --    34 C    1.150    65 H    0.855    36 O    0.180
    36   8 O    2.061 --    34 C    1.777    35 O    0.180
    37   7 N    3.440 --    38 C    1.173    33 C    0.983    11 C    0.958
                            46 O    0.180
    38   6 C    3.942 --    46 O    1.704    37 N    1.173    39 C    0.983
    39   6 C    3.967 --    40 C    1.532    44 C    1.216    38 C    0.983
    40   6 C    3.919 --    39 C    1.532    42 O    1.137    41 C    1.032
                            43 C    0.131
    41   6 C    3.992 --    40 C    1.032    67 H    0.980    66 H    0.973
                            68 H    0.962
    42   8 O    2.447 --    40 C    1.137    43 C    1.116
    43   6 C    3.899 --    44 C    1.594    42 O    1.116    69 H    0.965
                            40 C    0.131
    44   6 C    3.980 --    43 C    1.594    39 C    1.216    45 C    1.031
    45   6 C    3.996 --    44 C    1.031    71 H    0.984    70 H    0.971
                            72 H    0.970
    46   8 O    2.033 --    38 C    1.704    37 N    0.180
    47   1 H    0.995 --     6 C    0.966
    48   1 H    0.996 --     7 C    0.969
    49   1 H    0.996 --     8 C    0.969
    50   1 H    0.997 --     9 C    0.964
    51   1 H    0.995 --    11 C    0.951
    52   1 H    0.995 --    12 C    0.952
    53   1 H    0.995 --    19 C    0.966
    54   1 H    0.996 --    20 C    0.969
    55   1 H    0.996 --    21 C    0.969
    56   1 H    0.996 --    22 C    0.960
    57   1 H    0.994 --    27 C    0.968
    58   1 H    0.997 --    27 C    0.968
    59   1 H    0.996 --    27 C    0.981
    60   1 H    0.996 --    29 C    0.965
    61   1 H    0.997 --    31 C    0.968
    62   1 H    0.996 --    31 C    0.975
    63   1 H    0.998 --    31 C    0.984
    64   1 H    0.992 --    33 C    0.935
    65   1 H    0.882 --    35 O    0.855
    66   1 H    0.995 --    41 C    0.973
    67   1 H    0.996 --    41 C    0.980
    68   1 H    0.995 --    41 C    0.962
    69   1 H    0.996 --    43 C    0.965
    70   1 H    0.998 --    45 C    0.971
    71   1 H    0.997 --    45 C    0.984
    72   1 H    0.997 --    45 C    0.970
 ---------------------------------------------------------------------------

molecular dipole:
                 x           y           z       tot (Debye)
 q only:       -0.053       0.922      -0.307
   full:       -0.082       1.266      -0.458       3.428

           -------------------------------------------------
          | TOTAL ENERGY             -140.532041930680 Eh   |
          | GRADIENT NORM               0.000801979311 Eh/Î± |
          | HOMO-LUMO GAP               3.071560442476 eV   |
           -------------------------------------------------

 * finished run on 2022/03/17 at 01:26:19.300
