   * xtb version 6.3.3 (4ae9cef) compiled by 'conda@95abc7406d43' on 2020-10-14
          program call               : xtb acid_184.xyz --opt --chrg 0 --uhf 0 --gfn 2
          number of atoms            :                    72
          number of electrons        :                   226
          charge                     :                     0
          spin                       :                   0.0

   ID    Z sym.   atoms
    1    6 C      1-22, 24-29, 31, 33, 34, 38-41, 43-45
    2    7 N      23, 37
    3   53 I      30, 42
    4    8 O      32, 35, 36, 46
    5    1 H      47-72

          :  Hamiltonian                  GFN2-xTB          :
 * total energy  :  -124.3817418 Eh     change       -0.1498478E-08 Eh
 * total energy  :  -124.3991913 Eh     change       -0.1744951E-01 Eh
 * total energy  :  -124.4044897 Eh     change       -0.5298400E-02 Eh
 * total energy  :  -124.4062449 Eh     change       -0.1755243E-02 Eh
 * total energy  :  -124.4075981 Eh     change       -0.1353206E-02 Eh
 * total energy  :  -124.4083652 Eh     change       -0.7671105E-03 Eh
 * total energy  :  -124.4090212 Eh     change       -0.6559290E-03 Eh
 * total energy  :  -124.4096927 Eh     change       -0.6715387E-03 Eh
 * total energy  :  -124.4102221 Eh     change       -0.5294184E-03 Eh
 * total energy  :  -124.4105911 Eh     change       -0.3689922E-03 Eh
 * total energy  :  -124.4281276 Eh     change       -0.1210013E-04 Eh
 * total energy  :  -124.4281383 Eh     change       -0.1064827E-04 Eh
 * total energy  :  -124.4281485 Eh     change       -0.1025218E-04 Eh
 * total energy  :  -124.4281596 Eh     change       -0.1111079E-04 Eh
 * total energy  :  -124.4281718 Eh     change       -0.1216344E-04 Eh
 * total energy  :  -124.4281833 Eh     change       -0.1153916E-04 Eh
 * total energy  :  -124.4281928 Eh     change       -0.9464388E-05 Eh
 * total energy  :  -124.4281999 Eh     change       -0.7124790E-05 Eh
 * total energy  :  -124.4282031 Eh     change       -0.3210658E-05 Eh
   *** GEOMETRY OPTIMIZATION CONVERGED AFTER 152 ITERATIONS ***

 final structure:
================
72
 xtb: 6.3.3 (4ae9cef)
C         2.13570483048053    1.58800834415311   -0.59577562492498
C         2.70647292616290    2.82464579538246   -0.67866099649884
C         2.70339556530059    3.70031355377787    0.42772083243580
C         3.29147236893045    4.98066449838140    0.37538232816553
C         3.27096451005877    5.80321571533723    1.46692763068484
C         2.66009781550584    5.38388760905803    2.65917023181726
C         2.08097115026211    4.14865258895228    2.74117239740862
C         2.08848445862443    3.27517900491559    1.63393621367906
C         1.51410725795338    1.98949426259230    1.69245802177073
C         1.54163827221220    1.15678544169729    0.60745893357805
C         0.91541550146612   -0.21135513875467    0.66670627756570
C        -0.36708436476478   -0.28163557512514   -0.18581331703765
C        -1.61935288062481   -0.19155949193003    0.64249323567281
C        -2.44589378232196    0.89526674025432    0.54206064018776
C        -3.64461536140297    0.96766709510311    1.27856399499721
C        -4.53692875994805    2.05206480159521    1.14873477072015
C        -5.70806631372982    2.07774733304177    1.85247170102334
C        -6.03615866125414    1.02719224523966    2.72410377169459
C        -5.18977293986728   -0.03521987727064    2.87521937783455
C        -3.97891534143203   -0.09701127813717    2.15536432842041
C        -3.09538370099638   -1.19188767417867    2.26242325662162
C        -1.94857856355056   -1.24034272751310    1.52413512774502
N        -0.25221919371397   -1.55565596419216   -0.87987880931714
C        -1.11014641731690   -2.04221114591070   -1.81057975216794
C        -2.43960434951330   -1.35708746591426   -1.85493011342488
C        -2.60627591365023   -0.19958401221116   -2.60285899876547
C        -3.83781150445321    0.43168025752773   -2.62513104340879
C        -4.90220016338581   -0.08172002045165   -1.90454254789924
C        -4.72780993991710   -1.24968103103923   -1.18549430146369
I        -6.34685725253330   -2.05166389390192   -0.09498940434875
C        -3.51109859912890   -1.90223437714464   -1.16083083645018
O        -0.80833307665374   -2.98132226226569   -2.51854885263457
C         1.08785490360649   -2.10361355941224   -0.82251969395001
C         1.68105004075494   -2.09053151450616   -2.24816443520775
O         2.09532803015249   -3.28610530551973   -2.62939910353668
O         1.74554266019361   -1.09606954918906   -2.91698971562169
N         1.78233102948376   -1.23280090840357    0.08824764845977
C         3.09745627457866   -1.30124195436699    0.41844040878881
C         3.87597983628760   -2.30911169884423   -0.37165477126022
C         3.81204734404995   -3.66117227947331   -0.06549160411313
C         4.55380560908622   -4.55493500459044   -0.81401422451077
I         4.44310889858710   -6.61694749971881   -0.36554217932056
C         5.35913143452643   -4.12590641400108   -1.85340394014552
C         5.43203300582635   -2.77272864818412   -2.13795415132533
C         4.69789877219833   -1.86195570863422   -1.39881159890654
O         3.59839470430805   -0.58936399978673    1.25919712166043
H         2.14396364691124    0.92421041448140   -1.44944997750952
H         3.17253281635419    3.15029861665430   -1.59773981706050
H         3.76179572626463    5.29888135659750   -0.54424765615836
H         3.72599207139924    6.78183724191824    1.42112059664219
H         2.65387324857253    6.04687743658107    3.51194896766042
H         1.61177945369503    3.81996982655597    3.65742308322980
H         1.05853759313131    1.66482044612161    2.61727058675031
H         0.69989832543719   -0.47136609503836    1.71193894992830
H        -0.35587124310658    0.53688566998072   -0.91916761443965
H        -2.19603594242509    1.70830196348082   -0.12522857189811
H        -4.27753250923003    2.85724200084234    0.47618268427463
H        -6.39107717254975    2.90718563672096    1.74305330739445
H        -6.96666725230658    1.06358976827711    3.27016005228411
H        -5.44228283570782   -0.84986483124452    3.53785221277160
H        -3.35130155704515   -2.00012496481757    2.93200849251986
H        -1.28690538067815   -2.09169750823708    1.59552822756807
H        -1.77548861407535    0.20044113178666   -3.16483795791390
H        -3.97245921610803    1.33332244065437   -3.20320201793021
H        -5.85732463616803    0.42008552330954   -1.90965831586360
H        -3.38348490029154   -2.81801586633700   -0.60477697789103
H         1.05988494453363   -3.15002166144595   -0.47844711510091
H         2.36583270314775   -3.28598093719684   -3.56207720992466
H         3.19629354426121   -4.00493004875762    0.75192704040708
H         5.92897721381018   -4.83585881827024   -2.43276188394421
H         6.06663225308446   -2.43027390991015   -2.94133630666099
H         4.75285959693788   -0.80561614277176   -1.61389701078019

          :  Hamiltonian                  GFN2-xTB          :
         :: total energy            -124.428203140541 Eh    ::
         :: gradient norm              0.000375545115 Eh/a0 ::
         :: HOMO-LUMO gap              2.852741421768 eV    ::
         :: SCC energy              -126.355437413105 Eh    ::
         :: -> dispersion             -0.118446567063 Eh    ::
         :: repulsion energy           1.924418037476 Eh    ::

    * Orbital Energies and Occupations

         #    Occupation            Energy/Eh            Energy/eV
      -------------------------------------------------------------
         1        2.0000           -0.7750628             -21.0905
       ...           ...                  ...                  ...
       101        2.0000           -0.4224046             -11.4942
       102        2.0000           -0.4214355             -11.4678
       103        2.0000           -0.4200884             -11.4312
       104        2.0000           -0.4176951             -11.3661
       105        2.0000           -0.4169591             -11.3460
       106        2.0000           -0.4154579             -11.3052
       107        2.0000           -0.4114794             -11.1969
       108        2.0000           -0.4103908             -11.1673
       109        2.0000           -0.4079970             -11.1022
       110        2.0000           -0.4075095             -11.0889
       111        2.0000           -0.4020322             -10.9399
       112        2.0000           -0.3959918             -10.7755
       113        2.0000           -0.3843059             -10.4575 (HOMO)
       114                         -0.2794696              -7.6048 (LUMO)
       115                         -0.2725153              -7.4155
       116                         -0.2657304              -7.2309
       117                         -0.2622843              -7.1371
       118                         -0.2598760              -7.0716
       119                         -0.2595469              -7.0626
       120                         -0.2569529              -6.9920
       121                         -0.2480554              -6.7499
       122                         -0.2421652              -6.5897
       123                         -0.2368788              -6.4458
       124                         -0.2347794              -6.3887
       ...                                ...                  ...
       220                          0.6910612              18.8047
      -------------------------------------------------------------
                  HL-Gap            0.1048363 Eh            2.8527 eV

     #   Z          covCN         q      C6AA      Î±(0)
     1   6 C        2.918    -0.035    28.874     8.812
     2   6 C        2.918    -0.032    28.807     8.801
     3   6 C        2.987     0.015    27.677     8.630
     4   6 C        2.918    -0.034    28.836     8.806
     5   6 C        2.916    -0.029    28.718     8.788
     6   6 C        2.916    -0.028    28.710     8.786
     7   6 C        2.918    -0.033    28.821     8.804
     8   6 C        2.987     0.018    27.609     8.619
     9   6 C        2.922    -0.035    28.869     8.811
    10   6 C        2.971     0.008    27.831     8.653
    11   6 C        3.823     0.050    19.718     6.319
    12   6 C        3.817     0.042    19.864     6.343
    13   6 C        2.969    -0.007    28.189     8.709
    14   6 C        2.923    -0.043    29.063     8.841
    15   6 C        2.987     0.013    27.706     8.634
    16   6 C        2.918    -0.034    28.850     8.808
    17   6 C        2.916    -0.025    28.636     8.775
    18   6 C        2.916    -0.025    28.625     8.773
    19   6 C        2.918    -0.029    28.733     8.790
    20   6 C        2.988     0.015    27.667     8.628
    21   6 C        2.917    -0.032    28.797     8.800
    22   6 C        2.919    -0.037    28.910     8.817
    23   7 N        2.767    -0.114    23.482     7.197
    24   6 C        2.769     0.275    22.354     7.743
    25   6 C        2.981    -0.008    28.204     8.711
    26   6 C        2.921    -0.027    28.672     8.781
    27   6 C        2.924    -0.024    28.602     8.770
    28   6 C        3.053    -0.031    28.714     8.788
    29   6 C        2.959     0.060    26.659     8.469
    30  53 I        1.236    -0.120   380.809    33.687
    31   6 C        3.062    -0.027    28.601     8.770
    32   8 O        0.859    -0.424    22.173     6.313
    33   6 C        3.758     0.099    18.993     6.213
    34   6 C        2.689     0.364    20.833     7.470
    35   8 O        1.660    -0.351    19.919     6.025
    36   8 O        0.856    -0.395    21.580     6.228
    37   7 N        2.763    -0.115    23.515     7.202
    38   6 C        2.763     0.274    22.374     7.746
    39   6 C        2.981    -0.017    28.416     8.744
    40   6 C        3.057    -0.030    28.691     8.784
    41   6 C        2.958     0.063    26.580     8.456
    42  53 I        1.231    -0.118   380.722    33.683
    43   6 C        3.051    -0.032    28.747     8.793
    44   6 C        2.923    -0.026    28.644     8.777
    45   6 C        2.922    -0.024    28.615     8.772
    46   8 O        0.859    -0.407    21.830     6.264
    47   1 H        0.925     0.042     2.423     2.434
    48   1 H        0.926     0.038     2.479     2.462
    49   1 H        0.926     0.034     2.532     2.488
    50   1 H        0.926     0.033     2.543     2.494
    51   1 H        0.926     0.033     2.540     2.492
    52   1 H        0.926     0.034     2.525     2.485
    53   1 H        0.926     0.035     2.518     2.482
    54   1 H        0.923     0.056     2.251     2.346
    55   1 H        0.923     0.050     2.315     2.380
    56   1 H        0.926     0.029     2.600     2.522
    57   1 H        0.926     0.032     2.560     2.502
    58   1 H        0.926     0.037     2.490     2.468
    59   1 H        0.926     0.040     2.443     2.444
    60   1 H        0.926     0.043     2.409     2.427
    61   1 H        0.926     0.045     2.384     2.415
    62   1 H        0.926     0.033     2.541     2.493
    63   1 H        0.926     0.048     2.345     2.395
    64   1 H        0.926     0.051     2.303     2.373
    65   1 H        0.926     0.056     2.249     2.345
    66   1 H        0.926     0.055     2.258     2.350
    67   1 H        0.923     0.070     2.091     2.262
    68   1 H        0.804     0.348     0.593     1.210
    69   1 H        0.926     0.051     2.313     2.378
    70   1 H        0.926     0.057     2.232     2.336
    71   1 H        0.926     0.051     2.305     2.374
    72   1 H        0.926     0.051     2.303     2.373

Wiberg/Mayer (AO) data.
largest (>0.10) Wiberg bond orders for each atom

     #   Z sym  total        # sym  WBO       # sym  WBO       # sym  WBO
 ---------------------------------------------------------------------------
     1   6 C    3.991 --     2 C    1.567    10 C    1.291    47 H    0.965
     2   6 C    3.992 --     1 C    1.567     3 C    1.274    48 H    0.968
                             9 C    0.113
     3   6 C    3.990 --     4 C    1.283     2 C    1.274     8 C    1.252
     4   6 C    3.992 --     5 C    1.555     3 C    1.283    49 H    0.968
                             7 C    0.118
     5   6 C    3.990 --     4 C    1.555     6 C    1.322    50 H    0.971
     6   6 C    3.992 --     7 C    1.557     5 C    1.322    51 H    0.971
     7   6 C    3.990 --     6 C    1.557     8 C    1.280    52 H    0.968
                             4 C    0.118
     8   6 C    3.990 --     9 C    1.280     7 C    1.280     3 C    1.252
     9   6 C    3.989 --    10 C    1.530     8 C    1.280    53 H    0.965
                             2 C    0.113
    10   6 C    3.984 --     9 C    1.530     1 C    1.291    11 C    0.989
    11   6 C    3.957 --    10 C    0.989    12 C    0.955    54 H    0.953
                            37 N    0.951
    12   6 C    3.959 --    13 C    0.990    11 C    0.955    23 N    0.955
                            55 H    0.953
    13   6 C    3.984 --    14 C    1.526    22 C    1.291    12 C    0.990
    14   6 C    3.990 --    13 C    1.526    15 C    1.282    56 H    0.965
                            21 C    0.112
    15   6 C    3.990 --    14 C    1.282    16 C    1.278    20 C    1.251
    16   6 C    3.990 --    17 C    1.558    15 C    1.278    57 H    0.968
                            19 C    0.118
    17   6 C    3.992 --    16 C    1.558    18 C    1.321    58 H    0.971
    18   6 C    3.989 --    19 C    1.555    17 C    1.321    59 H    0.970
    19   6 C    3.991 --    18 C    1.555    20 C    1.281    60 H    0.968
                            16 C    0.118
    20   6 C    3.990 --    19 C    1.281    21 C    1.275    15 C    1.251
    21   6 C    3.991 --    22 C    1.565    20 C    1.275    61 H    0.967
                            14 C    0.112
    22   6 C    3.991 --    21 C    1.565    13 C    1.291    62 H    0.968
    23   7 N    3.460 --    24 C    1.218    33 C    0.975    12 C    0.955
                            32 O    0.192
    24   6 C    3.943 --    32 O    1.685    23 N    1.218    25 C    0.955
    25   6 C    3.988 --    26 C    1.407    31 C    1.402    24 C    0.955
                            28 C    0.109
    26   6 C    3.990 --    27 C    1.438    25 C    1.407    63 H    0.968
                            29 C    0.102
    27   6 C    3.990 --    26 C    1.438    28 C    1.436    64 H    0.967
                            31 C    0.110
    28   6 C    3.990 --    27 C    1.436    29 C    1.422    65 H    0.969
                            25 C    0.109
    29   6 C    3.955 --    31 C    1.429    28 C    1.422    30 I    0.968
                            26 C    0.102
    30  53 I    1.082 --    29 C    0.968
    31   6 C    3.989 --    29 C    1.429    25 C    1.402    66 H    0.968
                            27 C    0.110
    32   8 O    2.024 --    24 C    1.685    23 N    0.192
    33   6 C    3.966 --    37 N    0.989    23 N    0.975    67 H    0.945
                            34 C    0.906
    34   6 C    3.920 --    36 O    1.765    35 O    1.172    33 C    0.906
    35   8 O    2.235 --    34 C    1.172    68 H    0.852    36 O    0.182
    36   8 O    2.052 --    34 C    1.765    35 O    0.182
    37   7 N    3.463 --    38 C    1.209    33 C    0.989    11 C    0.951
                            46 O    0.196
    38   6 C    3.946 --    46 O    1.704    37 N    1.209    39 C    0.951
    39   6 C    3.987 --    40 C    1.405    45 C    1.403    38 C    0.951
                            43 C    0.108
    40   6 C    3.990 --    41 C    1.426    39 C    1.405    69 H    0.968
                            44 C    0.109
    41   6 C    3.956 --    40 C    1.426    43 C    1.421    42 I    0.971
                            45 C    0.102
    42  53 I    1.082 --    41 C    0.971
    43   6 C    3.990 --    44 C    1.435    41 C    1.421    70 H    0.969
                            39 C    0.108
    44   6 C    3.991 --    45 C    1.440    43 C    1.435    71 H    0.967
                            40 C    0.109
    45   6 C    3.990 --    44 C    1.440    39 C    1.403    72 H    0.968
                            41 C    0.102
    46   8 O    2.036 --    38 C    1.704    37 N    0.196
    47   1 H    0.998 --     1 C    0.965
    48   1 H    0.998 --     2 C    0.968
    49   1 H    0.998 --     4 C    0.968
    50   1 H    0.998 --     5 C    0.971
    51   1 H    0.998 --     6 C    0.971
    52   1 H    0.998 --     7 C    0.968
    53   1 H    0.998 --     9 C    0.965
    54   1 H    0.996 --    11 C    0.953
    55   1 H    0.997 --    12 C    0.953
    56   1 H    0.999 --    14 C    0.965
    57   1 H    0.998 --    16 C    0.968
    58   1 H    0.998 --    17 C    0.971
    59   1 H    0.998 --    18 C    0.970
    60   1 H    0.998 --    19 C    0.968
    61   1 H    0.997 --    21 C    0.967
    62   1 H    0.998 --    22 C    0.968
    63   1 H    0.997 --    26 C    0.968
    64   1 H    0.997 --    27 C    0.967
    65   1 H    0.997 --    28 C    0.969
    66   1 H    0.997 --    31 C    0.968
    67   1 H    0.995 --    33 C    0.945
    68   1 H    0.878 --    35 O    0.852
    69   1 H    0.997 --    40 C    0.968
    70   1 H    0.996 --    43 C    0.969
    71   1 H    0.997 --    44 C    0.967
    72   1 H    0.996 --    45 C    0.968
 ---------------------------------------------------------------------------

molecular dipole:
                 x           y           z       tot (Debye)
 q only:       -0.761       1.517       0.038
   full:       -0.133       2.213      -0.648       5.870

           -------------------------------------------------
          | TOTAL ENERGY             -124.428203140541 Eh   |
          | GRADIENT NORM               0.000375545115 Eh/Î± |
          | HOMO-LUMO GAP               2.852741421768 eV   |
           -------------------------------------------------

 * finished run on 2022/03/16 at 22:15:03.845
