   * xtb version 6.3.3 (4ae9cef) compiled by 'conda@95abc7406d43' on 2020-10-14
          program call               : xtb acid_240.xyz --opt --chrg 0 --uhf 0 --gfn 2
          number of atoms            :                    92
          number of electrons        :                   274
          charge                     :                     0
          spin                       :                   0.0

   ID    Z sym.   atoms
    1    6 C      1-22, 24-27, 29-36, 38, 39, 43-46, 48-55
    2    7 N      23, 42
    3    8 O      28, 37, 40, 41, 47, 56
    4    1 H      57-92

          :  Hamiltonian                  GFN2-xTB          :
 * total energy  :  -151.4403478 Eh     change       -0.4257629E-08 Eh
 * total energy  :  -151.4576008 Eh     change       -0.1725292E-01 Eh
 * total energy  :  -151.4624406 Eh     change       -0.4839839E-02 Eh
 * total energy  :  -151.4640377 Eh     change       -0.1597110E-02 Eh
 * total energy  :  -151.4651881 Eh     change       -0.1150347E-02 Eh
 * total energy  :  -151.4657284 Eh     change       -0.5403652E-03 Eh
 * total energy  :  -151.4661311 Eh     change       -0.4026812E-03 Eh
 * total energy  :  -151.4664648 Eh     change       -0.3337338E-03 Eh
 * total energy  :  -151.4667643 Eh     change       -0.2994315E-03 Eh
 * total energy  :  -151.4670133 Eh     change       -0.2490728E-03 Eh
 * total energy  :  -151.4713640 Eh     change       -0.2244591E-04 Eh
 * total energy  :  -151.4713890 Eh     change       -0.2503240E-04 Eh
 * total energy  :  -151.4714022 Eh     change       -0.1310811E-04 Eh
 * total energy  :  -151.4714186 Eh     change       -0.1643789E-04 Eh
 * total energy  :  -151.4714365 Eh     change       -0.1788672E-04 Eh
 * total energy  :  -151.4714503 Eh     change       -0.1386790E-04 Eh
 * total energy  :  -151.4714625 Eh     change       -0.1215577E-04 Eh
 * total energy  :  -151.4714717 Eh     change       -0.9238607E-05 Eh
 * total energy  :  -151.4714765 Eh     change       -0.4801135E-05 Eh
   *** GEOMETRY OPTIMIZATION CONVERGED AFTER 61 ITERATIONS ***

 final structure:
================
92
 xtb: 6.3.3 (4ae9cef)
C         2.01721286570880    0.50637854945713    1.38372864297052
C         3.29189366603239    0.50664939725940    1.87217541152300
C         4.21977816656566   -0.48015926971038    1.47852938414022
C         5.55873458665499   -0.47313157389689    1.91907211193326
C         6.43469939632785   -1.43555932454560    1.50240350603008
C         6.01065228888785   -2.45316530940744    0.63428124317491
C         4.71734564059216   -2.49276386421851    0.19643922729818
C         3.79137370512107   -1.50889266287757    0.60005019485092
C         2.46584637345795   -1.49033895430828    0.12413916649347
C         1.60087631642274   -0.48823741254716    0.47675211987879
C         0.22714749662702   -0.40954152680653   -0.13241959857640
C        -0.91187973325670   -0.67163875674388    0.87646337766765
C        -1.44018073990378   -2.07430647710190    0.74919029666429
C        -1.21467750622766   -3.00821371994586    1.72288155876327
C        -1.68858492678245   -4.32864758759968    1.58555431777523
C        -1.47552914855420   -5.30640697436150    2.57944227120647
C        -1.95571729281401   -6.57650043253373    2.42349486630293
C        -2.66859785876106   -6.92869968714234    1.26671068969765
C        -2.88933632728042   -6.00442755317448    0.28415441500801
C        -2.40827180658144   -4.68584554337564    0.41575981191227
C        -2.62022552507225   -3.70532559112716   -0.57615261464803
C        -2.14411104019755   -2.43710589912427   -0.41639061219166
N        -1.91686921593995    0.31797859734104    0.51226963297618
C        -3.15025568972626    0.32399686583769    1.10145666115068
C        -4.00382435453283    1.46570451769349    0.68539161928140
C        -4.69931995568075    1.59342020630649   -0.48827997087504
C        -4.79232448605014    0.69556809678797   -1.67002274655216
O        -5.39093227563921    2.74886119872298   -0.48920985589369
C        -5.15305362337559    3.38119166286644    0.68903017322009
C        -5.78793611440169    4.65848996412443    0.94423002478195
C        -5.52516461387449    5.36342640861104    2.12001248490419
C        -6.14145628184704    6.57629319445429    2.35638445843064
C        -7.02498723600758    7.10647657601471    1.42940740245184
C        -7.28878646117620    6.41506996625619    0.25843694978284
C        -6.67689091839109    5.20115728074285    0.01483578219018
C        -4.30412729851320    2.61988350689192    1.45126591925511
O        -3.51702698500493   -0.56099087197431    1.83902234751925
C        -1.30634908782124    1.45266932923353   -0.11581443221201
C        -1.03377533513342    2.60501620144191    0.90595360033423
O        -0.56219641671132    3.70921270410576    0.36912999156030
O        -1.25001493544007    2.46623258296174    2.07530926576768
N        -0.06221490911681    0.92381811189129   -0.64957323578487
C         0.68014013622424    1.61317576169479   -1.53672655157763
C         1.88198688497496    0.90882345988817   -2.02368669924117
C         1.96423618046151   -0.16656920787221   -2.86885841889906
C         0.92343306688527   -0.88178121064730   -3.65276437909840
O         3.24412837238113   -0.56360378551240   -2.97652706563434
C         4.00673570416192    0.24499923846036   -2.19931894708456
C         5.42013628752354   -0.04053657567766   -2.05849312016597
C         5.97931548466582   -1.14335808219417   -2.70516167947056
C         7.31536990789502   -1.44852737707150   -2.53813279681963
C         8.11391553823788   -0.66030626871047   -1.72618314623607
C         7.56785769487467    0.43945514552029   -1.08436996904742
C         6.23248376574015    0.75035856135496   -1.24588564893214
C         3.20958223231745    1.18950326948427   -1.60790631688932
O         0.37640494513562    2.75716045898492   -1.86835958701816
H         1.32120053414346    1.27720523969680    1.68166483383911
H         3.61046685304186    1.27622086250087    2.56018198507763
H         5.88045680574604    0.31169783318863    2.58841803596394
H         7.46104606475678   -1.42071534107790    1.83750232836733
H         6.71787986133236   -3.20319446679348    0.31327919817778
H         4.38603020325771   -3.27235764030871   -0.47419691164000
H         2.14792194848015   -2.26938842511653   -0.55514789372568
H         0.15231025690621   -1.13522607409895   -0.95205818806279
H        -0.56734640748309   -0.49334398922476    1.90380558947681
H        -0.67697260625489   -2.73863798251711    2.62036761511870
H        -0.92882962064946   -5.02949397466348    3.46926932603422
H        -1.79225937440442   -7.31945356097667    3.19036527633655
H        -3.04251416531041   -7.93663490728833    1.16126439506524
H        -3.43924094251838   -6.27046641845429   -0.60758546458334
H        -3.17046148555034   -3.97668927166155   -1.46619494758602
H        -2.31569975303826   -1.68928137286137   -1.17869778126750
H        -5.81513318721613    0.67579597805796   -2.04011633939363
H        -4.14971648961903    1.04537942212049   -2.48026343041035
H        -4.49342145251745   -0.31001711903881   -1.38628647468748
H        -4.83572705093093    4.95727420044264    2.84277145833417
H        -5.93223729668323    7.11382920605490    3.26959367038320
H        -7.50524696864152    8.05494393575302    1.61914893233160
H        -7.97603060292362    6.82457129502666   -0.46765560964449
H        -6.88213809026530    4.65939887594320   -0.89602651869818
H        -3.92027155202088    2.83267151491528    2.42638260459264
H        -1.92758005895707    1.85792152605056   -0.93070603294426
H        -0.29715389641567    3.58519532994851   -0.58818588670738
H        -0.03035023711866   -0.37215608999079   -3.55326630810365
H         1.20186176878515   -0.90927803409651   -4.70496289219836
H         0.82029649065100   -1.91208485643543   -3.31103714934269
H         5.35349285719530   -1.75721190325505   -3.33464932563899
H         7.73682374519170   -2.30577599514772   -3.04223788439949
H         9.15817409586842   -0.90139116662938   -1.59438251797258
H         8.18799020488180    1.05680770710295   -0.45166655365188
H         5.81237878020597    1.60462698059698   -0.73985983858910
H         3.50333516337492    1.97286836842728   -0.94195283247226

          :  Hamiltonian                  GFN2-xTB          :
         :: total energy            -151.471476541195 Eh    ::
         :: gradient norm              0.000538399157 Eh/a0 ::
         :: HOMO-LUMO gap              2.554876655782 eV    ::
         :: SCC energy              -153.890104045934 Eh    ::
         :: -> dispersion             -0.138649326169 Eh    ::
         :: repulsion energy           2.414703692603 Eh    ::

    * Orbital Energies and Occupations

         #    Occupation            Energy/Eh            Energy/eV
      -------------------------------------------------------------
         1        2.0000           -0.7560044             -20.5719
       ...           ...                  ...                  ...
       125        2.0000           -0.4180413             -11.3755
       126        2.0000           -0.4175403             -11.3619
       127        2.0000           -0.4171240             -11.3505
       128        2.0000           -0.4161174             -11.3231
       129        2.0000           -0.4123279             -11.2200
       130        2.0000           -0.4057483             -11.0410
       131        2.0000           -0.4016414             -10.9292
       132        2.0000           -0.3966990             -10.7947
       133        2.0000           -0.3935426             -10.7088
       134        2.0000           -0.3919924             -10.6667
       135        2.0000           -0.3860709             -10.5055
       136        2.0000           -0.3818524             -10.3907
       137        2.0000           -0.3691252             -10.0444 (HOMO)
       138                         -0.2752353              -7.4895 (LUMO)
       139                         -0.2643426              -7.1931
       140                         -0.2638027              -7.1784
       141                         -0.2522288              -6.8635
       142                         -0.2486033              -6.7648
       143                         -0.2467865              -6.7154
       144                         -0.2444251              -6.6511
       145                         -0.2344174              -6.3788
       146                         -0.2332377              -6.3467
       147                         -0.2192173              -5.9652
       148                         -0.2186653              -5.9502
       ...                                ...                  ...
       260                          0.7167384              19.5034
      -------------------------------------------------------------
                  HL-Gap            0.0938900 Eh            2.5549 eV

     #   Z          covCN         q      C6AA      Î±(0)
     1   6 C        2.919    -0.035    28.861     8.810
     2   6 C        2.918    -0.032    28.803     8.801
     3   6 C        2.988     0.013    27.705     8.634
     4   6 C        2.918    -0.033    28.829     8.805
     5   6 C        2.916    -0.027    28.681     8.782
     6   6 C        2.916    -0.027    28.670     8.780
     7   6 C        2.919    -0.033    28.819     8.803
     8   6 C        2.987     0.015    27.679     8.630
     9   6 C        2.923    -0.041    29.016     8.834
    10   6 C        2.969    -0.005    28.151     8.703
    11   6 C        3.820     0.036    19.950     6.356
    12   6 C        3.829     0.049    19.728     6.320
    13   6 C        2.971     0.011    27.759     8.642
    14   6 C        2.922    -0.034    28.840     8.807
    15   6 C        2.987     0.018    27.593     8.617
    16   6 C        2.919    -0.032    28.810     8.802
    17   6 C        2.916    -0.028    28.706     8.786
    18   6 C        2.916    -0.029    28.720     8.788
    19   6 C        2.918    -0.034    28.846     8.807
    20   6 C        2.988     0.014    27.682     8.631
    21   6 C        2.917    -0.034    28.851     8.808
    22   6 C        2.920    -0.034    28.837     8.806
    23   7 N        2.768    -0.121    23.624     7.219
    24   6 C        2.758     0.283    22.215     7.718
    25   6 C        3.064    -0.066    29.570     8.917
    26   6 C        3.079     0.110    25.484     8.276
    27   6 C        3.753    -0.113    22.729     6.799
    28   8 O        1.730    -0.196    17.269     5.611
    29   6 C        3.087     0.105    25.577     8.290
    30   6 C        2.971     0.006    27.874     8.660
    31   6 C        2.924    -0.035    28.877     8.812
    32   6 C        2.919    -0.027    28.673     8.781
    33   6 C        2.920    -0.030    28.757     8.794
    34   6 C        2.918    -0.029    28.716     8.788
    35   6 C        2.925    -0.031    28.772     8.796
    36   6 C        3.009    -0.065    29.595     8.924
    37   8 O        0.859    -0.406    21.810     6.261
    38   6 C        3.760     0.080    19.291     6.261
    39   6 C        2.684     0.350    21.049     7.508
    40   8 O        1.654    -0.371    20.301     6.082
    41   8 O        0.856    -0.367    21.036     6.149
    42   7 N        2.766    -0.110    23.409     7.186
    43   6 C        2.759     0.272    22.400     7.751
    44   6 C        3.066    -0.058    29.373     8.887
    45   6 C        3.077     0.116    25.363     8.257
    46   6 C        3.753    -0.114    22.733     6.799
    47   8 O        1.731    -0.189    17.153     5.592
    48   6 C        3.088     0.108    25.518     8.280
    49   6 C        2.971     0.005    27.900     8.664
    50   6 C        2.926    -0.030    28.745     8.792
    51   6 C        2.918    -0.028    28.697     8.785
    52   6 C        2.920    -0.029    28.726     8.789
    53   6 C        2.919    -0.026    28.662     8.779
    54   6 C        2.925    -0.034    28.854     8.809
    55   6 C        3.008    -0.065    29.587     8.923
    56   8 O        0.859    -0.459    22.903     6.416
    57   1 H        0.926     0.039     2.461     2.453
    58   1 H        0.926     0.044     2.398     2.421
    59   1 H        0.926     0.038     2.475     2.460
    60   1 H        0.926     0.036     2.507     2.476
    61   1 H        0.926     0.035     2.521     2.483
    62   1 H        0.926     0.034     2.524     2.484
    63   1 H        0.925     0.030     2.593     2.518
    64   1 H        0.924     0.052     2.300     2.371
    65   1 H        0.923     0.059     2.207     2.323
    66   1 H        0.926     0.039     2.457     2.451
    67   1 H        0.926     0.036     2.502     2.473
    68   1 H        0.926     0.034     2.536     2.490
    69   1 H        0.926     0.033     2.546     2.495
    70   1 H        0.926     0.033     2.544     2.494
    71   1 H        0.926     0.035     2.517     2.481
    72   1 H        0.925     0.024     2.670     2.555
    73   1 H        0.925     0.068     2.107     2.270
    74   1 H        0.924     0.053     2.284     2.364
    75   1 H        0.925     0.056     2.246     2.344
    76   1 H        0.926     0.041     2.436     2.441
    77   1 H        0.926     0.035     2.516     2.481
    78   1 H        0.926     0.032     2.556     2.500
    79   1 H        0.926     0.032     2.558     2.501
    80   1 H        0.926     0.042     2.419     2.432
    81   1 H        0.927     0.056     2.245     2.343
    82   1 H        0.923     0.060     2.201     2.320
    83   1 H        0.799     0.366     0.553     1.168
    84   1 H        0.925     0.053     2.280     2.361
    85   1 H        0.925     0.072     2.062     2.246
    86   1 H        0.924     0.062     2.171     2.304
    87   1 H        0.926     0.045     2.389     2.417
    88   1 H        0.926     0.036     2.502     2.474
    89   1 H        0.926     0.036     2.501     2.473
    90   1 H        0.926     0.037     2.490     2.468
    91   1 H        0.926     0.036     2.508     2.477
    92   1 H        0.927     0.044     2.391     2.418

Wiberg/Mayer (AO) data.
largest (>0.10) Wiberg bond orders for each atom

     #   Z sym  total        # sym  WBO       # sym  WBO       # sym  WBO
 ---------------------------------------------------------------------------
     1   6 C    3.991 --     2 C    1.563    10 C    1.294    57 H    0.967
     2   6 C    3.991 --     1 C    1.563     3 C    1.277    58 H    0.967
                             9 C    0.113
     3   6 C    3.990 --     4 C    1.282     2 C    1.277     8 C    1.249
     4   6 C    3.991 --     5 C    1.555     3 C    1.282    59 H    0.968
                             7 C    0.118
     5   6 C    3.989 --     4 C    1.555     6 C    1.321    60 H    0.971
     6   6 C    3.992 --     7 C    1.558     5 C    1.321    61 H    0.971
     7   6 C    3.989 --     6 C    1.558     8 C    1.278    62 H    0.968
                             4 C    0.118
     8   6 C    3.990 --     9 C    1.284     7 C    1.278     3 C    1.249
     9   6 C    3.990 --    10 C    1.524     8 C    1.284    63 H    0.965
                             2 C    0.113
    10   6 C    3.984 --     9 C    1.524     1 C    1.294    11 C    0.990
    11   6 C    3.958 --    10 C    0.990    42 N    0.954    12 C    0.953
                            64 H    0.951
    12   6 C    3.962 --    13 C    0.992    23 N    0.957    11 C    0.953
                            65 H    0.953
    13   6 C    3.985 --    14 C    1.530    22 C    1.290    12 C    0.992
    14   6 C    3.989 --    13 C    1.530    15 C    1.280    66 H    0.965
                            21 C    0.113
    15   6 C    3.990 --    14 C    1.280    16 C    1.280    20 C    1.252
    16   6 C    3.990 --    17 C    1.557    15 C    1.280    67 H    0.968
                            19 C    0.118
    17   6 C    3.992 --    16 C    1.557    18 C    1.322    68 H    0.971
    18   6 C    3.990 --    19 C    1.555    17 C    1.322    69 H    0.971
    19   6 C    3.992 --    18 C    1.555    20 C    1.283    70 H    0.968
                            16 C    0.118
    20   6 C    3.990 --    19 C    1.283    21 C    1.274    15 C    1.252
    21   6 C    3.992 --    22 C    1.568    20 C    1.274    71 H    0.968
                            14 C    0.113
    22   6 C    3.992 --    21 C    1.568    13 C    1.290    72 H    0.967
    23   7 N    3.436 --    24 C    1.177    38 C    1.002    12 C    0.957
                            37 O    0.184
    24   6 C    3.944 --    37 O    1.717    23 N    1.177    25 C    0.968
    25   6 C    3.973 --    26 C    1.519    36 C    1.273    24 C    0.968
    26   6 C    3.904 --    25 C    1.519    28 O    1.125    27 C    1.028
                            29 C    0.123
    27   6 C    3.993 --    26 C    1.028    75 H    0.980    73 H    0.974
                            74 H    0.966
    28   8 O    2.425 --    26 C    1.125    29 C    1.090
    29   6 C    3.906 --    36 C    1.524    28 O    1.090    30 C    1.089
                            26 C    0.123
    30   6 C    3.988 --    35 C    1.371    31 C    1.367    29 C    1.089
    31   6 C    3.990 --    32 C    1.463    30 C    1.367    76 H    0.968
                            34 C    0.106
    32   6 C    3.992 --    31 C    1.463    33 C    1.427    77 H    0.971
                            35 C    0.105
    33   6 C    3.979 --    34 C    1.432    32 C    1.427    78 H    0.972
    34   6 C    3.992 --    35 C    1.457    33 C    1.432    79 H    0.971
                            31 C    0.106
    35   6 C    3.990 --    34 C    1.457    30 C    1.371    80 H    0.969
                            32 C    0.105
    36   6 C    3.982 --    29 C    1.524    25 C    1.273    81 H    0.971
    37   8 O    2.037 --    24 C    1.717    23 N    0.184
    38   6 C    3.961 --    23 N    1.002    42 N    0.967    82 H    0.941
                            39 C    0.883
    39   6 C    3.930 --    41 O    1.779    40 O    1.205    38 C    0.883
    40   8 O    2.234 --    39 C    1.205    83 H    0.763    41 O    0.183
    41   8 O    2.081 --    39 C    1.779    40 O    0.183
    42   7 N    3.501 --    43 C    1.266    38 C    0.967    11 C    0.954
                            56 O    0.186
    43   6 C    3.944 --    56 O    1.593    42 N    1.266    44 C    0.985
    44   6 C    3.972 --    45 C    1.513    55 C    1.263    43 C    0.985
    45   6 C    3.905 --    44 C    1.513    47 O    1.131    46 C    1.030
                            48 C    0.119
    46   6 C    3.993 --    45 C    1.030    84 H    0.984    85 H    0.968
                            86 H    0.965
    47   8 O    2.433 --    45 C    1.131    48 C    1.093
    48   6 C    3.908 --    55 C    1.526    47 O    1.093    49 C    1.087
                            45 C    0.119
    49   6 C    3.987 --    50 C    1.370    54 C    1.368    48 C    1.087
    50   6 C    3.991 --    51 C    1.458    49 C    1.370    87 H    0.969
                            53 C    0.105
    51   6 C    3.992 --    50 C    1.458    52 C    1.431    88 H    0.971
                            54 C    0.106
    52   6 C    3.979 --    51 C    1.431    53 C    1.428    89 H    0.971
    53   6 C    3.992 --    54 C    1.461    52 C    1.428    90 H    0.971
                            50 C    0.105
    54   6 C    3.990 --    53 C    1.461    49 C    1.368    91 H    0.968
                            51 C    0.106
    55   6 C    3.981 --    48 C    1.526    44 C    1.263    92 H    0.973
    56   8 O    2.011 --    43 C    1.593    42 N    0.186
    57   1 H    0.998 --     1 C    0.967
    58   1 H    0.997 --     2 C    0.967
    59   1 H    0.998 --     4 C    0.968
    60   1 H    0.998 --     5 C    0.971
    61   1 H    0.998 --     6 C    0.971
    62   1 H    0.998 --     7 C    0.968
    63   1 H    0.999 --     9 C    0.965
    64   1 H    0.997 --    11 C    0.951
    65   1 H    0.996 --    12 C    0.953
    66   1 H    0.998 --    14 C    0.965
    67   1 H    0.998 --    16 C    0.968
    68   1 H    0.998 --    17 C    0.971
    69   1 H    0.998 --    18 C    0.971
    70   1 H    0.998 --    19 C    0.968
    71   1 H    0.998 --    21 C    0.968
    72   1 H    0.999 --    22 C    0.967
    73   1 H    0.995 --    27 C    0.974
    74   1 H    0.995 --    27 C    0.966
    75   1 H    0.996 --    27 C    0.980
    76   1 H    0.998 --    31 C    0.968
    77   1 H    0.998 --    32 C    0.971
    78   1 H    0.999 --    33 C    0.972
    79   1 H    0.999 --    34 C    0.971
    80   1 H    0.998 --    35 C    0.969
    81   1 H    0.997 --    36 C    0.971
    82   1 H    0.996 --    38 C    0.941
    83   1 H    0.866 --    40 O    0.763
    84   1 H    0.997 --    46 C    0.984
    85   1 H    0.994 --    46 C    0.968
    86   1 H    0.995 --    46 C    0.965
    87   1 H    0.998 --    50 C    0.969
    88   1 H    0.998 --    51 C    0.971
    89   1 H    0.998 --    52 C    0.971
    90   1 H    0.998 --    53 C    0.971
    91   1 H    0.999 --    54 C    0.968
    92   1 H    0.998 --    55 C    0.973
 ---------------------------------------------------------------------------

molecular dipole:
                 x           y           z       tot (Debye)
 q only:        1.752      -1.641      -1.499
   full:        1.759      -1.583      -1.867       7.663

           -------------------------------------------------
          | TOTAL ENERGY             -151.471476541195 Eh   |
          | GRADIENT NORM               0.000538399157 Eh/Î± |
          | HOMO-LUMO GAP               2.554876655782 eV   |
           -------------------------------------------------

 * finished run on 2022/03/16 at 22:51:09.386
