   * xtb version 6.3.3 (4ae9cef) compiled by 'conda@95abc7406d43' on 2020-10-14
          program call               : xtb acid_162.xyz --opt --chrg 0 --uhf 0 --gfn 2
          number of atoms            :                    66
          number of electrons        :                   238
          charge                     :                     0
          spin                       :                   0.0

   ID    Z sym.   atoms
    1    6 C      1, 2, 6-15, 19-22, 24-28, 30, 31, 33, 34, 38-42, 44, 45
    2    9 F      3-5, 16-18, 29, 43
    3    7 N      23, 37
    4    8 O      32, 35, 36, 46
    5    1 H      47-66

          :  Hamiltonian                  GFN2-xTB          :
 * total energy  :  -138.7438982 Eh     change       -0.1366487E-08 Eh
 * total energy  :  -138.7593185 Eh     change       -0.1542024E-01 Eh
 * total energy  :  -138.7641709 Eh     change       -0.4852427E-02 Eh
 * total energy  :  -138.7656828 Eh     change       -0.1511916E-02 Eh
 * total energy  :  -138.7666452 Eh     change       -0.9624098E-03 Eh
 * total energy  :  -138.7671601 Eh     change       -0.5149147E-03 Eh
 * total energy  :  -138.7676214 Eh     change       -0.4612544E-03 Eh
 * total energy  :  -138.7681783 Eh     change       -0.5569416E-03 Eh
 * total energy  :  -138.7687635 Eh     change       -0.5851946E-03 Eh
 * total energy  :  -138.7691829 Eh     change       -0.4193600E-03 Eh
 * total energy  :  -138.7704480 Eh     change       -0.1696845E-04 Eh
 * total energy  :  -138.7704686 Eh     change       -0.2066715E-04 Eh
 * total energy  :  -138.7704596 Eh     change        0.9065585E-05 Eh
 * total energy  :  -138.7704787 Eh     change       -0.1912830E-04 Eh
 * total energy  :  -138.7704936 Eh     change       -0.1487923E-04 Eh
 * total energy  :  -138.7705041 Eh     change       -0.1053219E-04 Eh
 * total energy  :  -138.7705158 Eh     change       -0.1171871E-04 Eh
 * total energy  :  -138.7705209 Eh     change       -0.5022125E-05 Eh
 * total energy  :  -138.7705227 Eh     change       -0.1858320E-05 Eh
   *** GEOMETRY OPTIMIZATION CONVERGED AFTER 36 ITERATIONS ***

 final structure:
================
66
 xtb: 6.3.3 (4ae9cef)
C        -2.44917095140098   -3.01215917699189    0.32452918595397
C        -1.50288931546857   -3.85791677000663    1.13084800467614
F        -0.34753409993960   -4.10491588426528    0.47042181920932
F        -1.13863378026550   -3.30396197281429    2.29952070151884
F        -2.00559377037432   -5.06005347849736    1.43643546160032
C        -3.69264772570726   -3.53767579232639   -0.00415170571140
C        -4.58171737723288   -2.80295145966918   -0.76449912381328
C        -4.22758664802418   -1.54041054048813   -1.20587232091911
C        -2.99096205718254   -1.01897946228171   -0.88081308683281
C        -2.08623150090191   -1.73696510167430   -0.10744090223965
C        -0.74993506550996   -1.11249294147325    0.19952562641621
C         0.14268823055215   -0.98833184135398   -1.05267864071559
C         1.15252157705775   -2.10419129165548   -1.14358079328886
C         1.09423075518649   -3.09820607150196   -2.12041914460688
C        -0.00646634740394   -3.11913506071188   -3.14316992481555
F        -1.23357130883885   -3.21089796409243   -2.57476756953577
F         0.07602111989354   -4.15378125594623   -3.98642970971091
F        -0.05581426710518   -2.01858650372102   -3.91626598890487
C         2.04399953998472   -4.11196531747103   -2.14833144006503
C         3.05401606863482   -4.14538656470772   -1.20653839303886
C         3.11253949160642   -3.16979245612667   -0.22709993693677
C         2.16815146954080   -2.16212279652681   -0.19597724293830
N         0.78735943924293    0.31035347656433   -0.87754631433518
C         1.89593260576640    0.66741260629411   -1.58206498418866
C         2.46097421386827    1.99870874154834   -1.18689226588555
C         1.83691596791882    3.18485201390714   -1.55540913967343
C         2.38157423104099    4.40180361396123   -1.18953398362771
C         3.55441063491343    4.41050282276979   -0.45546077221969
F         4.07881830729220    5.59162751375865   -0.07830313706539
C         4.20626968572584    3.24355840598103   -0.09832905802914
C         3.65546515131503    2.03250048236687   -0.47674676274906
O         2.38402505856789   -0.03813659057911   -2.43321118757052
C         0.17032863333125    1.10134165718972    0.15829242562157
C         1.17069628133408    1.38131385789212    1.30200313384314
O         1.18462884562693    2.66772012037130    1.63452651993625
O         1.82960503177606    0.53724313206641    1.83865151461161
N        -0.91554551151830    0.27449545619497    0.62786828903900
C        -1.76980956750321    0.57917894593449    1.65004283809262
C        -1.77012185580435    2.01419988127215    2.06953138834004
C        -2.14603283398132    3.02281050957880    1.18935754376405
C        -2.17392439541373    4.33950445223545    1.60918019340016
C        -1.82074799097724    4.62851369006285    2.91552011905632
F        -1.83033966853900    5.91055292958899    3.32379473169512
C        -1.46588106217317    3.63977081969188    3.81574465029647
C        -1.45316258122943    2.32547851655193    3.38659445507709
O        -2.48843568524083   -0.25326696669785    2.15321611487684
H        -3.96095177594761   -4.52478089521034    0.33814719623043
H        -5.54581017854657   -3.21804770592966   -1.01257886555101
H        -4.91390133047329   -0.96198035617089   -1.80531072547036
H        -2.71823625824879   -0.03211858237343   -1.22464220447831
H        -0.21790208221435   -1.66367078114930    0.98171392019627
H        -0.48144739073807   -0.94137633162980   -1.95088193071000
H         1.98812749837247   -4.87378868237093   -2.90999157128646
H         3.78904785309919   -4.93431330793347   -1.23747933755542
H         3.89340130903549   -3.19346413320544    0.51752919321341
H         2.22076870182693   -1.40353758982595    0.57116354991265
H         0.93297256644524    3.15785628612882   -2.14539936209472
H         1.91494907566070    5.33368394156986   -1.46538961566953
H         5.12859066996782    3.29214204937787    0.45830171085770
H         4.14660001181134    1.10692503343007   -0.21860449954468
H        -0.19277279967962    2.06940714300424   -0.21484694152099
H         1.79905079194154    2.83885685050924    2.36836820263606
H        -2.44294642071144    2.77709456845095    0.18042979284088
H        -2.46723650379710    5.13647502443778    0.94472279847323
H        -1.21562108032868    3.90286239647763    4.83109554042541
H        -1.19509862991517    1.53061568821404    4.06958596149076

          :  Hamiltonian                  GFN2-xTB          :
         :: total energy            -138.770522709508 Eh    ::
         :: gradient norm              0.000268724334 Eh/a0 ::
         :: HOMO-LUMO gap              3.321675160124 eV    ::
         :: SCC energy              -140.373858187313 Eh    ::
         :: -> dispersion             -0.098723775743 Eh    ::
         :: repulsion energy           1.599890459670 Eh    ::

    * Orbital Energies and Occupations

         #    Occupation            Energy/Eh            Energy/eV
      -------------------------------------------------------------
         1        2.0000           -0.8779909             -23.8913
       ...           ...                  ...                  ...
       107        2.0000           -0.4498060             -12.2398
       108        2.0000           -0.4480408             -12.1918
       109        2.0000           -0.4478932             -12.1878
       110        2.0000           -0.4421498             -12.0315
       111        2.0000           -0.4395683             -11.9613
       112        2.0000           -0.4389160             -11.9435
       113        2.0000           -0.4361382             -11.8679
       114        2.0000           -0.4351898             -11.8421
       115        2.0000           -0.4324778             -11.7683
       116        2.0000           -0.4305517             -11.7159
       117        2.0000           -0.4199674             -11.4279
       118        2.0000           -0.4166011             -11.3363
       119        2.0000           -0.4146641             -11.2836 (HOMO)
       120                         -0.2925948              -7.9619 (LUMO)
       121                         -0.2745951              -7.4721
       122                         -0.2678800              -7.2894
       123                         -0.2664913              -7.2516
       124                         -0.2659703              -7.2374
       125                         -0.2651141              -7.2141
       126                         -0.2613977              -7.1130
       127                         -0.2568884              -6.9903
       128                         -0.2513869              -6.8406
       129                         -0.2349676              -6.3938
       130                         -0.2307380              -6.2787
       ...                                ...                  ...
       204                          0.6395131              17.4020
      -------------------------------------------------------------
                  HL-Gap            0.1220693 Eh            3.3217 eV

     #   Z          covCN         q      C6AA      Î±(0)
     1   6 C        2.976    -0.021    28.526     8.761
     2   6 C        3.335     0.486    17.295     6.587
     3   9 F        0.791    -0.223    11.470     4.001
     4   9 F        0.791    -0.203    11.265     3.965
     5   9 F        0.792    -0.199    11.225     3.958
     6   6 C        2.923    -0.017    28.445     8.746
     7   6 C        2.921    -0.019    28.492     8.753
     8   6 C        2.919    -0.016    28.400     8.739
     9   6 C        2.928    -0.023    28.571     8.766
    10   6 C        2.972     0.026    27.420     8.589
    11   6 C        3.826     0.047    19.768     6.327
    12   6 C        3.821     0.046    19.789     6.331
    13   6 C        2.972     0.024    27.458     8.595
    14   6 C        2.976    -0.023    28.583     8.770
    15   6 C        3.335     0.485    17.304     6.589
    16   9 F        0.791    -0.225    11.501     4.006
    17   9 F        0.792    -0.198    11.217     3.956
    18   9 F        0.791    -0.207    11.304     3.972
    19   6 C        2.923    -0.018    28.468     8.750
    20   6 C        2.920    -0.020    28.496     8.754
    21   6 C        2.919    -0.015    28.376     8.735
    22   6 C        2.926    -0.026    28.645     8.777
    23   7 N        2.766    -0.113    23.472     7.196
    24   6 C        2.761     0.273    22.385     7.748
    25   6 C        2.976    -0.025    28.615     8.775
    26   6 C        2.926    -0.028    28.710     8.787
    27   6 C        2.916    -0.045    29.117     8.849
    28   6 C        2.788     0.174    24.250     8.066
    29   9 F        0.787    -0.216    11.401     3.989
    30   6 C        2.916    -0.047    29.179     8.858
    31   6 C        2.928    -0.023    28.585     8.768
    32   8 O        0.859    -0.399    21.651     6.239
    33   6 C        3.752     0.084    19.243     6.256
    34   6 C        2.688     0.348    21.090     7.516
    35   8 O        1.659    -0.369    20.262     6.077
    36   8 O        0.856    -0.375    21.180     6.170
    37   7 N        2.766    -0.117    23.555     7.208
    38   6 C        2.763     0.272    22.409     7.752
    39   6 C        2.975    -0.022    28.559     8.766
    40   6 C        2.926    -0.029    28.716     8.788
    41   6 C        2.916    -0.045    29.122     8.849
    42   6 C        2.788     0.176    24.213     8.060
    43   9 F        0.787    -0.215    11.387     3.986
    44   6 C        2.916    -0.046    29.135     8.851
    45   6 C        2.928    -0.022    28.546     8.762
    46   8 O        0.859    -0.398    21.636     6.236
    47   1 H        0.926     0.071     2.073     2.251
    48   1 H        0.926     0.061     2.191     2.315
    49   1 H        0.926     0.058     2.228     2.334
    50   1 H        0.926     0.046     2.370     2.407
    51   1 H        0.924     0.072     2.064     2.247
    52   1 H        0.924     0.068     2.103     2.268
    53   1 H        0.926     0.069     2.101     2.267
    54   1 H        0.926     0.059     2.211     2.325
    55   1 H        0.926     0.058     2.219     2.329
    56   1 H        0.926     0.067     2.119     2.276
    57   1 H        0.926     0.049     2.333     2.389
    58   1 H        0.926     0.070     2.083     2.257
    59   1 H        0.926     0.070     2.087     2.259
    60   1 H        0.926     0.061     2.191     2.315
    61   1 H        0.923     0.071     2.073     2.252
    62   1 H        0.804     0.350     0.589     1.205
    63   1 H        0.926     0.046     2.371     2.408
    64   1 H        0.926     0.069     2.094     2.263
    65   1 H        0.926     0.070     2.084     2.257
    66   1 H        0.926     0.062     2.181     2.309

Wiberg/Mayer (AO) data.
largest (>0.10) Wiberg bond orders for each atom

     #   Z sym  total        # sym  WBO       # sym  WBO       # sym  WBO
 ---------------------------------------------------------------------------
     1   6 C    3.971 --     6 C    1.413    10 C    1.387     2 C    0.952
                             8 C    0.105
     2   6 C    3.823 --     5 F    0.957     1 C    0.952     4 F    0.947
                             3 F    0.929
     3   9 F    1.056 --     2 C    0.929
     4   9 F    1.077 --     2 C    0.947
     5   9 F    1.080 --     2 C    0.957
     6   6 C    3.986 --     7 C    1.444     1 C    1.413    47 H    0.965
                             9 C    0.109
     7   6 C    3.988 --     6 C    1.444     8 C    1.432    48 H    0.968
                            10 C    0.109
     8   6 C    3.990 --     9 C    1.449     7 C    1.432    49 H    0.969
                             1 C    0.105
     9   6 C    3.990 --     8 C    1.449    10 C    1.408    50 H    0.967
                             6 C    0.109
    10   6 C    3.986 --     9 C    1.408     1 C    1.387    11 C    0.995
                             7 C    0.109
    11   6 C    3.963 --    10 C    0.995    37 N    0.953    12 C    0.952
                            51 H    0.951
    12   6 C    3.963 --    13 C    0.994    11 C    0.952    23 N    0.952
                            52 H    0.952
    13   6 C    3.986 --    22 C    1.409    14 C    1.386    12 C    0.994
                            20 C    0.108
    14   6 C    3.969 --    19 C    1.412    13 C    1.386    15 C    0.952
                            21 C    0.105
    15   6 C    3.820 --    17 F    0.959    14 C    0.952    18 F    0.943
                            16 F    0.926
    16   9 F    1.053 --    15 C    0.926
    17   9 F    1.081 --    15 C    0.959
    18   9 F    1.073 --    15 C    0.943
    19   6 C    3.987 --    20 C    1.444    14 C    1.412    53 H    0.965
                            22 C    0.109
    20   6 C    3.988 --    19 C    1.444    21 C    1.433    54 H    0.969
                            13 C    0.108
    21   6 C    3.990 --    22 C    1.448    20 C    1.433    55 H    0.969
                            14 C    0.105
    22   6 C    3.988 --    21 C    1.448    13 C    1.409    56 H    0.960
                            19 C    0.109
    23   7 N    3.456 --    24 C    1.198    33 C    0.988    12 C    0.952
                            32 O    0.194
    24   6 C    3.948 --    32 O    1.714    23 N    1.198    25 C    0.954
    25   6 C    3.987 --    26 C    1.403    31 C    1.403    24 C    0.954
    26   6 C    3.991 --    27 C    1.447    25 C    1.403    57 H    0.968
                            30 C    0.110
    27   6 C    3.989 --    26 C    1.447    28 C    1.392    58 H    0.965
                            31 C    0.110
    28   6 C    3.891 --    30 C    1.396    27 C    1.392    29 F    0.967
    29   9 F    1.100 --    28 C    0.967
    30   6 C    3.988 --    31 C    1.444    28 C    1.396    59 H    0.965
                            26 C    0.110
    31   6 C    3.989 --    30 C    1.444    25 C    1.403    60 H    0.968
                            27 C    0.110
    32   8 O    2.048 --    24 C    1.714    23 N    0.194
    33   6 C    3.971 --    23 N    0.988    37 N    0.984    61 H    0.942
                            34 C    0.905
    34   6 C    3.919 --    36 O    1.782    35 O    1.155    33 C    0.905
    35   8 O    2.217 --    34 C    1.155    62 H    0.851    36 O    0.183
    36   8 O    2.073 --    34 C    1.782    35 O    0.183
    37   7 N    3.444 --    38 C    1.183    33 C    0.984    11 C    0.953
                            46 O    0.187
    38   6 C    3.946 --    46 O    1.715    37 N    1.183    39 C    0.965
    39   6 C    3.987 --    45 C    1.404    40 C    1.400    38 C    0.965
    40   6 C    3.991 --    41 C    1.448    39 C    1.400    63 H    0.967
                            44 C    0.109
    41   6 C    3.989 --    40 C    1.448    42 C    1.391    64 H    0.965
                            45 C    0.109
    42   6 C    3.891 --    44 C    1.395    41 C    1.391    43 F    0.968
    43   9 F    1.102 --    42 C    0.968
    44   6 C    3.988 --    45 C    1.445    42 C    1.395    65 H    0.965
                            40 C    0.109
    45   6 C    3.989 --    44 C    1.445    39 C    1.404    66 H    0.968
                            41 C    0.109
    46   8 O    2.048 --    38 C    1.715    37 N    0.187
    47   1 H    0.995 --     6 C    0.965
    48   1 H    0.995 --     7 C    0.968
    49   1 H    0.996 --     8 C    0.969
    50   1 H    0.997 --     9 C    0.967
    51   1 H    0.994 --    11 C    0.951
    52   1 H    0.994 --    12 C    0.952
    53   1 H    0.995 --    19 C    0.965
    54   1 H    0.996 --    20 C    0.969
    55   1 H    0.996 --    21 C    0.969
    56   1 H    0.995 --    22 C    0.960
    57   1 H    0.998 --    26 C    0.968
    58   1 H    0.994 --    27 C    0.965
    59   1 H    0.995 --    30 C    0.965
    60   1 H    0.996 --    31 C    0.968
    61   1 H    0.994 --    33 C    0.942
    62   1 H    0.877 --    35 O    0.851
    63   1 H    0.998 --    40 C    0.967
    64   1 H    0.995 --    41 C    0.965
    65   1 H    0.995 --    44 C    0.965
    66   1 H    0.996 --    45 C    0.968
 ---------------------------------------------------------------------------

molecular dipole:
                 x           y           z       tot (Debye)
 q only:       -0.133       0.912       0.145
   full:       -0.046       1.291       0.282       3.359

           -------------------------------------------------
          | TOTAL ENERGY             -138.770522709508 Eh   |
          | GRADIENT NORM               0.000268724334 Eh/Î± |
          | HOMO-LUMO GAP               3.321675160124 eV   |
           -------------------------------------------------

 * finished run on 2022/03/16 at 21:58:46.375
