   * xtb version 6.3.3 (4ae9cef) compiled by 'conda@95abc7406d43' on 2020-10-14
          program call               : xtb acid_140.xyz --opt --chrg 0 --uhf 0 --gfn 2
          number of atoms            :                    72
          number of electrons        :                   202
          charge                     :                     0
          spin                       :                   0.0

   ID    Z sym.   atoms
    1    6 C      1-14, 16-24, 26, 27, 31-39
    2    7 N      15, 30
    3    8 O      25, 28, 29, 40
    4    1 H      41-72

          :  Hamiltonian                  GFN2-xTB          :
 * total energy  :  -111.2456223 Eh     change       -0.6486843E-08 Eh
 * total energy  :  -111.2575622 Eh     change       -0.1193988E-01 Eh
 * total energy  :  -111.2612251 Eh     change       -0.3662929E-02 Eh
 * total energy  :  -111.2624909 Eh     change       -0.1265817E-02 Eh
 * total energy  :  -111.2633722 Eh     change       -0.8812703E-03 Eh
 * total energy  :  -111.2639779 Eh     change       -0.6056527E-03 Eh
 * total energy  :  -111.2646207 Eh     change       -0.6428455E-03 Eh
 * total energy  :  -111.2653449 Eh     change       -0.7242373E-03 Eh
 * total energy  :  -111.2661396 Eh     change       -0.7946780E-03 Eh
 * total energy  :  -111.2668839 Eh     change       -0.7442960E-03 Eh
 * total energy  :  -111.2881392 Eh     change       -0.2794841E-04 Eh
 * total energy  :  -111.2881645 Eh     change       -0.2529372E-04 Eh
 * total energy  :  -111.2881808 Eh     change       -0.1633269E-04 Eh
 * total energy  :  -111.2881903 Eh     change       -0.9517815E-05 Eh
 * total energy  :  -111.2882001 Eh     change       -0.9793948E-05 Eh
 * total energy  :  -111.2882129 Eh     change       -0.1279258E-04 Eh
 * total energy  :  -111.2882243 Eh     change       -0.1137089E-04 Eh
 * total energy  :  -111.2882304 Eh     change       -0.6076337E-05 Eh
 * total energy  :  -111.2882347 Eh     change       -0.4321622E-05 Eh
   *** GEOMETRY OPTIMIZATION CONVERGED AFTER 83 ITERATIONS ***

 final structure:
================
72
 xtb: 6.3.3 (4ae9cef)
C         2.93105401420744   -1.78506675679977    0.58523832583969
C         3.95727128981591   -1.97034243489321    1.49456548794663
C         3.96838424798241   -1.26134235306971    2.68246871218725
C         2.94144679340790   -0.37616459133257    2.96538510421139
C         1.91462402164298   -0.19130637199027    2.05905127177914
C         1.91223324648731   -0.88380335276511    0.85379814724219
C         0.78435728710401   -0.69750727416621   -0.12407955183203
C        -0.53004628038651   -1.29186493898499    0.43367025727724
C        -0.76257436020345   -2.68998918281162   -0.07143797433129
C        -0.52586246366845   -3.78019698833385    0.75235430047017
C        -0.70576615831438   -5.06641710065712    0.27529916823328
C        -1.12461530619224   -5.27278432445995   -1.02763262333095
C        -1.35746873421018   -4.18780831160648   -1.85573421750199
C        -1.17055614642971   -2.90258693026070   -1.38191734719574
N        -1.55152669665597   -0.36425544541990   -0.02885174000348
C        -2.86842962489078   -0.60621768303106    0.23948421751842
C        -3.80929611439160    0.40243850275672   -0.32653648600925
C        -3.90483422532393    0.57191055896855   -1.70210415958084
C        -4.80420585799095    1.48665376145165   -2.21775939153511
C        -5.59092484120282    2.24184444511984   -1.36759401806527
C        -5.50914941624150    2.07870745974531    0.00941523609165
C        -6.31480174816633    2.94866099936369    0.92908374808753
C        -5.62570658606960    4.30541647858516    1.09051452556453
C        -4.62380848721290    1.14062959280109    0.51907668665324
O        -3.22140892691262   -1.59103567477953    0.85296599053836
C        -0.98831522180472    0.90869582296691   -0.40480861892087
C        -1.38728091989323    2.03973664373218    0.56825441756619
O        -0.93116415946850    1.79428045048129    1.80372764986674
O        -2.13577550764578    2.93454519681257    0.30112366942526
N         0.44311763476581    0.69214369910979   -0.37304128929877
C         1.23010587927214    1.78823073482359   -0.25192446923819
C         2.69629503166351    1.57321790048582   -0.35273718263417
C         3.23235640461878    0.88601210569670   -1.43348395719016
C         4.60486050544880    0.72337905746692   -1.55973821231235
C         5.17613496699178   -0.02088798523827   -2.73338029508734
C         5.03668876513103   -1.53244146019187   -2.54804677991175
C         5.43165253093324    1.23912739461840   -0.57000620891880
C         4.90407886068949    1.94128014809042    0.49974276325981
C         3.53907719118296    2.12794431921696    0.60271250222888
O         0.72087765471631    2.88946593552578   -0.11550405985498
H         2.91959203493800   -2.34605638691819   -0.33739562184750
H         4.74876915814814   -2.67102419710190    1.27428825934164
H         4.77175519924271   -1.40202361370385    3.38990217254627
H         2.94063768706855    0.17080408120569    3.89639268845201
H         1.11573481383795    0.50191753313034    2.27906999891886
H         1.02794855587079   -1.19361646923079   -1.07462726410875
H        -0.50547179518474   -1.29959658267240    1.53201847805007
H        -0.20574877481272   -3.61952515501531    1.77137116418888
H        -0.52476290372600   -5.90966724349412    0.92518257362353
H        -1.27345349163836   -6.27658508968890   -1.39689593888128
H        -1.68710042086348   -4.34340494095706   -2.87253547635406
H        -1.35603593144124   -2.05600567188583   -2.02785385146140
H        -3.29259778752080   -0.02458194361873   -2.36361793075775
H        -4.88627829756957    1.61574047364714   -3.28713242663539
H        -6.28053129833940    2.96618303324498   -1.77665486869576
H        -7.31777569918819    3.09661585798435    0.52262364729058
H        -6.40847127208611    2.46887779736279    1.90506703230211
H        -6.15685870003337    4.92123627825913    1.81292414779311
H        -4.60092882687847    4.16698616368242    1.42587999051302
H        -5.59608722408631    4.83001639343496    0.13883020294472
H        -4.55173386147683    0.98652662726602    1.58636891471427
H        -1.31445070566038    1.22579990830814   -1.40849625655577
H        -1.19275283462368    2.51560187965277    2.39727572002434
H         2.57599243182296    0.49710935151454   -2.19898523399606
H         6.23182582918863    0.23107897147739   -2.84764202457731
H         4.65511162770234    0.27786570467056   -3.64566840816652
H         5.50230154085623   -2.06022287822720   -3.37701393530412
H         5.51463407704899   -1.84483063351427   -1.62249529429932
H         3.98764999543146   -1.81500061325240   -2.50557746712674
H         6.50101920808735    1.10487159634634   -0.64799584593229
H         5.56180663908446    2.35299917981148    1.25048800626000
H         3.11516448399056    2.68961154127921    1.42044624852556

          :  Hamiltonian                  GFN2-xTB          :
         :: total energy            -111.288234697379 Eh    ::
         :: gradient norm              0.000296541171 Eh/a0 ::
         :: HOMO-LUMO gap              3.482465642312 eV    ::
         :: SCC energy              -113.039993135517 Eh    ::
         :: -> dispersion             -0.100112575873 Eh    ::
         :: repulsion energy           1.748836103859 Eh    ::

    * Orbital Energies and Occupations

         #    Occupation            Energy/Eh            Energy/eV
      -------------------------------------------------------------
         1        2.0000           -0.7521409             -20.4668
       ...           ...                  ...                  ...
        89        2.0000           -0.4245277             -11.5520
        90        2.0000           -0.4213282             -11.4649
        91        2.0000           -0.4180394             -11.3754
        92        2.0000           -0.4128883             -11.2353
        93        2.0000           -0.4115445             -11.1987
        94        2.0000           -0.4092874             -11.1373
        95        2.0000           -0.4077527             -11.0955
        96        2.0000           -0.4057175             -11.0401
        97        2.0000           -0.4027507             -10.9594
        98        2.0000           -0.4005339             -10.8991
        99        2.0000           -0.3948991             -10.7458
       100        2.0000           -0.3898370             -10.6080
       101        2.0000           -0.3863927             -10.5143 (HOMO)
       102                         -0.2584144              -7.0318 (LUMO)
       103                         -0.2460038              -6.6941
       104                         -0.2398370              -6.5263
       105                         -0.2372713              -6.4565
       106                         -0.2361319              -6.4255
       107                         -0.2326361              -6.3304
       108                         -0.2286774              -6.2226
       109                         -0.2273118              -6.1855
       110                         -0.2191674              -5.9638
       111                         -0.2040920              -5.5536
       112                         -0.1973858              -5.3711
       ...                                ...                  ...
       192                          0.6706209              18.2485
      -------------------------------------------------------------
                  HL-Gap            0.1279783 Eh            3.4825 eV

     #   Z          covCN         q      C6AA      Î±(0)
     1   6 C        2.924    -0.034    28.848     8.808
     2   6 C        2.920    -0.027    28.675     8.781
     3   6 C        2.920    -0.029    28.726     8.789
     4   6 C        2.920    -0.027    28.677     8.782
     5   6 C        2.924    -0.035    28.870     8.811
     6   6 C        2.974     0.001    28.011     8.681
     7   6 C        3.818     0.041    19.872     6.344
     8   6 C        3.828     0.050    19.715     6.318
     9   6 C        2.974     0.013    27.729     8.638
    10   6 C        2.924    -0.028    28.713     8.787
    11   6 C        2.920    -0.025    28.632     8.775
    12   6 C        2.920    -0.028    28.710     8.787
    13   6 C        2.920    -0.027    28.671     8.781
    14   6 C        2.924    -0.030    28.737     8.791
    15   7 N        2.762    -0.124    23.683     7.228
    16   6 C        2.764     0.272    22.406     7.752
    17   6 C        2.976    -0.021    28.520     8.760
    18   6 C        2.924    -0.032    28.805     8.801
    19   6 C        2.918    -0.026    28.663     8.779
    20   6 C        2.926    -0.031    28.784     8.798
    21   6 C        2.972     0.024    27.457     8.595
    22   6 C        3.807    -0.058    21.604     6.617
    23   6 C        3.755    -0.100    22.470     6.759
    24   6 C        2.929    -0.026    28.660     8.780
    25   8 O        0.859    -0.419    22.064     6.298
    26   6 C        3.767     0.098    19.002     6.213
    27   6 C        2.688     0.367    20.773     7.459
    28   8 O        1.659    -0.375    20.361     6.091
    29   8 O        0.856    -0.388    21.451     6.210
    30   7 N        2.764    -0.112    23.440     7.191
    31   6 C        2.774     0.273    22.383     7.749
    32   6 C        2.975    -0.013    28.336     8.732
    33   6 C        2.929    -0.036    28.903     8.817
    34   6 C        2.970     0.018    27.603     8.618
    35   6 C        3.807    -0.060    21.641     6.622
    36   6 C        3.753    -0.097    22.419     6.752
    37   6 C        2.926    -0.035    28.877     8.813
    38   6 C        2.918    -0.028    28.702     8.785
    39   6 C        2.924    -0.024    28.597     8.770
    40   8 O        0.861    -0.426    22.201     6.317
    41   1 H        0.926     0.033     2.545     2.495
    42   1 H        0.926     0.038     2.479     2.462
    43   1 H        0.926     0.039     2.463     2.454
    44   1 H        0.926     0.040     2.451     2.448
    45   1 H        0.926     0.048     2.347     2.396
    46   1 H        0.923     0.046     2.374     2.410
    47   1 H        0.923     0.056     2.250     2.346
    48   1 H        0.926     0.035     2.520     2.482
    49   1 H        0.926     0.038     2.473     2.459
    50   1 H        0.926     0.037     2.492     2.468
    51   1 H        0.926     0.036     2.500     2.473
    52   1 H        0.926     0.029     2.601     2.522
    53   1 H        0.926     0.025     2.662     2.551
    54   1 H        0.926     0.036     2.497     2.471
    55   1 H        0.926     0.039     2.467     2.456
    56   1 H        0.924     0.039     2.468     2.457
    57   1 H        0.924     0.037     2.484     2.465
    58   1 H        0.925     0.036     2.509     2.477
    59   1 H        0.925     0.046     2.371     2.408
    60   1 H        0.925     0.040     2.443     2.444
    61   1 H        0.926     0.037     2.488     2.467
    62   1 H        0.923     0.065     2.144     2.290
    63   1 H        0.804     0.338     0.616     1.233
    64   1 H        0.926     0.033     2.540     2.492
    65   1 H        0.924     0.041     2.436     2.441
    66   1 H        0.924     0.042     2.421     2.433
    67   1 H        0.925     0.040     2.443     2.444
    68   1 H        0.925     0.037     2.485     2.465
    69   1 H        0.925     0.034     2.537     2.491
    70   1 H        0.926     0.039     2.461     2.453
    71   1 H        0.926     0.041     2.442     2.444
    72   1 H        0.926     0.046     2.367     2.406

Wiberg/Mayer (AO) data.
largest (>0.10) Wiberg bond orders for each atom

     #   Z sym  total        # sym  WBO       # sym  WBO       # sym  WBO
 ---------------------------------------------------------------------------
     1   6 C    3.991 --     2 C    1.439     6 C    1.417    41 H    0.967
                             4 C    0.109
     2   6 C    3.992 --     3 C    1.443     1 C    1.439    42 H    0.970
                             5 C    0.112
     3   6 C    3.990 --     2 C    1.443     4 C    1.433    43 H    0.971
                             6 C    0.109
     4   6 C    3.992 --     5 C    1.450     3 C    1.433    44 H    0.971
                             1 C    0.109
     5   6 C    3.990 --     4 C    1.450     6 C    1.405    45 H    0.964
                             2 C    0.112
     6   6 C    3.985 --     1 C    1.417     5 C    1.405     7 C    0.993
                             3 C    0.109
     7   6 C    3.966 --     6 C    0.993    30 N    0.961    46 H    0.954
                             8 C    0.947
     8   6 C    3.965 --     9 C    0.991    15 N    0.960    47 H    0.952
                             7 C    0.947
     9   6 C    3.985 --    10 C    1.415    14 C    1.409     8 C    0.991
                            12 C    0.109
    10   6 C    3.990 --    11 C    1.443     9 C    1.415    48 H    0.969
                            13 C    0.111
    11   6 C    3.992 --    10 C    1.443    12 C    1.441    49 H    0.971
                            14 C    0.111
    12   6 C    3.991 --    11 C    1.441    13 C    1.436    50 H    0.971
                             9 C    0.109
    13   6 C    3.992 --    14 C    1.448    12 C    1.436    51 H    0.971
                            10 C    0.111
    14   6 C    3.991 --    13 C    1.448     9 C    1.409    52 H    0.968
                            11 C    0.111
    15   7 N    3.442 --    16 C    1.186    26 C    0.984     8 C    0.960
                            25 O    0.184
    16   6 C    3.942 --    25 O    1.701    15 N    1.186    17 C    0.969
    17   6 C    3.987 --    24 C    1.410    18 C    1.397    16 C    0.969
                            20 C    0.107
    18   6 C    3.991 --    19 C    1.441    17 C    1.397    53 H    0.969
                            21 C    0.108
    19   6 C    3.992 --    20 C    1.444    18 C    1.441    54 H    0.970
                            24 C    0.107
    20   6 C    3.991 --    19 C    1.444    21 C    1.408    55 H    0.969
                            17 C    0.107
    21   6 C    3.987 --    24 C    1.414    20 C    1.408    22 C    1.013
                            18 C    0.108
    22   6 C    3.997 --    21 C    1.013    23 C    1.000    57 H    0.976
                            56 H    0.972
    23   6 C    3.995 --    22 C    1.000    60 H    0.988    59 H    0.987
                            58 H    0.986
    24   6 C    3.990 --    21 C    1.414    17 C    1.410    61 H    0.968
                            19 C    0.107
    25   8 O    2.024 --    16 C    1.701    15 N    0.184
    26   6 C    3.966 --    15 N    0.984    30 N    0.978    62 H    0.944
                            27 C    0.908
    27   6 C    3.923 --    29 O    1.774    28 O    1.125    26 C    0.908
    28   8 O    2.191 --    27 C    1.125    63 H    0.861    29 O    0.167
    29   8 O    2.063 --    27 C    1.774    28 O    0.167
    30   7 N    3.464 --    31 C    1.221    26 C    0.978     7 C    0.961
                            40 O    0.182
    31   6 C    3.941 --    40 O    1.645    30 N    1.221    32 C    0.982
    32   6 C    3.987 --    33 C    1.403    39 C    1.394    31 C    0.982
                            37 C    0.105
    33   6 C    3.990 --    34 C    1.415    32 C    1.403    64 H    0.967
                            38 C    0.107
    34   6 C    3.988 --    33 C    1.415    37 C    1.410    35 C    1.012
                            39 C    0.106
    35   6 C    3.996 --    34 C    1.012    36 C    1.002    65 H    0.976
                            66 H    0.971
    36   6 C    3.996 --    35 C    1.002    68 H    0.988    69 H    0.986
                            67 H    0.986
    37   6 C    3.991 --    38 C    1.440    34 C    1.410    70 H    0.969
                            32 C    0.105
    38   6 C    3.991 --    39 C    1.446    37 C    1.440    71 H    0.970
                            33 C    0.107
    39   6 C    3.989 --    38 C    1.446    32 C    1.394    72 H    0.969
                            34 C    0.106
    40   8 O    2.053 --    31 C    1.645    30 N    0.182
    41   1 H    0.999 --     1 C    0.967
    42   1 H    0.998 --     2 C    0.970
    43   1 H    0.998 --     3 C    0.971
    44   1 H    0.998 --     4 C    0.971
    45   1 H    0.998 --     5 C    0.964
    46   1 H    0.997 --     7 C    0.954
    47   1 H    0.996 --     8 C    0.952
    48   1 H    0.999 --    10 C    0.969
    49   1 H    0.998 --    11 C    0.971
    50   1 H    0.998 --    12 C    0.971
    51   1 H    0.998 --    13 C    0.971
    52   1 H    0.999 --    14 C    0.968
    53   1 H    0.999 --    18 C    0.969
    54   1 H    0.998 --    19 C    0.970
    55   1 H    0.998 --    20 C    0.969
    56   1 H    0.998 --    22 C    0.972
    57   1 H    0.998 --    22 C    0.976
    58   1 H    0.998 --    23 C    0.986
    59   1 H    0.998 --    23 C    0.987
    60   1 H    0.998 --    23 C    0.988
    61   1 H    0.999 --    24 C    0.968
    62   1 H    0.995 --    26 C    0.944
    63   1 H    0.885 --    28 O    0.861
    64   1 H    0.999 --    33 C    0.967
    65   1 H    0.998 --    35 C    0.976
    66   1 H    0.998 --    35 C    0.971
    67   1 H    0.997 --    36 C    0.986
    68   1 H    0.999 --    36 C    0.988
    69   1 H    0.999 --    36 C    0.986
    70   1 H    0.998 --    37 C    0.969
    71   1 H    0.998 --    38 C    0.970
    72   1 H    0.997 --    39 C    0.969
 ---------------------------------------------------------------------------

molecular dipole:
                 x           y           z       tot (Debye)
 q only:        1.850      -0.955      -0.145
   full:        1.932      -0.792      -0.137       5.320

           -------------------------------------------------
          | TOTAL ENERGY             -111.288234697379 Eh   |
          | GRADIENT NORM               0.000296541171 Eh/Î± |
          | HOMO-LUMO GAP               3.482465642312 eV   |
           -------------------------------------------------

 * finished run on 2022/03/16 at 21:48:05.341
