   * xtb version 6.3.3 (4ae9cef) compiled by 'conda@95abc7406d43' on 2020-10-14
          program call               : xtb acid_316.xyz --opt --chrg 0 --uhf 0 --gfn 2
          number of atoms            :                    72
          number of electrons        :                   242
          charge                     :                     0
          spin                       :                   0.0

   ID    Z sym.   atoms
    1    6 C      1, 2, 6-15, 19-22, 24-27, 29-31, 33, 34, 38-41, 43-45
    2    9 F      3-5, 16-18
    3    7 N      23, 37
    4    8 O      28, 32, 35, 36, 42, 46
    5    1 H      47-72

          :  Hamiltonian                  GFN2-xTB          :
 * total energy  :  -140.5005383 Eh     change       -0.1730996E-08 Eh
 * total energy  :  -140.5148426 Eh     change       -0.1430431E-01 Eh
 * total energy  :  -140.5194357 Eh     change       -0.4593121E-02 Eh
 * total energy  :  -140.5211831 Eh     change       -0.1747312E-02 Eh
 * total energy  :  -140.5226218 Eh     change       -0.1438717E-02 Eh
 * total energy  :  -140.5235707 Eh     change       -0.9489218E-03 Eh
 * total energy  :  -140.5243830 Eh     change       -0.8123567E-03 Eh
 * total energy  :  -140.5252409 Eh     change       -0.8578553E-03 Eh
 * total energy  :  -140.5261649 Eh     change       -0.9239532E-03 Eh
 * total energy  :  -140.5270512 Eh     change       -0.8863369E-03 Eh
 * total energy  :  -140.5401754 Eh     change       -0.1738508E-04 Eh
 * total energy  :  -140.5401931 Eh     change       -0.1772424E-04 Eh
 * total energy  :  -140.5402104 Eh     change       -0.1730683E-04 Eh
 * total energy  :  -140.5402181 Eh     change       -0.7722898E-05 Eh
 * total energy  :  -140.5402258 Eh     change       -0.7726832E-05 Eh
 * total energy  :  -140.5402353 Eh     change       -0.9459182E-05 Eh
 * total energy  :  -140.5402408 Eh     change       -0.5536395E-05 Eh
 * total energy  :  -140.5402468 Eh     change       -0.5934923E-05 Eh
 * total energy  :  -140.5402500 Eh     change       -0.3200366E-05 Eh
   *** GEOMETRY OPTIMIZATION CONVERGED AFTER 140 ITERATIONS ***

 final structure:
================
72
 xtb: 6.3.3 (4ae9cef)
C        -2.79199020220955   -1.65805664975800   -0.30475297636299
C        -2.70277061885830   -2.50514011689890    0.93228837448424
F        -2.75680953575640   -1.79342553249418    2.07838792821819
F        -3.68736015616085   -3.40564623879170    1.02655736479727
F        -1.55270092483509   -3.20619411880301    1.00492064999234
C        -3.85215396945139   -1.88065212610999   -1.17612158191176
C        -3.94358563004223   -1.17305563076653   -2.35855900383640
C        -2.96230492431399   -0.25313857528223   -2.68406897667921
C        -1.91378811549445   -0.02123746989187   -1.81501053775588
C        -1.82032735418701   -0.70173305480107   -0.60471480081448
C        -0.64302197914888   -0.40515315126891    0.29276702780887
C         0.67400557969675   -0.91085097133055   -0.34901961816536
C         1.15685990505888   -2.20838776201407    0.24564978432013
C         1.13434883465650   -3.42180631942535   -0.44164735693359
C         0.58777545874263   -3.51683333129690   -1.83918938466666
F        -0.70578169005497   -3.11908848242694   -1.91055017967323
F         0.60028784330128   -4.76705321304207   -2.32075150171109
F         1.24329957836615   -2.77058518643199   -2.74035629388481
C         1.59852001707948   -4.58143860335554    0.16678292665804
C         2.08398097902595   -4.54540923153634    1.45978542443645
C         2.10165423011787   -3.34831589653151    2.15335220724350
C         1.63995658011415   -2.19554746460326    1.54893357347787
N         1.62953770450460    0.15532364579065   -0.07155659651377
C         2.91783497031769    0.01851846983367   -0.51344611054123
C         3.78124809802362    1.19528689259988   -0.31851602452136
C         4.59576004133811    1.74020270822503   -1.27676442862280
C         4.78393433790723    1.37942357534005   -2.70351246944911
O         5.26439679667534    2.79151031381684   -0.76444765099078
C         4.91328770960331    2.91704681299325    0.53749015519772
C         5.54014058883320    4.00034681501644    1.33785975931096
C         4.00035395523467    1.96423704729582    0.86384882673099
O         3.30353988603195   -1.02214457319299   -1.00552730256792
C         0.96498193502379    1.40069736476590    0.20346249666655
C         1.03051722517589    2.38183383619694   -0.98890204330467
O         1.72261481612136    3.47351268895582   -0.69878538048776
O         0.59355765857228    2.12037056830700   -2.07761592218815
N        -0.41350451465008    1.02443353304729    0.44145484967480
C        -1.33401282887874    2.02697467021466    0.38736491698363
C        -2.70610795875128    1.65588324682323    0.77065312270343
C        -3.11389490218276    1.21922477414377    2.00321133179352
C        -2.37041330264994    1.04040823035612    3.27685091815529
O        -4.44545856017429    1.01640609153925    1.99478760647149
C        -4.90928506841139    1.32237649994441    0.76038077400822
C        -6.35977460178031    1.15257290124319    0.48813374533616
C        -3.88380436966658    1.74069368598984   -0.02832569779022
O        -0.97609871289183    3.15666894778364    0.10399244438945
H        -4.59876003792387   -2.61871231221297   -0.92841541948879
H        -4.76981431717387   -1.35384996433359   -3.02803470591768
H        -3.00878767560022    0.28560171614634   -3.61788692591963
H        -1.15740968562767    0.70470510546190   -2.07649768247725
H        -0.76578895168986   -0.85284836529262    1.28516411054886
H         0.54718496388293   -0.99769349729478   -1.43367733896879
H         1.57893725383245   -5.51286536468064   -0.37693257060033
H         2.44547937914872   -5.45054457526650    1.92204305272536
H         2.47600556092999   -3.31190748287282    3.16517489810931
H         1.66294003466629   -1.25943707562924    2.08697131071258
H         5.83507714458726    1.45995706952391   -2.97240583251744
H         4.21441384821567    2.04703287793919   -3.35138999538187
H         4.44290702923873    0.36004377502268   -2.85994763991437
H         5.13949543104429    3.98845063726594    2.34662001608519
H         6.62047429962804    3.86626159529810    1.37986399777505
H         5.33931043404541    4.96995919875052    0.88450813992995
H         3.56920288310323    1.80060920345109    1.83019869257332
H         1.38139838788828    1.91319629918895    1.08209489450142
H         1.70607394956002    4.09617366928319   -1.44329933984329
H        -2.68144980074248    1.79590670624645    3.99872702451624
H        -2.57986323252185    0.06127842890029    3.70228243256457
H        -1.30414988977293    1.14349003690409    3.09847014037210
H        -6.57027544233746    1.41726163803155   -0.54318593076973
H        -6.65733109361462    0.11945453627355    0.66237008935436
H        -6.94873907864496    1.78725525925705    1.14885962309224
H        -3.93397620307201    2.05816126450925   -1.04844741058291

          :  Hamiltonian                  GFN2-xTB          :
         :: total energy            -140.540249977934 Eh    ::
         :: gradient norm              0.000660075450 Eh/a0 ::
         :: HOMO-LUMO gap              3.129418674467 eV    ::
         :: SCC energy              -142.138697792454 Eh    ::
         :: -> dispersion             -0.104954436702 Eh    ::
         :: repulsion energy           1.594120927422 Eh    ::

    * Orbital Energies and Occupations

         #    Occupation            Energy/Eh            Energy/eV
      -------------------------------------------------------------
         1        2.0000           -0.8840480             -24.0562
       ...           ...                  ...                  ...
       109        2.0000           -0.4462421             -12.1429
       110        2.0000           -0.4404755             -11.9859
       111        2.0000           -0.4387281             -11.9384
       112        2.0000           -0.4347145             -11.8292
       113        2.0000           -0.4314072             -11.7392
       114        2.0000           -0.4276786             -11.6377
       115        2.0000           -0.4238393             -11.5333
       116        2.0000           -0.4178089             -11.3692
       117        2.0000           -0.4139302             -11.2636
       118        2.0000           -0.4031340             -10.9698
       119        2.0000           -0.3964726             -10.7886
       120        2.0000           -0.3863130             -10.5121
       121        2.0000           -0.3827365             -10.4148 (HOMO)
       122                         -0.2677325              -7.2854 (LUMO)
       123                         -0.2601290              -7.0785
       124                         -0.2563965              -6.9769
       125                         -0.2505426              -6.8176
       126                         -0.2500573              -6.8044
       127                         -0.2406867              -6.5494
       128                         -0.2366794              -6.4404
       129                         -0.2127044              -5.7880
       130                         -0.2069886              -5.6324
       131                         -0.1654884              -4.5032
       132                         -0.1525752              -4.1518
       ...                                ...                  ...
       210                          0.6870726              18.6962
      -------------------------------------------------------------
                  HL-Gap            0.1150040 Eh            3.1294 eV

     #   Z          covCN         q      C6AA      Î±(0)
     1   6 C        2.976    -0.032    28.785     8.801
     2   6 C        3.336     0.485    17.297     6.587
     3   9 F        0.791    -0.216    11.400     3.988
     4   9 F        0.792    -0.199    11.225     3.958
     5   9 F        0.791    -0.218    11.422     3.992
     6   6 C        2.924    -0.022    28.550     8.762
     7   6 C        2.920    -0.022    28.556     8.763
     8   6 C        2.919    -0.015    28.390     8.738
     9   6 C        2.926    -0.028    28.706     8.786
    10   6 C        2.971     0.011    27.759     8.642
    11   6 C        3.813     0.041    19.879     6.346
    12   6 C        3.829     0.052    19.691     6.314
    13   6 C        2.972     0.026    27.416     8.589
    14   6 C        2.976    -0.020    28.510     8.758
    15   6 C        3.335     0.486    17.290     6.586
    16   9 F        0.791    -0.226    11.505     4.007
    17   9 F        0.792    -0.202    11.251     3.962
    18   9 F        0.791    -0.199    11.227     3.958
    19   6 C        2.923    -0.018    28.469     8.750
    20   6 C        2.920    -0.021    28.533     8.760
    21   6 C        2.919    -0.017    28.441     8.745
    22   6 C        2.928    -0.024    28.607     8.771
    23   7 N        2.764    -0.124    23.684     7.228
    24   6 C        2.761     0.274    22.371     7.746
    25   6 C        3.065    -0.071    29.686     8.934
    26   6 C        3.080     0.124    25.204     8.230
    27   6 C        3.753    -0.120    22.868     6.819
    28   8 O        1.731    -0.194    17.236     5.606
    29   6 C        3.079     0.114    25.402     8.263
    30   6 C        3.753    -0.118    22.822     6.812
    31   6 C        3.006    -0.080    29.983     8.982
    32   8 O        0.859    -0.424    22.171     6.313
    33   6 C        3.767     0.094    19.061     6.222
    34   6 C        2.688     0.368    20.760     7.457
    35   8 O        1.659    -0.357    20.029     6.042
    36   8 O        0.856    -0.405    21.784     6.258
    37   7 N        2.767    -0.123    23.668     7.225
    38   6 C        2.768     0.278    22.303     7.734
    39   6 C        3.069    -0.065    29.538     8.912
    40   6 C        3.078     0.114    25.401     8.263
    41   6 C        3.753    -0.121    22.871     6.820
    42   8 O        1.732    -0.190    17.178     5.596
    43   6 C        3.081     0.111    25.478     8.275
    44   6 C        3.753    -0.119    22.831     6.814
    45   6 C        3.005    -0.076    29.880     8.967
    46   8 O        0.860    -0.421    22.112     6.305
    47   1 H        0.926     0.066     2.128     2.281
    48   1 H        0.926     0.058     2.223     2.331
    49   1 H        0.926     0.061     2.183     2.310
    50   1 H        0.926     0.083     1.949     2.183
    51   1 H        0.924     0.060     2.197     2.318
    52   1 H        0.924     0.069     2.094     2.263
    53   1 H        0.926     0.069     2.096     2.264
    54   1 H        0.926     0.058     2.227     2.334
    55   1 H        0.926     0.055     2.258     2.350
    56   1 H        0.926     0.050     2.322     2.383
    57   1 H        0.925     0.068     2.104     2.268
    58   1 H        0.924     0.062     2.176     2.307
    59   1 H        0.925     0.078     2.002     2.213
    60   1 H        0.925     0.058     2.227     2.333
    61   1 H        0.925     0.065     2.144     2.290
    62   1 H        0.925     0.065     2.138     2.286
    63   1 H        0.926     0.032     2.552     2.498
    64   1 H        0.923     0.074     2.046     2.237
    65   1 H        0.804     0.346     0.598     1.215
    66   1 H        0.924     0.069     2.093     2.262
    67   1 H        0.925     0.079     1.994     2.208
    68   1 H        0.925     0.051     2.308     2.376
    69   1 H        0.925     0.058     2.220     2.330
    70   1 H        0.925     0.064     2.150     2.293
    71   1 H        0.925     0.068     2.109     2.271
    72   1 H        0.927     0.043     2.407     2.426

Wiberg/Mayer (AO) data.
largest (>0.10) Wiberg bond orders for each atom

     #   Z sym  total        # sym  WBO       # sym  WBO       # sym  WBO
 ---------------------------------------------------------------------------
     1   6 C    3.968 --     6 C    1.409    10 C    1.386     2 C    0.952
                             8 C    0.104
     2   6 C    3.819 --     4 F    0.958     1 C    0.952     5 F    0.936
                             3 F    0.933
     3   9 F    1.063 --     2 C    0.933
     4   9 F    1.080 --     2 C    0.958
     5   9 F    1.062 --     2 C    0.936
     6   6 C    3.987 --     7 C    1.445     1 C    1.409    47 H    0.966
                             9 C    0.109
     7   6 C    3.988 --     6 C    1.445     8 C    1.431    48 H    0.969
                            10 C    0.107
     8   6 C    3.989 --     9 C    1.448     7 C    1.431    49 H    0.968
                             1 C    0.104
     9   6 C    3.984 --     8 C    1.448    10 C    1.407    50 H    0.955
                             6 C    0.109
    10   6 C    3.986 --     9 C    1.407     1 C    1.386    11 C    0.994
                             7 C    0.107
    11   6 C    3.969 --    10 C    0.994    37 N    0.963    51 H    0.954
                            12 C    0.947
    12   6 C    3.968 --    13 C    0.995    23 N    0.960    52 H    0.951
                            11 C    0.947
    13   6 C    3.986 --    22 C    1.408    14 C    1.386    12 C    0.995
                            20 C    0.109
    14   6 C    3.971 --    19 C    1.414    13 C    1.386    15 C    0.952
                            21 C    0.105
    15   6 C    3.822 --    17 F    0.955    14 C    0.952    18 F    0.951
                            16 F    0.926
    16   9 F    1.052 --    15 C    0.926
    17   9 F    1.077 --    15 C    0.955
    18   9 F    1.082 --    15 C    0.951
    19   6 C    3.987 --    20 C    1.443    14 C    1.414    53 H    0.965
                            22 C    0.109
    20   6 C    3.989 --    19 C    1.443    21 C    1.433    54 H    0.969
                            13 C    0.109
    21   6 C    3.990 --    22 C    1.449    20 C    1.433    55 H    0.969
                            14 C    0.105
    22   6 C    3.990 --    21 C    1.449    13 C    1.408    56 H    0.967
                            19 C    0.109
    23   7 N    3.432 --    24 C    1.173    33 C    0.987    12 C    0.960
                            32 O    0.177
    24   6 C    3.944 --    32 O    1.687    23 N    1.173    25 C    1.001
    25   6 C    3.971 --    26 C    1.526    31 C    1.231    24 C    1.001
    26   6 C    3.917 --    25 C    1.526    28 O    1.126    27 C    1.034
                            29 C    0.121
    27   6 C    3.990 --    26 C    1.034    59 H    0.977    57 H    0.972
                            58 H    0.963
    28   8 O    2.428 --    26 C    1.126    29 C    1.101
    29   6 C    3.911 --    31 C    1.600    28 O    1.101    30 C    1.030
                            26 C    0.121
    30   6 C    3.992 --    29 C    1.030    60 H    0.984    62 H    0.969
                            61 H    0.969
    31   6 C    3.977 --    29 C    1.600    25 C    1.231    63 H    0.973
    32   8 O    2.020 --    24 C    1.687    23 N    0.177
    33   6 C    3.964 --    23 N    0.987    37 N    0.976    64 H    0.944
                            34 C    0.905
    34   6 C    3.921 --    36 O    1.747    35 O    1.161    33 C    0.905
    35   8 O    2.222 --    34 C    1.161    65 H    0.855    36 O    0.173
    36   8 O    2.046 --    34 C    1.747    35 O    0.173
    37   7 N    3.444 --    38 C    1.198    33 C    0.976    11 C    0.963
                            46 O    0.179
    38   6 C    3.941 --    46 O    1.661    37 N    1.198    39 C    0.992
    39   6 C    3.972 --    40 C    1.529    45 C    1.234    38 C    0.992
    40   6 C    3.916 --    39 C    1.529    42 O    1.124    41 C    1.031
                            43 C    0.124
    41   6 C    3.992 --    40 C    1.031    68 H    0.983    67 H    0.968
                            66 H    0.964
    42   8 O    2.431 --    40 C    1.124    43 C    1.103
    43   6 C    3.910 --    45 C    1.597    42 O    1.103    44 C    1.029
                            40 C    0.124
    44   6 C    3.992 --    43 C    1.029    69 H    0.984    70 H    0.969
                            71 H    0.968
    45   6 C    3.977 --    43 C    1.597    39 C    1.234    72 H    0.974
    46   8 O    2.050 --    38 C    1.661    37 N    0.179
    47   1 H    0.995 --     6 C    0.966
    48   1 H    0.996 --     7 C    0.969
    49   1 H    0.995 --     8 C    0.968
    50   1 H    0.993 --     9 C    0.955
    51   1 H    0.996 --    11 C    0.954
    52   1 H    0.995 --    12 C    0.951
    53   1 H    0.995 --    19 C    0.965
    54   1 H    0.996 --    20 C    0.969
    55   1 H    0.996 --    21 C    0.969
    56   1 H    0.997 --    22 C    0.967
    57   1 H    0.995 --    27 C    0.972
    58   1 H    0.996 --    27 C    0.963
    59   1 H    0.993 --    27 C    0.977
    60   1 H    0.996 --    30 C    0.984
    61   1 H    0.995 --    30 C    0.969
    62   1 H    0.995 --    30 C    0.969
    63   1 H    0.999 --    31 C    0.973
    64   1 H    0.994 --    33 C    0.944
    65   1 H    0.880 --    35 O    0.855
    66   1 H    0.995 --    41 C    0.964
    67   1 H    0.993 --    41 C    0.968
    68   1 H    0.997 --    41 C    0.983
    69   1 H    0.996 --    44 C    0.984
    70   1 H    0.996 --    44 C    0.969
    71   1 H    0.995 --    44 C    0.968
    72   1 H    0.998 --    45 C    0.974
 ---------------------------------------------------------------------------

molecular dipole:
                 x           y           z       tot (Debye)
 q only:       -0.250       0.930       1.190
   full:       -0.289       1.132       1.207       4.269

           -------------------------------------------------
          | TOTAL ENERGY             -140.540249977934 Eh   |
          | GRADIENT NORM               0.000660075450 Eh/Î± |
          | HOMO-LUMO GAP               3.129418674467 eV   |
           -------------------------------------------------

 * finished run on 2022/03/16 at 23:44:54.777
