   * xtb version 6.3.3 (4ae9cef) compiled by 'conda@95abc7406d43' on 2020-10-14
          program call               : xtb acid_123.xyz --opt --chrg 0 --uhf 0 --gfn 2
          number of atoms            :                    76
          number of electrons        :                   246
          charge                     :                     0
          spin                       :                   0.0

   ID    Z sym.   atoms
    1    6 C      1-22, 24-29, 33, 35, 36, 40-43, 47-49
    2    7 N      23, 30, 39, 44
    3    8 O      31, 32, 34, 37, 38, 45, 46, 50
    4    1 H      51-76

          :  Hamiltonian                  GFN2-xTB          :
 * total energy  :  -138.6691196 Eh     change       -0.9319848E-08 Eh
 * total energy  :  -138.6905926 Eh     change       -0.2147306E-01 Eh
 * total energy  :  -138.6974254 Eh     change       -0.6832757E-02 Eh
 * total energy  :  -138.6994660 Eh     change       -0.2040651E-02 Eh
 * total energy  :  -138.7005970 Eh     change       -0.1130999E-02 Eh
 * total energy  :  -138.7014397 Eh     change       -0.8426812E-03 Eh
 * total energy  :  -138.7019564 Eh     change       -0.5166539E-03 Eh
 * total energy  :  -138.7024776 Eh     change       -0.5212588E-03 Eh
 * total energy  :  -138.7030507 Eh     change       -0.5730744E-03 Eh
 * total energy  :  -138.7035391 Eh     change       -0.4884076E-03 Eh
 * total energy  :  -138.7160885 Eh     change       -0.7822807E-05 Eh
 * total energy  :  -138.7161048 Eh     change       -0.1626237E-04 Eh
 * total energy  :  -138.7161114 Eh     change       -0.6619959E-05 Eh
 * total energy  :  -138.7161176 Eh     change       -0.6204191E-05 Eh
 * total energy  :  -138.7161251 Eh     change       -0.7465269E-05 Eh
 * total energy  :  -138.7161308 Eh     change       -0.5713247E-05 Eh
 * total energy  :  -138.7161373 Eh     change       -0.6462937E-05 Eh
 * total energy  :  -138.7161428 Eh     change       -0.5519903E-05 Eh
 * total energy  :  -138.7161474 Eh     change       -0.4638287E-05 Eh
   *** GEOMETRY OPTIMIZATION CONVERGED AFTER 79 ITERATIONS ***

 final structure:
================
76
 xtb: 6.3.3 (4ae9cef)
C        -1.74833849247802    2.94343665919401    4.90362132019899
C        -3.05849288564060    2.83524650627395    4.53430614116214
C        -3.38227218779137    2.45861987816447    3.22379688422498
C        -2.40174434804049    2.19137769126522    2.30811743423724
C        -1.03659486603975    2.28616732551840    2.65612134868693
C        -0.71247924130636    2.67637299001169    3.98457730620696
C         0.63932540688234    2.79155363437713    4.36874834763377
C         1.63609104366873    2.53406907681825    3.47427875640198
C         1.32507542318546    2.13932444393625    2.16472172321460
C         0.02442511053667    2.00923623573975    1.74601804990484
C        -0.31859309314665    1.53394075957833    0.35210039555312
C         0.86414389777514    1.32925646509150   -0.61435040942643
C         0.34787824153521    1.36380464642763   -2.03759367975817
C         0.05705114474638    0.20585244497825   -2.70989920352583
C        -0.46733032753580    0.22282750020034   -4.00976015621362
C        -0.69652910013527    1.41320694105736   -4.63506663396072
C        -0.42060365853000    2.63156803196732   -3.98048215083661
C         0.09771574219497    2.61822813313802   -2.65697938804334
C         0.32798037821380    3.85725657849967   -2.01931909685204
C         0.07684192835583    5.03809554860006   -2.66168093671119
C        -0.41826019515285    5.04751439727696   -3.97315618463942
C        -0.66299832466013    3.86755235192486   -4.61553865474009
N         1.33799189246653    0.00261151078008   -0.22895027895458
C         2.54731321714210   -0.46498925046587   -0.62201822553427
C         2.80506982040749   -1.91156302816020   -0.30401351224512
C         2.17691290398364   -2.91791275251642   -1.03274157365470
C         2.46095297706753   -4.25232154097057   -0.78608382584807
C         3.36554496479295   -4.59840607248015    0.20034071361438
C         3.98962755625929   -3.58889724666001    0.92179375015463
N         4.91570570013190   -3.93793150242080    1.97427856188398
O         5.22209912049439   -3.06410870628066    2.75629261629625
O         5.31000776255454   -5.08129573508926    2.01916907522460
C         3.73463199612218   -2.24913055580202    0.66649869780602
O         3.35497779462578    0.22616333894837   -1.19947532353626
C         0.32677037803649   -0.68282202527953    0.54790019176700
C         0.66948167584863   -0.82664785692199    2.04911279569070
O         1.96485080363009   -0.72364618185241    2.29927757894235
O        -0.16597634392969   -1.06746515773922    2.87400855684262
N        -0.83143120295592    0.16125242006071    0.41475245144351
C        -1.98656043368943   -0.18071621322557   -0.22182654257778
C        -2.22755869183024   -1.65201286772455   -0.34927336042514
C        -2.43698418485754   -2.17874415369047   -1.61527779318825
C        -2.67765764464034   -3.53905722404753   -1.74640003676300
N        -2.83711527536648   -4.09975256192638   -3.06892039211403
O        -3.23786490905376   -5.23929869436392   -3.15019111373934
O        -2.54127264758365   -3.39664071960350   -4.01015119372770
C        -2.75245293950124   -4.37111595173253   -0.63611614375505
C        -2.56404369850370   -3.83007875960360    0.62318353530336
C        -2.29203707397262   -2.47838661190809    0.77078987923937
O        -2.78042206150946    0.64282600451357   -0.61756029251176
H        -1.48072393704997    3.23699240341538    5.90857831910941
H        -3.84739201997699    3.04050571911392    5.24259305097866
H        -4.41971785426404    2.38010171041838    2.93467326742685
H        -2.69170996064796    1.90804804898279    1.31027372407930
H         0.86856332631568    3.08713961462033    5.38218957069372
H         2.67318572292221    2.62420034834842    3.76124021206031
H         2.14860707797424    1.92886682919642    1.50025222465398
H        -1.08662280634709    2.16755006273252   -0.09815619652511
H         1.67602969262823    2.04842338021036   -0.50069687637412
H         0.23843118436557   -0.75282473692482   -2.24480686066535
H        -0.68791973628884   -0.71201734039333   -4.50371167171302
H        -1.09853179761466    1.44054282842756   -5.63695369297703
H         0.70235577102921    3.88233085665176   -1.00747383656027
H         0.25941584467597    5.97516182648793   -2.15672335152436
H        -0.60599172391667    5.99005813595345   -4.46545668021677
H        -1.05040693956929    3.86003153830275   -5.62410687951682
H         1.48016959690280   -2.65917389514619   -1.81715413397267
H         1.97484512032781   -5.02199562820143   -1.36511503499961
H         3.59773474958492   -5.62896894268899    0.42092411607725
H         4.25784565430588   -1.48661819097600    1.22193347427429
H         0.13049921609622   -1.69962487090761    0.17835554732795
H         2.15710076072511   -0.81590572178223    3.24800478106419
H        -2.41195417948177   -1.54481910899199   -2.48921283215308
H        -2.95298612983469   -5.42228190155099   -0.77692861486934
H        -2.62306226187616   -4.46311498194257    1.49450897265860
H        -2.13061242382967   -2.05702712727931    1.75198839331367

          :  Hamiltonian                  GFN2-xTB          :
         :: total energy            -138.716147430900 Eh    ::
         :: gradient norm              0.000503950134 Eh/a0 ::
         :: HOMO-LUMO gap              1.425078167712 eV    ::
         :: SCC energy              -140.712916379108 Eh    ::
         :: -> dispersion             -0.116340177676 Eh    ::
         :: repulsion energy           1.992341635346 Eh    ::

    * Orbital Energies and Occupations

         #    Occupation            Energy/Eh            Energy/eV
      -------------------------------------------------------------
         1        2.0000           -0.7946553             -21.6237
       ...           ...                  ...                  ...
       111        2.0000           -0.4413807             -12.0106
       112        2.0000           -0.4372846             -11.8991
       113        2.0000           -0.4342114             -11.8155
       114        2.0000           -0.4313558             -11.7378
       115        2.0000           -0.4295345             -11.6882
       116        2.0000           -0.4290255             -11.6744
       117        2.0000           -0.4219559             -11.4820
       118        2.0000           -0.4201115             -11.4318
       119        2.0000           -0.4165184             -11.3340
       120        2.0000           -0.4156896             -11.3115
       121        2.0000           -0.4118026             -11.2057
       122        2.0000           -0.3939141             -10.7189
       123        2.0000           -0.3891872             -10.5903 (HOMO)
       124                         -0.3368165              -9.1652 (LUMO)
       125                         -0.3362391              -9.1495
       126                         -0.2901896              -7.8965
       127                         -0.2839034              -7.7254
       128                         -0.2815278              -7.6608
       129                         -0.2747470              -7.4762
       130                         -0.2716408              -7.3917
       131                         -0.2614581              -7.1146
       132                         -0.2608036              -7.0968
       133                         -0.2437851              -6.6337
       134                         -0.2404603              -6.5433
       ...                                ...                  ...
       226                          0.6827499              18.5786
      -------------------------------------------------------------
                  HL-Gap            0.0523707 Eh            1.4251 eV

     #   Z          covCN         q      C6AA      Î±(0)
     1   6 C        2.921    -0.033    28.824     8.804
     2   6 C        2.915    -0.026    28.663     8.779
     3   6 C        2.917    -0.025    28.631     8.775
     4   6 C        2.917    -0.039    28.976     8.827
     5   6 C        2.985     0.011    27.767     8.644
     6   6 C        2.988     0.016    27.638     8.624
     7   6 C        2.920    -0.034    28.850     8.808
     8   6 C        2.914    -0.035    28.879     8.812
     9   6 C        2.919    -0.042    29.050     8.839
    10   6 C        2.966    -0.012    28.315     8.728
    11   6 C        3.860     0.036    19.930     6.349
    12   6 C        3.839     0.039    19.888     6.344
    13   6 C        2.969    -0.004    28.129     8.700
    14   6 C        2.921    -0.032    28.797     8.800
    15   6 C        2.914    -0.030    28.761     8.794
    16   6 C        2.920    -0.032    28.791     8.799
    17   6 C        2.988     0.019    27.580     8.615
    18   6 C        2.986     0.010    27.794     8.648
    19   6 C        2.917    -0.037    28.927     8.820
    20   6 C        2.917    -0.026    28.662     8.779
    21   6 C        2.915    -0.027    28.679     8.782
    22   6 C        2.921    -0.031    28.782     8.798
    23   7 N        2.769    -0.113    23.467     7.195
    24   6 C        2.759     0.275    22.341     7.740
    25   6 C        2.975    -0.006    28.177     8.707
    26   6 C        2.923    -0.022    28.548     8.762
    27   6 C        2.920    -0.023    28.572     8.766
    28   6 C        2.918    -0.020    28.518     8.757
    29   6 C        2.917     0.006    27.893     8.661
    30   7 N        2.760     0.548    13.502     5.458
    31   8 O        0.930    -0.384    21.321     6.193
    32   8 O        0.930    -0.375    21.160     6.169
    33   6 C        2.922    -0.015    28.394     8.738
    34   8 O        0.859    -0.402    21.727     6.249
    35   6 C        3.786     0.089    19.117     6.228
    36   6 C        2.688     0.351    21.034     7.506
    37   8 O        1.659    -0.355    19.998     6.037
    38   8 O        0.856    -0.386    21.395     6.201
    39   7 N        2.781    -0.111    23.424     7.188
    40   6 C        2.763     0.277    22.318     7.737
    41   6 C        2.977    -0.009    28.243     8.717
    42   6 C        2.922    -0.017    28.432     8.744
    43   6 C        2.917     0.005    27.911     8.663
    44   7 N        2.759     0.547    13.510     5.459
    45   8 O        0.930    -0.377    21.199     6.175
    46   8 O        0.930    -0.381    21.262     6.184
    47   6 C        2.918    -0.020    28.516     8.757
    48   6 C        2.920    -0.021    28.534     8.760
    49   6 C        2.920    -0.024    28.600     8.770
    50   8 O        0.859    -0.402    21.727     6.249
    51   1 H        0.926     0.037     2.496     2.470
    52   1 H        0.926     0.036     2.498     2.471
    53   1 H        0.926     0.038     2.469     2.457
    54   1 H        0.926     0.053     2.282     2.362
    55   1 H        0.926     0.039     2.456     2.451
    56   1 H        0.926     0.037     2.487     2.466
    57   1 H        0.926     0.039     2.463     2.454
    58   1 H        0.924     0.089     1.888     2.149
    59   1 H        0.924     0.081     1.973     2.197
    60   1 H        0.926     0.008     2.918     2.671
    61   1 H        0.926     0.044     2.396     2.421
    62   1 H        0.926     0.043     2.414     2.430
    63   1 H        0.926     0.029     2.607     2.525
    64   1 H        0.926     0.036     2.509     2.477
    65   1 H        0.926     0.037     2.492     2.469
    66   1 H        0.926     0.039     2.462     2.454
    67   1 H        0.926     0.050     2.322     2.383
    68   1 H        0.926     0.062     2.173     2.305
    69   1 H        0.926     0.085     1.925     2.170
    70   1 H        0.926     0.092     1.860     2.133
    71   1 H        0.923     0.060     2.204     2.321
    72   1 H        0.804     0.353     0.580     1.197
    73   1 H        0.926     0.091     1.866     2.136
    74   1 H        0.926     0.085     1.927     2.171
    75   1 H        0.926     0.064     2.148     2.292
    76   1 H        0.926     0.076     2.021     2.223

Wiberg/Mayer (AO) data.
largest (>0.10) Wiberg bond orders for each atom

     #   Z sym  total        # sym  WBO       # sym  WBO       # sym  WBO
 ---------------------------------------------------------------------------
     1   6 C    3.991 --     2 C    1.555     6 C    1.280    51 H    0.968
                             4 C    0.119
     2   6 C    3.992 --     1 C    1.555     3 C    1.325    52 H    0.970
     3   6 C    3.992 --     4 C    1.551     2 C    1.325    53 H    0.971
     4   6 C    3.990 --     3 C    1.551     5 C    1.287    54 H    0.960
                             1 C    0.119
     5   6 C    3.988 --     4 C    1.287     6 C    1.255    10 C    1.245
     6   6 C    3.990 --     1 C    1.280     7 C    1.276     5 C    1.255
     7   6 C    3.990 --     8 C    1.558     6 C    1.276    55 H    0.968
                            10 C    0.113
     8   6 C    3.991 --     7 C    1.558     9 C    1.319    56 H    0.970
     9   6 C    3.990 --    10 C    1.527     8 C    1.319    57 H    0.963
    10   6 C    3.982 --     9 C    1.527     5 C    1.245    11 C    0.986
                             7 C    0.113
    11   6 C    3.953 --    10 C    0.986    12 C    0.959    58 H    0.945
                            39 N    0.943
    12   6 C    3.957 --    13 C    0.984    11 C    0.959    23 N    0.955
                            59 H    0.942
    13   6 C    3.984 --    14 C    1.531    18 C    1.248    12 C    0.984
                            16 C    0.114
    14   6 C    3.991 --    13 C    1.531    15 C    1.319    60 H    0.964
    15   6 C    3.991 --    16 C    1.558    14 C    1.319    61 H    0.969
    16   6 C    3.990 --    15 C    1.558    17 C    1.276    62 H    0.968
                            13 C    0.114
    17   6 C    3.990 --    22 C    1.280    16 C    1.276    18 C    1.255
    18   6 C    3.989 --    19 C    1.285    17 C    1.255    13 C    1.248
    19   6 C    3.992 --    20 C    1.553    18 C    1.285    63 H    0.966
                            22 C    0.118
    20   6 C    3.992 --    19 C    1.553    21 C    1.324    64 H    0.971
    21   6 C    3.992 --    22 C    1.556    20 C    1.324    65 H    0.971
    22   6 C    3.991 --    21 C    1.556    17 C    1.280    66 H    0.968
                            19 C    0.118
    23   7 N    3.472 --    24 C    1.216    35 C    0.982    12 C    0.955
                            34 O    0.197
    24   6 C    3.952 --    34 O    1.704    23 N    1.216    25 C    0.950
    25   6 C    3.987 --    33 C    1.419    26 C    1.400    24 C    0.950
                            28 C    0.106
    26   6 C    3.990 --    27 C    1.435    25 C    1.400    67 H    0.965
    27   6 C    3.989 --    28 C    1.448    26 C    1.435    68 H    0.967
                            33 C    0.107
    28   6 C    3.985 --    27 C    1.448    29 C    1.384    69 H    0.960
                            25 C    0.106
    29   6 C    3.964 --    33 C    1.388    28 C    1.384    30 N    0.957
    30   7 N    3.913 --    32 O    1.460    31 O    1.452    29 C    0.957
    31   8 O    1.936 --    30 N    1.452    32 O    0.367
    32   8 O    1.945 --    30 N    1.460    31 O    0.367
    33   6 C    3.983 --    25 C    1.419    29 C    1.388    70 H    0.958
                            27 C    0.107
    34   8 O    2.036 --    24 C    1.704    23 N    0.197
    35   6 C    3.976 --    39 N    0.995    23 N    0.982    71 H    0.928
                            36 C    0.910
    36   6 C    3.924 --    38 O    1.772    37 O    1.167    35 C    0.910
    37   8 O    2.230 --    36 C    1.167    72 H    0.848    38 O    0.183
    38   8 O    2.062 --    36 C    1.772    37 O    0.183
    39   7 N    3.454 --    40 C    1.197    35 C    0.995    11 C    0.943
                            50 O    0.188
    40   6 C    3.947 --    50 O    1.703    39 N    1.197    41 C    0.963
    41   6 C    3.987 --    42 C    1.416    49 C    1.391    40 C    0.963
                            47 C    0.103
    42   6 C    3.983 --    41 C    1.416    43 C    1.389    73 H    0.957
                            48 C    0.105
    43   6 C    3.964 --    42 C    1.389    47 C    1.383    44 N    0.956
    44   7 N    3.912 --    45 O    1.458    46 O    1.454    43 C    0.956
    45   8 O    1.943 --    44 N    1.458    46 O    0.367
    46   8 O    1.939 --    44 N    1.454    45 O    0.367
    47   6 C    3.984 --    48 C    1.447    43 C    1.383    74 H    0.960
                            41 C    0.103
    48   6 C    3.989 --    47 C    1.447    49 C    1.436    75 H    0.967
                            42 C    0.105
    49   6 C    3.985 --    48 C    1.436    41 C    1.391    76 H    0.963
    50   8 O    2.041 --    40 C    1.703    39 N    0.188
    51   1 H    0.998 --     1 C    0.968
    52   1 H    0.998 --     2 C    0.970
    53   1 H    0.998 --     3 C    0.971
    54   1 H    0.997 --     4 C    0.960
    55   1 H    0.997 --     7 C    0.968
    56   1 H    0.998 --     8 C    0.970
    57   1 H    0.998 --     9 C    0.963
    58   1 H    0.991 --    11 C    0.945
    59   1 H    0.993 --    12 C    0.942
    60   1 H    0.999 --    14 C    0.964
    61   1 H    0.997 --    15 C    0.969
    62   1 H    0.997 --    16 C    0.968
    63   1 H    0.999 --    19 C    0.966
    64   1 H    0.998 --    20 C    0.971
    65   1 H    0.998 --    21 C    0.971
    66   1 H    0.998 --    22 C    0.968
    67   1 H    0.997 --    26 C    0.965
    68   1 H    0.995 --    27 C    0.967
    69   1 H    0.992 --    28 C    0.960
    70   1 H    0.992 --    33 C    0.958
    71   1 H    0.996 --    35 C    0.928
    72   1 H    0.874 --    37 O    0.848
    73   1 H    0.992 --    42 C    0.957
    74   1 H    0.992 --    47 C    0.960
    75   1 H    0.995 --    48 C    0.967
    76   1 H    0.994 --    49 C    0.963
 ---------------------------------------------------------------------------

molecular dipole:
                 x           y           z       tot (Debye)
 q only:       -0.864       1.119       1.207
   full:       -0.784       0.756       1.364       4.437

           -------------------------------------------------
          | TOTAL ENERGY             -138.716147430900 Eh   |
          | GRADIENT NORM               0.000503950134 Eh/Î± |
          | HOMO-LUMO GAP               1.425078167712 eV   |
           -------------------------------------------------

 * finished run on 2022/03/16 at 21:35:13.262
