   * xtb version 6.3.3 (4ae9cef) compiled by 'conda@95abc7406d43' on 2020-10-14
          program call               : xtb acid_306.xyz --opt --chrg 0 --uhf 0 --gfn 2
          number of atoms            :                    74
          number of electrons        :                   250
          charge                     :                     0
          spin                       :                   0.0

   ID    Z sym.   atoms
    1    6 C      1, 2, 6-15, 19-22, 24-26, 28-32, 34, 35, 39-45, 47
    2    9 F      3-5, 16-18
    3    7 N      23, 38
    4    8 O      27, 33, 36, 37, 46, 48
    5    1 H      49-74

          :  Hamiltonian                  GFN2-xTB          :
 * total energy  :  -144.7528332 Eh     change       -0.2843024E-08 Eh
 * total energy  :  -144.7693400 Eh     change       -0.1650680E-01 Eh
 * total energy  :  -144.7747529 Eh     change       -0.5412916E-02 Eh
 * total energy  :  -144.7763040 Eh     change       -0.1551058E-02 Eh
 * total energy  :  -144.7773505 Eh     change       -0.1046476E-02 Eh
 * total energy  :  -144.7779510 Eh     change       -0.6005293E-03 Eh
 * total energy  :  -144.7783465 Eh     change       -0.3955425E-03 Eh
 * total energy  :  -144.7786669 Eh     change       -0.3203604E-03 Eh
 * total energy  :  -144.7789297 Eh     change       -0.2628307E-03 Eh
 * total energy  :  -144.7791230 Eh     change       -0.1932511E-03 Eh
 * total energy  :  -144.7803576 Eh     change       -0.7209339E-05 Eh
 * total energy  :  -144.7803660 Eh     change       -0.8449700E-05 Eh
 * total energy  :  -144.7803759 Eh     change       -0.9830484E-05 Eh
 * total energy  :  -144.7803828 Eh     change       -0.6933473E-05 Eh
 * total energy  :  -144.7803916 Eh     change       -0.8831910E-05 Eh
 * total energy  :  -144.7804044 Eh     change       -0.1281114E-04 Eh
 * total energy  :  -144.7804195 Eh     change       -0.1507693E-04 Eh
 * total energy  :  -144.7804263 Eh     change       -0.6744467E-05 Eh
 * total energy  :  -144.7804309 Eh     change       -0.4693830E-05 Eh
   *** GEOMETRY OPTIMIZATION CONVERGED AFTER 69 ITERATIONS ***

 final structure:
================
74
 xtb: 6.3.3 (4ae9cef)
C        -1.67711196594813   -0.28144145671560   -3.26194249373065
C        -2.75095808199570   -1.28743477722280   -2.92796347225207
F        -3.52770970226613   -0.91317208824732   -1.90561884087932
F        -2.25518928584961   -2.50128333340333   -2.62822628203216
F        -3.58906101563235   -1.49485957400407   -3.96096468511911
C        -1.75992175578900    0.36416696962686   -4.48910006593816
C        -0.80771697277076    1.29500431278395   -4.85863812219930
C         0.23297227634560    1.57839024175650   -3.99533665607239
C         0.31509108345072    0.94168215354888   -2.76932339515160
C        -0.63300950773635    0.00306047174977   -2.37479735437726
C        -0.57836289515211   -0.63430118258949   -1.00494500221356
C         0.79729093706951   -0.51243368472375   -0.29800811552405
C         1.00882918569140   -1.69150463945081    0.62320759080450
C         1.65784036903683   -2.84818116851001    0.18304372834772
C         2.22416833415552   -2.93029894879754   -1.20657237107502
F         3.25225143327278   -2.06803748559292   -1.39774577743024
F         1.33339907613839   -2.63898592363035   -2.17216898956357
F         2.71441891687780   -4.13749464784742   -1.50597978155830
C         1.80939644877933   -3.94149867618929    1.02663702584062
C         1.30887029269764   -3.89899785617817    2.31392399244773
C         0.66303582867361   -2.75996271710051    2.76017629609842
C         0.51851729828791   -1.67018239501999    1.92286087729143
N         0.66278601449393    0.74214620207920    0.42194666146230
C         1.51166701559654    1.21957080045950    1.37269979124760
C         2.84568545153185    0.55281271042758    1.42987975615534
C         3.71748613825265    0.52587644214958    0.33203136663298
O         3.28542005187774    1.13431914830170   -0.80817216778132
C         4.16495077097406    1.20475096007336   -1.90860489361787
C         4.95138452265863   -0.10060527791262    0.46514451239095
C         5.31159985365692   -0.68786474897461    1.66522064295555
C         4.46372541430541   -0.64073735573839    2.75647083375166
C         3.24053308348673   -0.00819781556405    2.63571395692798
O         1.17518939484341    2.09985302473515    2.13768154889223
C        -0.71059623304210    1.22834050817570    0.35164239649728
C        -0.82997609307673    2.44121824416027   -0.58637310731607
O         0.28804411868533    3.16051905073592   -0.57825596938778
O        -1.80722103380336    2.74752574650830   -1.20692118994886
N        -1.45644365960331    0.08625188872500   -0.09192156778142
C        -2.28965582572393   -0.64024473031485    0.73506470049051
C        -2.98611969432463    0.16552551370939    1.77528227508637
C        -2.85982154603088   -0.18386718638603    3.11061728164248
C        -3.50717424070907    0.54504160200018    4.09280938606131
C        -4.30369025823718    1.61538053623772    3.72820330907218
C        -4.47301194405645    1.95328432847375    2.39654295204980
C        -3.82237884421995    1.23117245855290    1.39951228594639
O        -3.94317589149844    1.44809274681761    0.07486192983299
C        -4.78738024868589    2.47665584075086   -0.37937545706021
O        -2.43408993961432   -1.83350162666947    0.60754281377382
H        -2.57473672210238    0.13572368146035   -5.15800626449752
H        -0.88291789361340    1.79270100079817   -5.81271429777865
H         0.98425820866626    2.30355806022611   -4.27133646198946
H         1.13098889626371    1.19890119298093   -2.11358452781664
H        -0.90889379603142   -1.67565763474955   -1.03815036504894
H         1.61003445907610   -0.45085575523405   -1.02079816844905
H         2.31417689095845   -4.82554686289864    0.66965270747710
H         1.42280851398144   -4.75334648673416    2.96210364762605
H         0.26826855244026   -2.71942863689050    3.76378382280243
H         0.02213042144711   -0.78523989029730    2.28981082230597
H         3.63462743131825    1.77014052933649   -2.67346600203185
H         4.40188944264204    0.20854535108166   -2.29297281453219
H         5.08823311696101    1.72969179112483   -1.64809079285950
H         5.63604101157459   -0.14398934806092   -0.36578158324564
H         6.27054370647667   -1.17748204795298    1.74387201271143
H         4.75374492270571   -1.08724523342295    3.69450719991276
H         2.56840889368174    0.05410951826343    3.47792051031154
H        -1.03430229858072    1.58108437371645    1.34344588370943
H         0.18794399225111    3.96286722545318   -1.11531932806206
H        -2.24624405512497   -1.03376403188146    3.36979832577963
H        -3.39380873057298    0.27735762268308    5.13139171315655
H        -4.81268997960275    2.19207700381824    4.48602973623141
H        -5.11628435350393    2.77968423611886    2.13976667697984
H        -5.82547180568996    2.30702721361499   -0.07600490744022
H        -4.71139296808177    2.44812053069828   -1.46361359183493
H        -4.45213253260233    3.45540999098935   -0.02400910711740

          :  Hamiltonian                  GFN2-xTB          :
         :: total energy            -144.780430948404 Eh    ::
         :: gradient norm              0.000628710522 Eh/a0 ::
         :: HOMO-LUMO gap              3.102356205772 eV    ::
         :: SCC energy              -146.492056055325 Eh    ::
         :: -> dispersion             -0.113529968940 Eh    ::
         :: repulsion energy           1.705741742093 Eh    ::

    * Orbital Energies and Occupations

         #    Occupation            Energy/Eh            Energy/eV
      -------------------------------------------------------------
         1        2.0000           -0.8846871             -24.0736
       ...           ...                  ...                  ...
       113        2.0000           -0.4422161             -12.0333
       114        2.0000           -0.4390603             -11.9474
       115        2.0000           -0.4370854             -11.8937
       116        2.0000           -0.4360891             -11.8666
       117        2.0000           -0.4316745             -11.7465
       118        2.0000           -0.4185381             -11.3890
       119        2.0000           -0.4155057             -11.3065
       120        2.0000           -0.4104917             -11.1700
       121        2.0000           -0.4069375             -11.0733
       122        2.0000           -0.3997007             -10.8764
       123        2.0000           -0.3963083             -10.7841
       124        2.0000           -0.3949067             -10.7460
       125        2.0000           -0.3833093             -10.4304 (HOMO)
       126                         -0.2692998              -7.3280 (LUMO)
       127                         -0.2658327              -7.2337
       128                         -0.2596278              -7.0648
       129                         -0.2557125              -6.9583
       130                         -0.2523135              -6.8658
       131                         -0.2498168              -6.7979
       132                         -0.2480863              -6.7508
       133                         -0.2298215              -6.2538
       134                         -0.2220226              -6.0415
       135                         -0.2080232              -5.6606
       136                         -0.2035140              -5.5379
       ...                                ...                  ...
       218                          0.6748343              18.3632
      -------------------------------------------------------------
                  HL-Gap            0.1140095 Eh            3.1024 eV

     #   Z          covCN         q      C6AA      Î±(0)
     1   6 C        2.977    -0.022    28.538     8.763
     2   6 C        3.335     0.486    17.290     6.587
     3   9 F        0.791    -0.195    11.186     3.951
     4   9 F        0.791    -0.206    11.295     3.970
     5   9 F        0.792    -0.209    11.328     3.976
     6   6 C        2.924    -0.021    28.524     8.758
     7   6 C        2.919    -0.023    28.575     8.766
     8   6 C        2.919    -0.021    28.529     8.759
     9   6 C        2.925    -0.037    28.921     8.819
    10   6 C        2.969     0.016    27.646     8.625
    11   6 C        3.862     0.039    19.882     6.341
    12   6 C        3.823     0.032    20.017     6.367
    13   6 C        2.971     0.010    27.797     8.648
    14   6 C        2.978    -0.035    28.862     8.812
    15   6 C        3.336     0.485    17.309     6.590
    16   9 F        0.791    -0.221    11.458     3.999
    17   9 F        0.791    -0.212    11.355     3.980
    18   9 F        0.792    -0.198    11.216     3.956
    19   6 C        2.922    -0.022    28.546     8.762
    20   6 C        2.920    -0.022    28.561     8.764
    21   6 C        2.919    -0.015    28.394     8.738
    22   6 C        2.925    -0.021    28.534     8.760
    23   7 N        2.766    -0.120    23.605     7.216
    24   6 C        2.764     0.280    22.258     7.726
    25   6 C        2.975    -0.040    29.001     8.834
    26   6 C        2.866     0.145    24.843     8.170
    27   8 O        1.705    -0.274    18.539     5.813
    28   6 C        3.643     0.034    20.343     6.484
    29   6 C        2.918    -0.063    29.574     8.918
    30   6 C        2.922    -0.028    28.706     8.786
    31   6 C        2.917    -0.041    29.013     8.833
    32   6 C        2.927    -0.025    28.621     8.773
    33   8 O        0.859    -0.427    22.221     6.320
    34   6 C        3.796     0.095    19.023     6.211
    35   6 C        2.687     0.356    20.961     7.493
    36   8 O        1.660    -0.352    19.946     6.029
    37   8 O        0.856    -0.386    21.397     6.202
    38   7 N        2.767    -0.121    23.626     7.219
    39   6 C        2.766     0.286    22.157     7.709
    40   6 C        2.976    -0.044    29.091     8.847
    41   6 C        2.923    -0.024    28.599     8.770
    42   6 C        2.917    -0.041    29.025     8.835
    43   6 C        2.921    -0.027    28.673     8.781
    44   6 C        2.917    -0.067    29.656     8.930
    45   6 C        2.867     0.149    24.767     8.158
    46   8 O        1.706    -0.249    18.117     5.747
    47   6 C        3.646     0.034    20.324     6.479
    48   8 O        0.858    -0.400    21.675     6.242
    49   1 H        0.926     0.069     2.095     2.263
    50   1 H        0.926     0.055     2.254     2.348
    51   1 H        0.926     0.048     2.347     2.396
    52   1 H        0.926     0.067     2.117     2.275
    53   1 H        0.924     0.097     1.810     2.104
    54   1 H        0.925     0.076     2.025     2.226
    55   1 H        0.926     0.067     2.116     2.275
    56   1 H        0.926     0.059     2.208     2.323
    57   1 H        0.926     0.057     2.230     2.335
    58   1 H        0.926     0.049     2.333     2.389
    59   1 H        0.925     0.062     2.178     2.308
    60   1 H        0.924     0.052     2.290     2.366
    61   1 H        0.924     0.046     2.365     2.405
    62   1 H        0.926     0.049     2.336     2.390
    63   1 H        0.926     0.044     2.397     2.421
    64   1 H        0.926     0.043     2.414     2.430
    65   1 H        0.926     0.049     2.336     2.390
    66   1 H        0.923     0.091     1.872     2.140
    67   1 H        0.804     0.340     0.611     1.228
    68   1 H        0.926     0.045     2.379     2.412
    69   1 H        0.926     0.042     2.423     2.434
    70   1 H        0.926     0.042     2.418     2.432
    71   1 H        0.926     0.044     2.399     2.422
    72   1 H        0.924     0.044     2.394     2.420
    73   1 H        0.925     0.076     2.016     2.220
    74   1 H        0.924     0.045     2.379     2.412

Wiberg/Mayer (AO) data.
largest (>0.10) Wiberg bond orders for each atom

     #   Z sym  total        # sym  WBO       # sym  WBO       # sym  WBO
 ---------------------------------------------------------------------------
     1   6 C    3.974 --     6 C    1.423    10 C    1.382     2 C    0.948
                             8 C    0.107
     2   6 C    3.828 --     3 F    0.956     1 C    0.948     5 F    0.944
                             4 F    0.943
     3   9 F    1.087 --     2 C    0.956
     4   9 F    1.075 --     2 C    0.943
     5   9 F    1.067 --     2 C    0.944
     6   6 C    3.987 --     7 C    1.436     1 C    1.423    49 H    0.965
                             9 C    0.108
     7   6 C    3.989 --     8 C    1.441     6 C    1.436    50 H    0.969
                            10 C    0.109
     8   6 C    3.991 --     7 C    1.441     9 C    1.439    51 H    0.970
                             1 C    0.107
     9   6 C    3.987 --     8 C    1.439    10 C    1.414    52 H    0.957
                             6 C    0.108
    10   6 C    3.985 --     9 C    1.414     1 C    1.382    11 C    0.990
                             7 C    0.109
    11   6 C    3.966 --    10 C    0.990    38 N    0.963    12 C    0.948
                            53 H    0.944
    12   6 C    3.970 --    13 C    0.993    23 N    0.974    11 C    0.948
                            54 H    0.942
    13   6 C    3.987 --    22 C    1.412    14 C    1.378    12 C    0.993
                            20 C    0.107
    14   6 C    3.967 --    19 C    1.415    13 C    1.378    15 C    0.952
                            21 C    0.105
    15   6 C    3.819 --    18 F    0.959    14 C    0.952    17 F    0.942
                            16 F    0.926
    16   9 F    1.056 --    15 C    0.926
    17   9 F    1.069 --    15 C    0.942
    18   9 F    1.082 --    15 C    0.959
    19   6 C    3.987 --    20 C    1.441    14 C    1.415    55 H    0.966
                            22 C    0.109
    20   6 C    3.988 --    19 C    1.441    21 C    1.435    56 H    0.969
                            13 C    0.107
    21   6 C    3.990 --    22 C    1.445    20 C    1.435    57 H    0.969
                            14 C    0.105
    22   6 C    3.990 --    21 C    1.445    13 C    1.412    58 H    0.963
                            19 C    0.109
    23   7 N    3.452 --    24 C    1.197    12 C    0.974    34 C    0.965
                            33 O    0.184
    24   6 C    3.947 --    33 O    1.689    23 N    1.197    25 C    0.974
    25   6 C    3.983 --    32 C    1.418    26 C    1.320    24 C    0.974
                            30 C    0.105
    26   6 C    3.937 --    29 C    1.377    25 C    1.320    27 O    1.062
    27   8 O    2.235 --    26 C    1.062    28 C    0.979
    28   6 C    3.940 --    59 H    0.979    27 O    0.979    61 H    0.977
                            60 H    0.976
    29   6 C    3.987 --    30 C    1.441    26 C    1.377    62 H    0.964
                            32 C    0.104
    30   6 C    3.991 --    29 C    1.441    31 C    1.437    63 H    0.970
                            25 C    0.105
    31   6 C    3.991 --    30 C    1.437    32 C    1.434    64 H    0.970
    32   6 C    3.988 --    31 C    1.434    25 C    1.418    65 H    0.968
                            29 C    0.104
    33   8 O    2.014 --    24 C    1.689    23 N    0.184
    34   6 C    3.969 --    38 N    0.999    23 N    0.965    66 H    0.922
                            35 C    0.922
    35   6 C    3.923 --    37 O    1.777    36 O    1.156    34 C    0.922
    36   8 O    2.226 --    35 C    1.156    67 H    0.858    37 O    0.183
    37   8 O    2.062 --    35 C    1.777    36 O    0.183
    38   7 N    3.418 --    39 C    1.146    34 C    0.999    11 C    0.963
                            48 O    0.171
    39   6 C    3.939 --    48 O    1.730    38 N    1.146    40 C    0.978
    40   6 C    3.981 --    41 C    1.424    45 C    1.299    39 C    0.978
                            43 C    0.103
    41   6 C    3.989 --    42 C    1.428    40 C    1.424    68 H    0.967
                            44 C    0.102
    42   6 C    3.990 --    43 C    1.436    41 C    1.428    69 H    0.970
    43   6 C    3.991 --    44 C    1.442    42 C    1.436    70 H    0.971
                            40 C    0.103
    44   6 C    3.987 --    43 C    1.442    45 C    1.365    71 H    0.965
                            41 C    0.102
    45   6 C    3.939 --    44 C    1.365    40 C    1.299    46 O    1.097
    46   8 O    2.274 --    45 C    1.097    47 C    0.978
    47   6 C    3.938 --    73 H    0.978    46 O    0.978    72 H    0.976
                            74 H    0.976
    48   8 O    2.047 --    39 C    1.730    38 N    0.171
    49   1 H    0.995 --     6 C    0.965
    50   1 H    0.996 --     7 C    0.969
    51   1 H    0.997 --     8 C    0.970
    52   1 H    0.995 --     9 C    0.957
    53   1 H    0.990 --    11 C    0.944
    54   1 H    0.994 --    12 C    0.942
    55   1 H    0.995 --    19 C    0.966
    56   1 H    0.996 --    20 C    0.969
    57   1 H    0.996 --    21 C    0.969
    58   1 H    0.997 --    22 C    0.963
    59   1 H    0.996 --    28 C    0.979
    60   1 H    0.997 --    28 C    0.976
    61   1 H    0.998 --    28 C    0.977
    62   1 H    0.997 --    29 C    0.964
    63   1 H    0.998 --    30 C    0.970
    64   1 H    0.998 --    31 C    0.970
    65   1 H    0.997 --    32 C    0.968
    66   1 H    0.991 --    34 C    0.922
    67   1 H    0.883 --    36 O    0.858
    68   1 H    0.997 --    41 C    0.967
    69   1 H    0.998 --    42 C    0.970
    70   1 H    0.998 --    43 C    0.971
    71   1 H    0.997 --    44 C    0.965
    72   1 H    0.998 --    47 C    0.976
    73   1 H    0.994 --    47 C    0.978
    74   1 H    0.998 --    47 C    0.976
 ---------------------------------------------------------------------------

molecular dipole:
                 x           y           z       tot (Debye)
 q only:        1.476       1.436       0.083
   full:        1.643       1.631       0.048       5.885

           -------------------------------------------------
          | TOTAL ENERGY             -144.780430948404 Eh   |
          | GRADIENT NORM               0.000628710522 Eh/Î± |
          | HOMO-LUMO GAP               3.102356205772 eV   |
           -------------------------------------------------

 * finished run on 2022/03/16 at 23:38:05.902
