   * xtb version 6.3.3 (4ae9cef) compiled by 'conda@95abc7406d43' on 2020-10-14
          program call               : xtb acid_188.xyz --opt --chrg 0 --uhf 0 --gfn 2
          number of atoms            :                    60
          number of electrons        :                   182
          charge                     :                     0
          spin                       :                   0.0

   ID    Z sym.   atoms
    1    6 C      1-14, 16-21, 24, 25, 29-34
    2    7 N      15, 28
    3    8 O      22, 23, 26, 27, 35, 36
    4    1 H      37-60

          :  Hamiltonian                  GFN2-xTB          :
 * total energy  :  -102.4641488 Eh     change       -0.2704766E-08 Eh
 * total energy  :  -102.4751343 Eh     change       -0.1098549E-01 Eh
 * total energy  :  -102.4789144 Eh     change       -0.3780143E-02 Eh
 * total energy  :  -102.4801529 Eh     change       -0.1238526E-02 Eh
 * total energy  :  -102.4809143 Eh     change       -0.7614119E-03 Eh
 * total energy  :  -102.4814458 Eh     change       -0.5314105E-03 Eh
 * total energy  :  -102.4818897 Eh     change       -0.4439523E-03 Eh
 * total energy  :  -102.4821208 Eh     change       -0.2310574E-03 Eh
 * total energy  :  -102.4822619 Eh     change       -0.1410970E-03 Eh
 * total energy  :  -102.4823628 Eh     change       -0.1009547E-03 Eh
 * total energy  :  -102.4841025 Eh     change       -0.4493311E-04 Eh
 * total energy  :  -102.4841542 Eh     change       -0.5172769E-04 Eh
 * total energy  :  -102.4841970 Eh     change       -0.4275857E-04 Eh
 * total energy  :  -102.4842298 Eh     change       -0.3277895E-04 Eh
 * total energy  :  -102.4842451 Eh     change       -0.1532850E-04 Eh
 * total energy  :  -102.4842566 Eh     change       -0.1149459E-04 Eh
 * total energy  :  -102.4842655 Eh     change       -0.8930959E-05 Eh
 * total energy  :  -102.4842707 Eh     change       -0.5190509E-05 Eh
 * total energy  :  -102.4842740 Eh     change       -0.3242748E-05 Eh
   *** GEOMETRY OPTIMIZATION CONVERGED AFTER 44 ITERATIONS ***

 final structure:
================
60
 xtb: 6.3.3 (4ae9cef)
C        -0.72516231335849   -0.88061295932986   -1.80726710587314
C        -1.16245912911969   -1.43955888808792   -2.99355597992495
C        -1.99759516942081   -2.54370947764760   -2.97625914567519
C        -2.38482153832446   -3.09429771571406   -1.76685699569930
C        -1.94762728519806   -2.53555733789376   -0.57952453342376
C        -1.12358296112652   -1.41829587511494   -0.58924880190325
C        -0.66815011547345   -0.79871263490936    0.71077544192210
C         0.84354308502168   -1.02672133885133    0.94599354942411
C         1.27144299810054   -1.35962082267880    2.35748445725182
C         2.55145494400005   -1.88218445573906    2.52066071226324
C         3.04772977260945   -2.15372735431499    3.78147754638667
C         2.26957927007473   -1.90643842563280    4.90057926584925
C         0.99730589578926   -1.38610684813141    4.74694042684686
C         0.49891199435592   -1.11075198251055    3.48352734339206
N         1.44972616607531    0.24560416098806    0.55569316805915
C         2.42620083076132    0.26373678788738   -0.40513437764781
C         2.88168808657630    1.58772185840977   -0.85393337003827
C         3.00080934356881    2.80929096966276   -0.23727443455528
C         3.62001588802215    3.66341154247565   -1.17230644385391
C         3.83936731777769    2.91210673295418   -2.29507158237339
C         4.44391526576750    3.26038065189748   -3.60613391478733
O         3.40461093058850    1.65932540529533   -2.10109526623286
O         2.91168412316124   -0.76829171858957   -0.82518473213817
C         0.50724430265366    1.27564581582721    0.88295462824131
C         0.63053457833993    1.73391065537696    2.34612924940168
O         1.89594193896640    1.97774928177735    2.68296754516148
O        -0.29560117673124    1.87706778995650    3.09040781019416
N        -0.78605362077019    0.65461735928909    0.68170813966697
C        -1.78536070800861    1.35876314900443    0.08009091759951
C        -3.03560247059663    0.58547244686342   -0.10208267848188
C        -3.78899601486907   -0.12689965780940    0.78970006169908
C        -4.88908719106166   -0.62821083405190    0.05880312045487
C        -4.72903597582454   -0.19025015398416   -1.22483676732696
C        -5.53073324157893   -0.42114676872551   -2.45369126852292
O        -3.61531520075368    0.55840478443390   -1.32004263375211
O        -1.64935914822892    2.52058951206048   -0.24235788590676
H        -0.08136635006076   -0.01367728641316   -1.83258161306826
H        -0.85298833386577   -1.00810187137665   -3.93341862457212
H        -2.34503146546485   -2.97465122631812   -3.90362777541946
H        -3.03488025138715   -3.95631030363769   -1.74628154139947
H        -2.25763570676606   -2.96150879955655    0.36379094294577
H        -1.25511623064337   -1.21938981553852    1.53171947603892
H         1.23219070619645   -1.79389874533554    0.26661222046763
H         3.15728185289354   -2.06688405839327    1.64607942853738
H         4.04240761499762   -2.55909024217301    3.89176704541260
H         2.65377185713537   -2.11745738528072    5.88753256838483
H         0.38483849740149   -1.18595606837276    5.61365810059176
H        -0.49033656461504   -0.68828237444173    3.39878727373878
H         2.72611711465236    3.05280545832017    0.76730176672184
H         3.86954649050643    4.69497858866481   -1.03169334741531
H         4.74564990743578    4.30315199962565   -3.60756208119147
H         3.72780147452442    3.09229144430500   -4.40928093273937
H         5.31320012775014    2.63299712204460   -3.79796312176365
H         0.59721114208212    2.16305012188630    0.24019335283466
H         1.95679682548256    2.25194515620143    3.61307337633785
H        -3.59440028613735   -0.25297489478594    1.83497529502641
H        -5.68890497839349   -1.23184296554961    0.43585087699123
H        -5.85793089744337    0.52699365088421   -2.87727833750905
H        -4.92606708691184   -0.93271846261223   -3.20177038146117
H        -6.39932193112202   -1.02817469660035   -2.21845343318367

          :  Hamiltonian                  GFN2-xTB          :
         :: total energy            -102.484273973248 Eh    ::
         :: gradient norm              0.000343135422 Eh/a0 ::
         :: HOMO-LUMO gap              3.450556941360 eV    ::
         :: SCC energy              -103.929398630142 Eh    ::
         :: -> dispersion             -0.082485700436 Eh    ::
         :: repulsion energy           1.442942349893 Eh    ::

    * Orbital Energies and Occupations

         #    Occupation            Energy/Eh            Energy/eV
      -------------------------------------------------------------
         1        2.0000           -0.7692358             -20.9320
       ...           ...                  ...                  ...
        79        2.0000           -0.4315201             -11.7423
        80        2.0000           -0.4299464             -11.6994
        81        2.0000           -0.4275665             -11.6347
        82        2.0000           -0.4189914             -11.4013
        83        2.0000           -0.4145407             -11.2802
        84        2.0000           -0.4130827             -11.2406
        85        2.0000           -0.4121590             -11.2154
        86        2.0000           -0.4067252             -11.0676
        87        2.0000           -0.4035770             -10.9819
        88        2.0000           -0.4024357             -10.9508
        89        2.0000           -0.3959023             -10.7730
        90        2.0000           -0.3913942             -10.6504
        91        2.0000           -0.3845467             -10.4640 (HOMO)
        92                         -0.2577411              -7.0135 (LUMO)
        93                         -0.2569968              -6.9932
        94                         -0.2449292              -6.6649
        95                         -0.2367808              -6.4431
        96                         -0.2334515              -6.3525
        97                         -0.2308122              -6.2807
        98                         -0.2300722              -6.2606
        99                         -0.1931663              -5.2563
       100                         -0.1880790              -5.1179
       101                         -0.1572899              -4.2801
       102                         -0.1511841              -4.1139
       ...                                ...                  ...
       168                          0.6930042              18.8576
      -------------------------------------------------------------
                  HL-Gap            0.1268056 Eh            3.4506 eV

     #   Z          covCN         q      C6AA      Î±(0)
     1   6 C        2.924    -0.024    28.613     8.772
     2   6 C        2.920    -0.023    28.580     8.767
     3   6 C        2.921    -0.029    28.720     8.788
     4   6 C        2.919    -0.027    28.685     8.783
     5   6 C        2.924    -0.035    28.882     8.813
     6   6 C        2.973    -0.002    28.071     8.691
     7   6 C        3.819     0.031    20.042     6.371
     8   6 C        3.850     0.035    19.956     6.354
     9   6 C        2.972    -0.001    28.045     8.687
    10   6 C        2.927    -0.033    28.821     8.804
    11   6 C        2.919    -0.027    28.683     8.783
    12   6 C        2.920    -0.030    28.761     8.794
    13   6 C        2.920    -0.030    28.740     8.791
    14   6 C        2.921    -0.038    28.957     8.824
    15   7 N        2.764    -0.121    23.631     7.220
    16   6 C        2.756     0.267    22.487     7.765
    17   6 C        3.099     0.071    26.284     8.402
    18   6 C        3.013    -0.064    29.577     8.921
    19   6 C        3.013    -0.074    29.834     8.960
    20   6 C        3.095     0.127    25.121     8.215
    21   6 C        3.753    -0.119    22.844     6.816
    22   8 O        1.731    -0.168    16.829     5.539
    23   8 O        0.859    -0.416    22.007     6.290
    24   6 C        3.787     0.089    19.115     6.227
    25   6 C        2.689     0.355    20.970     7.494
    26   8 O        1.659    -0.365    20.183     6.065
    27   8 O        0.856    -0.376    21.212     6.175
    28   7 N        2.768    -0.120    23.609     7.217
    29   6 C        2.759     0.272    22.399     7.750
    30   6 C        3.112     0.079    26.086     8.367
    31   6 C        3.014    -0.064    29.572     8.920
    32   6 C        3.018    -0.076    29.884     8.967
    33   6 C        3.101     0.120    25.250     8.234
    34   6 C        3.753    -0.118    22.815     6.811
    35   8 O        1.731    -0.178    16.983     5.564
    36   8 O        0.859    -0.416    22.004     6.289
    37   1 H        0.926     0.032     2.564     2.504
    38   1 H        0.926     0.041     2.437     2.441
    39   1 H        0.926     0.036     2.505     2.475
    40   1 H        0.926     0.037     2.488     2.467
    41   1 H        0.926     0.032     2.562     2.503
    42   1 H        0.924     0.059     2.209     2.324
    43   1 H        0.924     0.086     1.917     2.165
    44   1 H        0.926     0.051     2.305     2.374
    45   1 H        0.926     0.039     2.463     2.454
    46   1 H        0.926     0.036     2.504     2.474
    47   1 H        0.926     0.038     2.479     2.462
    48   1 H        0.926     0.040     2.444     2.445
    49   1 H        0.927     0.049     2.328     2.386
    50   1 H        0.926     0.043     2.403     2.424
    51   1 H        0.925     0.060     2.204     2.322
    52   1 H        0.925     0.069     2.099     2.266
    53   1 H        0.925     0.070     2.090     2.261
    54   1 H        0.923     0.099     1.794     2.095
    55   1 H        0.804     0.343     0.606     1.223
    56   1 H        0.926     0.041     2.441     2.443
    57   1 H        0.926     0.041     2.430     2.438
    58   1 H        0.925     0.068     2.109     2.271
    59   1 H        0.925     0.064     2.157     2.297
    60   1 H        0.925     0.058     2.220     2.330

Wiberg/Mayer (AO) data.
largest (>0.10) Wiberg bond orders for each atom

     #   Z sym  total        # sym  WBO       # sym  WBO       # sym  WBO
 ---------------------------------------------------------------------------
     1   6 C    3.992 --     2 C    1.447     6 C    1.410    37 H    0.968
                             4 C    0.111
     2   6 C    3.992 --     1 C    1.447     3 C    1.437    38 H    0.971
                             5 C    0.110
     3   6 C    3.990 --     4 C    1.439     2 C    1.437    39 H    0.971
                             6 C    0.109
     4   6 C    3.992 --     5 C    1.444     3 C    1.439    40 H    0.971
                             1 C    0.111
     5   6 C    3.991 --     4 C    1.444     6 C    1.412    41 H    0.968
                             2 C    0.110
     6   6 C    3.986 --     5 C    1.412     1 C    1.410     7 C    0.988
                             3 C    0.109
     7   6 C    3.964 --     6 C    0.988    28 N    0.961     8 C    0.959
                            42 H    0.951
     8   6 C    3.959 --     9 C    0.985     7 C    0.959    15 N    0.953
                            43 H    0.947
     9   6 C    3.984 --    14 C    1.421    10 C    1.404     8 C    0.985
                            12 C    0.109
    10   6 C    3.989 --    11 C    1.453     9 C    1.404    44 H    0.967
                            13 C    0.113
    11   6 C    3.992 --    10 C    1.453    12 C    1.432    45 H    0.970
                            14 C    0.110
    12   6 C    3.991 --    13 C    1.446    11 C    1.432    46 H    0.971
                             9 C    0.109
    13   6 C    3.992 --    12 C    1.446    14 C    1.435    47 H    0.971
                            10 C    0.113
    14   6 C    3.991 --    13 C    1.435     9 C    1.421    48 H    0.963
                            11 C    0.110
    15   7 N    3.447 --    16 C    1.172    24 C    0.994     8 C    0.953
                            23 O    0.180
    16   6 C    3.956 --    23 O    1.670    15 N    1.172    17 C    1.020
    17   6 C    3.904 --    18 C    1.516    22 O    1.105    16 C    1.020
                            20 C    0.127
    18   6 C    3.985 --    17 C    1.516    19 C    1.324    49 H    0.969
    19   6 C    3.980 --    20 C    1.537    18 C    1.324    50 H    0.974
    20   6 C    3.913 --    19 C    1.537    22 O    1.147    21 C    1.031
                            17 C    0.127
    21   6 C    3.992 --    20 C    1.031    51 H    0.984    53 H    0.967
                            52 H    0.967
    22   8 O    2.456 --    20 C    1.147    17 C    1.105
    23   8 O    2.019 --    16 C    1.670    15 N    0.180
    24   6 C    3.968 --    15 N    0.994    28 N    0.977    54 H    0.921
                            25 C    0.918
    25   6 C    3.920 --    27 O    1.788    26 O    1.146    24 C    0.918
    26   8 O    2.215 --    25 C    1.146    55 H    0.856    27 O    0.180
    27   8 O    2.069 --    25 C    1.788    26 O    0.180
    28   7 N    3.453 --    29 C    1.197    24 C    0.977     7 C    0.961
                            36 O    0.189
    29   6 C    3.955 --    36 O    1.687    28 N    1.197    30 C    0.982
    30   6 C    3.908 --    31 C    1.547    35 O    1.114    29 C    0.982
                            33 C    0.133
    31   6 C    3.982 --    30 C    1.547    32 C    1.305    56 H    0.974
    32   6 C    3.979 --    33 C    1.557    31 C    1.305    57 H    0.974
    33   6 C    3.909 --    32 C    1.557    35 O    1.129    34 C    1.030
                            30 C    0.133
    34   6 C    3.993 --    33 C    1.030    60 H    0.984    58 H    0.969
                            59 H    0.968
    35   8 O    2.446 --    33 C    1.129    30 C    1.114
    36   8 O    2.023 --    29 C    1.687    28 N    0.189
    37   1 H    0.999 --     1 C    0.968
    38   1 H    0.998 --     2 C    0.971
    39   1 H    0.998 --     3 C    0.971
    40   1 H    0.998 --     4 C    0.971
    41   1 H    0.999 --     5 C    0.968
    42   1 H    0.996 --     7 C    0.951
    43   1 H    0.992 --     8 C    0.947
    44   1 H    0.997 --    10 C    0.967
    45   1 H    0.998 --    11 C    0.970
    46   1 H    0.998 --    12 C    0.971
    47   1 H    0.998 --    13 C    0.971
    48   1 H    0.998 --    14 C    0.963
    49   1 H    0.998 --    18 C    0.969
    50   1 H    0.998 --    19 C    0.974
    51   1 H    0.996 --    21 C    0.984
    52   1 H    0.994 --    21 C    0.967
    53   1 H    0.995 --    21 C    0.967
    54   1 H    0.990 --    24 C    0.921
    55   1 H    0.882 --    26 O    0.856
    56   1 H    0.998 --    31 C    0.974
    57   1 H    0.998 --    32 C    0.974
    58   1 H    0.995 --    34 C    0.969
    59   1 H    0.995 --    34 C    0.968
    60   1 H    0.996 --    34 C    0.984
 ---------------------------------------------------------------------------

molecular dipole:
                 x           y           z       tot (Debye)
 q only:        0.092      -0.598       0.138
   full:        0.098      -0.405       0.266       1.256

           -------------------------------------------------
          | TOTAL ENERGY             -102.484273973248 Eh   |
          | GRADIENT NORM               0.000343135422 Eh/Î± |
          | HOMO-LUMO GAP               3.450556941360 eV   |
           -------------------------------------------------

 * finished run on 2022/03/16 at 22:18:36.077
